LAMMPS (30 Mar 2018)
Reading data file ...
  orthogonal box = (0 0 0) to (46.7237 46.7237 46.7237)
  2 by 2 by 4 MPI processor grid
  reading atoms ...
  1738 atoms
  scanning bonds ...
  5 = max bonds/atom
  scanning angles ...
  10 = max angles/atom
  scanning dihedrals ...
  32 = max dihedrals/atom
  scanning impropers ...
  3 = max impropers/atom
  reading bonds ...
  2064 bonds
  reading angles ...
  3696 angles
  reading dihedrals ...
  6240 dihedrals
  reading impropers ...
  1008 impropers
Finding 1-2 1-3 1-4 neighbors ...
  special bond factors lj:   0          0          0         
  special bond factors coul: 0          0          0         
  5 = max # of 1-2 neighbors
  8 = max # of 1-3 neighbors
  20 = max # of 1-4 neighbors
  19 = max # of special neighbors
Finding 1-2 1-3 1-4 neighbors ...
  special bond factors lj:   0          0          1         
  special bond factors coul: 1          1          1         
  5 = max # of 1-2 neighbors
  8 = max # of 1-3 neighbors
  19 = max # of special neighbors
WARNING: Using 'neigh_modify every 1 delay 0 check yes' setting during minimization (../min.cpp:168)
Neighbor list info ...
  update every 1 steps, delay 0 steps, check yes
  max neighbors/atom: 2000, page size: 100000
  master list distance cutoff = 16
  ghost atom cutoff = 16
  binsize = 8, bins = 6 6 6
  3 neighbor lists, perpetual/occasional/extra = 3 0 0
  (1) pair buck6d/coul/gauss/dsf, perpetual, skip from (3)
      attributes: half, newton on
      pair build: skip
      stencil: none
      bin: none
  (2) pair lj/cut, perpetual, skip from (3)
      attributes: half, newton on
      pair build: skip
      stencil: none
      bin: none
  (3) neighbor class addition, perpetual
      attributes: half, newton on
      pair build: half/bin/newton
      stencil: half/bin/3d/newton
      bin: standard
Setting up cg style minimization ...
  Unit style    : real
  Current step  : 0
WARNING: Inconsistent image flags (../domain.cpp:786)
Per MPI rank memory allocation (min/avg/max) = 22.89 | 23.35 | 23.79 Mbytes
Step Temp E_pair E_mol TotEng Press 
       0            0    -11539.04    6482.8914   -5056.1485    6287.7718 
     503            0   -11559.882    3736.1292   -7823.7532   -489.75684 
Loop time of 2.68907 on 16 procs for 503 steps with 1738 atoms

99.8% CPU use with 16 MPI tasks x no OpenMP threads

Minimization stats:
  Stopping criterion = max force evaluations
  Energy initial, next-to-last, final = 
        -5056.14848846       -7823.693679     -7823.75322822
  Force two-norm initial, final = 2576.94 10.6557
  Force max component initial, final = 152.026 3.28521
  Final line search alpha, max atom move = 0.00406745 0.0133624
  Iterations, force evaluations = 503 1000

MPI task timing breakdown:
Section |  min time  |  avg time  |  max time  |%varavg| %total
---------------------------------------------------------------
Pair    | 1.2906     | 1.5707     | 1.9245     |  14.4 | 58.41
Bond    | 0.31562    | 0.36217    | 0.42236    |   5.3 | 13.47
Neigh   | 0.01893    | 0.019014   | 0.019131   |   0.1 |  0.71
Comm    | 0.34572    | 0.69966    | 0.9723     |  19.7 | 26.02
Output  | 0          | 0          | 0          |   0.0 |  0.00
Modify  | 0          | 0          | 0          |   0.0 |  0.00
Other   |            | 0.03748    |            |       |  1.39

Nlocal:    108.625 ave 121 max 93 min
Histogram: 1 0 1 4 1 2 2 1 2 2
Nghost:    2193.5 ave 2210 max 2181 min
Histogram: 3 0 2 1 4 1 3 1 0 1
Neighs:    11440.3 ave 15942 max 8139 min
Histogram: 2 3 3 0 2 2 0 1 2 1

Total # of neighbors = 183045
Ave neighs/atom = 105.319
Ave special neighs/atom = 6.62831
Neighbor list builds = 17
Dangerous builds = 0
Neighbor list info ...
  update every 1 steps, delay 10 steps, check yes
  max neighbors/atom: 2000, page size: 100000
  master list distance cutoff = 16
  ghost atom cutoff = 16
  binsize = 8, bins = 6 6 6
  3 neighbor lists, perpetual/occasional/extra = 3 0 0
  (1) pair buck6d/coul/gauss/dsf, perpetual, skip from (3)
      attributes: half, newton on
      pair build: skip
      stencil: none
      bin: none
  (2) pair lj/cut, perpetual, skip from (3)
      attributes: half, newton on
      pair build: skip
      stencil: none
      bin: none
  (3) neighbor class addition, perpetual
      attributes: half, newton on
      pair build: half/bin/newton
      stencil: half/bin/3d/newton
      bin: standard
Setting up Verlet run ...
  Unit style    : real
  Current step  : 503
  Time step     : 1
WARNING: Inconsistent image flags (../domain.cpp:786)
Per MPI rank memory allocation (min/avg/max) = 22.54 | 22.6 | 22.67 Mbytes
Step Temp PotEng TotEng Press Volume Lx Ly Lz 
     503          130   -7823.7532   -7150.6565    -188.1101     102002.7      46.7237      46.7237      46.7237 
    1000    117.54437   -7240.6714   -6632.0658    -717.6433     102002.7      46.7237      46.7237      46.7237 
    2000    129.88148   -7119.4401   -6446.9571   -658.61703     102002.7      46.7237      46.7237      46.7237 
    3000    124.93375   -7123.1308   -6476.2654   -1044.7963     102002.7      46.7237      46.7237      46.7237 
    4000    130.70639   -7156.2499   -6479.4957   -743.08898     102002.7      46.7237      46.7237      46.7237 
    5000    131.59948   -7136.7081   -6455.3298   -751.07553     102002.7      46.7237      46.7237      46.7237 
    6000    129.34201   -7166.9637   -6497.2739   -631.20095     102002.7      46.7237      46.7237      46.7237 
    7000    131.72089   -7137.5906   -6455.5837   -857.73497     102002.7      46.7237      46.7237      46.7237 
    8000    128.07591   -7150.7708   -6487.6364   -927.56515     102002.7      46.7237      46.7237      46.7237 
    9000    130.59256   -7156.1141   -6479.9493   -894.22707     102002.7      46.7237      46.7237      46.7237 
   10000    129.86711   -7139.6558   -6467.2472   -1130.6785     102002.7      46.7237      46.7237      46.7237 
   11000    133.13861   -7142.7133   -6453.3659    -951.2217     102002.7      46.7237      46.7237      46.7237 
   12000    124.30894    -7139.926   -6496.2957   -886.39077     102002.7      46.7237      46.7237      46.7237 
   13000    131.62887   -7162.3399   -6480.8094   -397.45555     102002.7      46.7237      46.7237      46.7237 
   14000    133.90363   -7129.6154   -6436.3069   -1073.7987     102002.7      46.7237      46.7237      46.7237 
   15000    130.38958   -7142.8434   -6467.7295   -342.39398     102002.7      46.7237      46.7237      46.7237 
   16000    128.17167   -7139.5171   -6475.8868   -908.70416     102002.7      46.7237      46.7237      46.7237 
   17000    134.22857   -7138.5641   -6443.5733    -767.0751     102002.7      46.7237      46.7237      46.7237 
   18000    128.88964   -7122.4002   -6455.0525     -898.746     102002.7      46.7237      46.7237      46.7237 
   19000    126.61516   -7157.5952    -6502.024   -854.15554     102002.7      46.7237      46.7237      46.7237 
   20000    132.56761   -7147.7531   -6461.3621   -873.61311     102002.7      46.7237      46.7237      46.7237 
   21000    128.76713   -7142.5416   -6475.8282   -1142.0483     102002.7      46.7237      46.7237      46.7237 
   22000    129.93558   -7145.4855   -6472.7224   -684.40477     102002.7      46.7237      46.7237      46.7237 
   23000    129.39748   -7139.9937   -6470.0166   -888.33813     102002.7      46.7237      46.7237      46.7237 
   24000    130.49541   -7140.9941   -6465.3323   -856.90502     102002.7      46.7237      46.7237      46.7237 
   25000    128.78656   -7175.2691   -6508.4552   -752.64194     102002.7      46.7237      46.7237      46.7237 
   26000    126.34852   -7139.3628   -6485.1722   -783.95275     102002.7      46.7237      46.7237      46.7237 
   27000    128.45218   -7112.9981   -6447.9155   -1002.1503     102002.7      46.7237      46.7237      46.7237 
   28000    127.10164   -7152.0394   -6493.9494   -929.74522     102002.7      46.7237      46.7237      46.7237 
   29000    128.77222   -7129.7259   -6462.9862   -794.50755     102002.7      46.7237      46.7237      46.7237 
   30000    136.48141   -7153.5148   -6446.8595   -1011.5274     102002.7      46.7237      46.7237      46.7237 
   31000    130.45618   -7159.9927   -6484.5341   -655.50869     102002.7      46.7237      46.7237      46.7237 
   32000     131.4592   -7142.6225   -6461.9705   -648.66034     102002.7      46.7237      46.7237      46.7237 
   33000    129.31456   -7152.5553   -6483.0076   -389.35245     102002.7      46.7237      46.7237      46.7237 
   34000    130.47473   -7142.4149   -6466.8602   -630.97837     102002.7      46.7237      46.7237      46.7237 
   35000    128.47981    -7127.338   -6462.1124   -528.86322     102002.7      46.7237      46.7237      46.7237 
   36000    126.08162   -7160.5369   -6507.7283   -710.93714     102002.7      46.7237      46.7237      46.7237 
   37000    130.66332   -7131.8893   -6455.3581   -457.39065     102002.7      46.7237      46.7237      46.7237 
   38000    127.03363    -7146.134   -6488.3961   -669.12703     102002.7      46.7237      46.7237      46.7237 
   39000    129.39184   -7123.2241   -6453.2762   -771.92561     102002.7      46.7237      46.7237      46.7237 
   40000    128.24896    -7157.072   -6493.0415   -690.95745     102002.7      46.7237      46.7237      46.7237 
   41000    128.12926   -7149.4685   -6486.0578   -643.66063     102002.7      46.7237      46.7237      46.7237 
   42000    129.17002    -7132.518   -6463.7187   -300.22681     102002.7      46.7237      46.7237      46.7237 
   43000    130.38005   -7137.4298   -6462.3654   -751.71485     102002.7      46.7237      46.7237      46.7237 
   44000    127.27233   -7160.5119   -6501.5381   -893.63483     102002.7      46.7237      46.7237      46.7237 
   45000    130.68697   -7162.7912   -6486.1376   -673.44234     102002.7      46.7237      46.7237      46.7237 
   46000    133.70102   -7118.3471   -6426.0878   -669.81684     102002.7      46.7237      46.7237      46.7237 
   47000    133.90976   -7174.9202     -6481.58   -621.34918     102002.7      46.7237      46.7237      46.7237 
   48000    132.42927   -7143.7693   -6458.0947   -464.66051     102002.7      46.7237      46.7237      46.7237 
   49000    129.51998   -7145.0071   -6474.3958   -478.20163     102002.7      46.7237      46.7237      46.7237 
   50000     130.8363   -7129.7304   -6452.3036   -482.46748     102002.7      46.7237      46.7237      46.7237 
   51000    127.78032   -7154.8063   -6493.2023   -666.25968     102002.7      46.7237      46.7237      46.7237 
   52000    129.17014   -7145.3898   -6476.5898   -417.98821     102002.7      46.7237      46.7237      46.7237 
   53000    128.59357   -7149.0973   -6483.2826   -634.62012     102002.7      46.7237      46.7237      46.7237 
   54000    129.32017   -7135.1743   -6465.5976   -514.79433     102002.7      46.7237      46.7237      46.7237 
   55000    130.54424   -7175.5264   -6499.6118   -324.08119     102002.7      46.7237      46.7237      46.7237 
   56000    131.33377   -7140.9656    -6460.963   -659.63679     102002.7      46.7237      46.7237      46.7237 
   57000     129.4133    -7154.853    -6484.794   -388.23066     102002.7      46.7237      46.7237      46.7237 
   58000    123.89904   -7146.3035   -6504.7956   -340.98112     102002.7      46.7237      46.7237      46.7237 
   59000    130.71685   -7139.5681   -6462.7598   -380.65102     102002.7      46.7237      46.7237      46.7237 
   60000    123.78141   -7151.7724   -6510.8735   -665.03608     102002.7      46.7237      46.7237      46.7237 
   61000    131.18055   -7153.3087   -6474.0995   -489.29352     102002.7      46.7237      46.7237      46.7237 
   62000    128.01971   -7143.7872   -6480.9438   -512.30695     102002.7      46.7237      46.7237      46.7237 
   63000    130.42241   -7143.8259    -6468.542   -772.56682     102002.7      46.7237      46.7237      46.7237 
   64000     134.0339   -7139.3199    -6445.337   -762.61631     102002.7      46.7237      46.7237      46.7237 
   65000    135.71295   -7150.3207   -6447.6443   -789.51949     102002.7      46.7237      46.7237      46.7237 
   66000     128.6545   -7135.7332   -6469.6031   -879.35592     102002.7      46.7237      46.7237      46.7237 
   67000    129.97702   -7124.2313   -6451.2535   -634.56024     102002.7      46.7237      46.7237      46.7237 
   68000    124.73327   -7142.4938   -6496.6665   -542.73706     102002.7      46.7237      46.7237      46.7237 
   69000    131.32994   -7166.1849   -6486.2022    -705.2647     102002.7      46.7237      46.7237      46.7237 
   70000    125.69738   -7113.5755   -6462.7563   -902.82871     102002.7      46.7237      46.7237      46.7237 
   71000    135.15403   -7127.1945    -6427.412   -816.81122     102002.7      46.7237      46.7237      46.7237 
   72000      130.049   -7140.4564    -6467.106   -751.42146     102002.7      46.7237      46.7237      46.7237 
   73000    129.18658   -7146.4296   -6477.5444   -835.69902     102002.7      46.7237      46.7237      46.7237 
   74000    134.41789    -7140.387    -6444.416   -664.39039     102002.7      46.7237      46.7237      46.7237 
   75000     131.5034   -7148.7719   -6467.8911   -677.17172     102002.7      46.7237      46.7237      46.7237 
   76000    129.51187   -7159.6105   -6489.0411   -762.94147     102002.7      46.7237      46.7237      46.7237 
   77000    130.01561   -7140.7084   -6467.5309   -928.05574     102002.7      46.7237      46.7237      46.7237 
   78000     124.6383   -7129.0014   -6483.6658   -519.86313     102002.7      46.7237      46.7237      46.7237 
   79000    131.37081   -7145.0848   -6464.8905   -417.13999     102002.7      46.7237      46.7237      46.7237 
   80000    126.68556   -7165.1845   -6509.2489   -638.88357     102002.7      46.7237      46.7237      46.7237 
   81000    128.56265   -7145.8722   -6480.2176   -772.95882     102002.7      46.7237      46.7237      46.7237 
   82000    127.99429   -7120.2422   -6457.5304   -674.25868     102002.7      46.7237      46.7237      46.7237 
   83000    127.98237   -7163.4721    -6500.822   -811.38964     102002.7      46.7237      46.7237      46.7237 
   84000    131.98062   -7143.2011   -6459.8494   -960.04743     102002.7      46.7237      46.7237      46.7237 
   85000    130.69417    -7150.231   -6473.5401    -644.3507     102002.7      46.7237      46.7237      46.7237 
   86000    129.36827    -7119.777   -6449.9512   -811.57555     102002.7      46.7237      46.7237      46.7237 
   87000    127.94944   -7125.5132   -6463.0336   -942.99255     102002.7      46.7237      46.7237      46.7237 
   88000    130.04569   -7143.5628   -6470.2295   -695.93126     102002.7      46.7237      46.7237      46.7237 
   89000    131.60216   -7131.6467   -6450.2545   -777.40016     102002.7      46.7237      46.7237      46.7237 
   90000    129.11696   -7125.7663   -6457.2417   -417.00281     102002.7      46.7237      46.7237      46.7237 
   91000    130.47289   -7140.9872    -6465.442   -741.04579     102002.7      46.7237      46.7237      46.7237 
   92000    130.58526   -7160.7485   -6484.6215   -793.10899     102002.7      46.7237      46.7237      46.7237 
   93000     130.6732    -7119.405   -6442.8227   -740.86954     102002.7      46.7237      46.7237      46.7237 
   94000    129.25714   -7134.4075   -6465.1571    -833.6243     102002.7      46.7237      46.7237      46.7237 
   95000    122.89103   -7143.0744   -6506.7855   -773.61361     102002.7      46.7237      46.7237      46.7237 
   96000    129.51018   -7126.0452   -6455.4846   -772.13122     102002.7      46.7237      46.7237      46.7237 
   97000    131.23055   -7168.5682   -6489.1001   -1164.8336     102002.7      46.7237      46.7237      46.7237 
   98000    125.21591   -7129.2892   -6480.9629   -1002.7157     102002.7      46.7237      46.7237      46.7237 
   99000    128.34985   -7114.2012   -6449.6484   -1004.5197     102002.7      46.7237      46.7237      46.7237 
  100000    133.24038   -7127.0625   -6437.1881    -693.6896     102002.7      46.7237      46.7237      46.7237 
  101000    124.60436    -7121.388   -6476.2281   -1388.9347     102002.7      46.7237      46.7237      46.7237 
  102000    132.98011   -7128.0999   -6439.5732   -733.98853     102002.7      46.7237      46.7237      46.7237 
  103000    129.77735   -7151.2881   -6479.3442   -878.53685     102002.7      46.7237      46.7237      46.7237 
  104000    126.71143   -7144.2527   -6488.1831   -929.80212     102002.7      46.7237      46.7237      46.7237 
  105000    131.88608   -7140.0877   -6457.2255   -636.84627     102002.7      46.7237      46.7237      46.7237 
  106000    128.38664   -7149.8815   -6485.1382   -969.27981     102002.7      46.7237      46.7237      46.7237 
  107000    132.02482   -7119.3122   -6435.7317   -608.02792     102002.7      46.7237      46.7237      46.7237 
  108000    126.41452   -7139.8139   -6485.2816    -972.2894     102002.7      46.7237      46.7237      46.7237 
  109000    127.90575   -7117.5312   -6455.2778   -706.34378     102002.7      46.7237      46.7237      46.7237 
  110000    129.42368   -7117.2496   -6447.1369   -1140.3369     102002.7      46.7237      46.7237      46.7237 
  111000    130.26737   -7148.0806   -6473.5996   -448.19814     102002.7      46.7237      46.7237      46.7237 
  112000    136.52884   -7158.5251   -6451.6242   -710.54782     102002.7      46.7237      46.7237      46.7237 
  113000    129.36805   -7168.3164   -6498.4917   -671.17794     102002.7      46.7237      46.7237      46.7237 
  114000     129.3249   -7141.4368   -6471.8355   -518.49082     102002.7      46.7237      46.7237      46.7237 
  115000    129.59519   -7145.7251   -6474.7244   -805.82799     102002.7      46.7237      46.7237      46.7237 
  116000     131.7078   -7137.0113   -6455.0722   -651.34366     102002.7      46.7237      46.7237      46.7237 
  117000    133.04976   -7158.3708   -6469.4835   -711.13773     102002.7      46.7237      46.7237      46.7237 
  118000    127.29951    -7152.133   -6493.0185   -846.06867     102002.7      46.7237      46.7237      46.7237 
  119000    130.73484    -7150.496   -6473.5945    -623.3587     102002.7      46.7237      46.7237      46.7237 
  120000    130.11864   -7138.5202   -6464.8092   -818.30951     102002.7      46.7237      46.7237      46.7237 
  121000    128.77004   -7125.6049   -6458.8765   -960.11978     102002.7      46.7237      46.7237      46.7237 
  122000     130.9471   -7156.8574   -6478.8569   -626.74308     102002.7      46.7237      46.7237      46.7237 
  123000    130.52337   -7142.5451   -6466.7386   -723.39938     102002.7      46.7237      46.7237      46.7237 
  124000      130.361   -7149.9241   -6474.9583   -773.34493     102002.7      46.7237      46.7237      46.7237 
  125000    124.91294   -7155.9404   -6509.1827   -862.25875     102002.7      46.7237      46.7237      46.7237 
  126000    130.98413   -7137.6246   -6459.4324   -1018.2091     102002.7      46.7237      46.7237      46.7237 
  127000    126.94712   -7147.3015   -6490.0115   -968.33751     102002.7      46.7237      46.7237      46.7237 
  128000     130.1497   -7129.2893   -6455.4175   -601.31774     102002.7      46.7237      46.7237      46.7237 
  129000    129.51108    -7159.014   -6488.4488   -710.67799     102002.7      46.7237      46.7237      46.7237 
  130000     129.6345   -7142.0162    -6470.812   -615.90113     102002.7      46.7237      46.7237      46.7237 
  131000    130.59308   -7148.1735    -6472.006   -448.66928     102002.7      46.7237      46.7237      46.7237 
  132000    128.83371   -7131.3498   -6464.2918   -854.64116     102002.7      46.7237      46.7237      46.7237 
  133000     127.5324   -7145.9536   -6485.6333   -519.66546     102002.7      46.7237      46.7237      46.7237 
  134000    126.24566    -7124.844    -6471.186   -764.20788     102002.7      46.7237      46.7237      46.7237 
  135000    127.61482    -7148.981    -6488.234   -803.79899     102002.7      46.7237      46.7237      46.7237 
  136000    128.19202    -7142.373   -6478.6374   -676.60563     102002.7      46.7237      46.7237      46.7237 
  137000    128.21529   -7131.6692   -6467.8131   -1121.8298     102002.7      46.7237      46.7237      46.7237 
  138000    128.92447   -7144.8437   -6477.3157   -678.53552     102002.7      46.7237      46.7237      46.7237 
  139000    132.62558   -7127.2874   -6440.5964   -852.22752     102002.7      46.7237      46.7237      46.7237 
  140000     129.0183   -7130.3005   -6462.2867   -1136.3106     102002.7      46.7237      46.7237      46.7237 
  141000    129.31502   -7172.2474   -6502.6973   -677.27302     102002.7      46.7237      46.7237      46.7237 
  142000    130.94822   -7135.7955   -6457.7892   -1005.8533     102002.7      46.7237      46.7237      46.7237 
  143000    131.27458   -7153.4296   -6473.7336   -688.79681     102002.7      46.7237      46.7237      46.7237 
  144000    128.57862   -7145.8016   -6480.0642   -727.66596     102002.7      46.7237      46.7237      46.7237 
  145000    129.97937   -7130.7444   -6457.7545   -739.32759     102002.7      46.7237      46.7237      46.7237 
  146000    131.06972   -7158.0306   -6479.3953    -922.8644     102002.7      46.7237      46.7237      46.7237 
  147000    129.58882   -7171.7342   -6500.7665   -754.10846     102002.7      46.7237      46.7237      46.7237 
  148000    133.86696   -7139.6063   -6446.4877   -937.35671     102002.7      46.7237      46.7237      46.7237 
  149000    128.38743   -7129.2248   -6464.4774   -363.23981     102002.7      46.7237      46.7237      46.7237 
  150000    126.89795   -7135.4279   -6478.3925   -768.57908     102002.7      46.7237      46.7237      46.7237 
  151000    132.86692   -7145.7773   -6457.8367    -849.4363     102002.7      46.7237      46.7237      46.7237 
  152000    132.36169   -7141.5903   -6456.2655   -938.91027     102002.7      46.7237      46.7237      46.7237 
  153000    131.25162   -7147.4364   -6467.8592     -617.646     102002.7      46.7237      46.7237      46.7237 
  154000    130.72003   -7174.8105   -6497.9857   -682.57149     102002.7      46.7237      46.7237      46.7237 
  155000    125.45253   -7132.3922   -6482.8407   -606.77746     102002.7      46.7237      46.7237      46.7237 
  156000    135.72108    -7146.029   -6443.3105   -657.44631     102002.7      46.7237      46.7237      46.7237 
  157000     129.0025   -7153.3056   -6485.3736   -528.17545     102002.7      46.7237      46.7237      46.7237 
  158000    130.02522   -7131.4132   -6458.1859   -711.83571     102002.7      46.7237      46.7237      46.7237 
  159000     130.5592   -7169.7585   -6493.7664   -1089.8732     102002.7      46.7237      46.7237      46.7237 
  160000    125.92073    -7128.747   -6476.7714   -725.93722     102002.7      46.7237      46.7237      46.7237 
  161000     125.4172   -7128.8154   -6479.4469   -1029.8109     102002.7      46.7237      46.7237      46.7237 
  162000    129.91143   -7148.0211    -6475.383   -927.48121     102002.7      46.7237      46.7237      46.7237 
  163000    122.35135   -7130.9943   -6497.4998   -1066.7052     102002.7      46.7237      46.7237      46.7237 
  164000    129.62487   -7153.2438   -6482.0894   -689.00612     102002.7      46.7237      46.7237      46.7237 
  165000    127.87514   -7147.8949      -6485.8   -929.59511     102002.7      46.7237      46.7237      46.7237 
  166000     131.4887   -7139.8336   -6459.0289    -579.0184     102002.7      46.7237      46.7237      46.7237 
  167000    134.95679    -7133.576   -6434.8147   -767.12231     102002.7      46.7237      46.7237      46.7237 
  168000    126.65571   -7139.4484   -6483.6673   -686.22202     102002.7      46.7237      46.7237      46.7237 
  169000     134.6366    -7137.322   -6440.2185   -716.30028     102002.7      46.7237      46.7237      46.7237 
  170000    130.10657   -7132.4034   -6458.7549   -892.91122     102002.7      46.7237      46.7237      46.7237 
  171000    128.67336   -7151.6333   -6485.4055   -834.04886     102002.7      46.7237      46.7237      46.7237 
  172000    126.91041   -7141.1939   -6484.0941   -705.17521     102002.7      46.7237      46.7237      46.7237 
  173000    127.91918   -7136.1416   -6473.8187   -1027.4887     102002.7      46.7237      46.7237      46.7237 
  174000    131.76249   -7136.4706   -6454.2483   -652.04874     102002.7      46.7237      46.7237      46.7237 
  175000    133.49653   -7157.0758   -6465.8752   -771.93349     102002.7      46.7237      46.7237      46.7237 
  176000    126.20561   -7147.4545   -6494.0039   -1175.9114     102002.7      46.7237      46.7237      46.7237 
  177000    132.39738   -7150.7405    -6465.231   -638.45126     102002.7      46.7237      46.7237      46.7237 
  178000    132.17395   -7176.3337    -6491.981   -511.81346     102002.7      46.7237      46.7237      46.7237 
  179000    129.16725   -7136.4582   -6467.6731   -556.85593     102002.7      46.7237      46.7237      46.7237 
  180000    129.54943    -7134.415   -6463.6512   -726.47969     102002.7      46.7237      46.7237      46.7237 
  181000    127.65851   -7142.5141   -6481.5408   -756.89397     102002.7      46.7237      46.7237      46.7237 
  182000    132.40604   -7118.7132   -6433.1588   -1050.6836     102002.7      46.7237      46.7237      46.7237 
  183000    133.19628   -7163.1025   -6473.4565   -365.20176     102002.7      46.7237      46.7237      46.7237 
  184000    131.49569   -7148.9753   -6468.1344   -970.78659     102002.7      46.7237      46.7237      46.7237 
  185000    127.41067   -7145.0211   -6485.3311   -1018.4614     102002.7      46.7237      46.7237      46.7237 
  186000    130.24353   -7146.7346   -6472.3769   -899.04121     102002.7      46.7237      46.7237      46.7237 
  187000    131.85492   -7159.7193   -6477.0184   -945.46752     102002.7      46.7237      46.7237      46.7237 
  188000    132.95242   -7125.9496   -6437.5662   -944.39537     102002.7      46.7237      46.7237      46.7237 
  189000    137.15441   -7165.6104   -6455.4706   -964.08728     102002.7      46.7237      46.7237      46.7237 
  190000    129.58323   -7145.3006   -6474.3618   -544.70981     102002.7      46.7237      46.7237      46.7237 
  191000    126.89716   -7164.7984   -6507.7672   -918.21352     102002.7      46.7237      46.7237      46.7237 
  192000    128.66424   -7152.6062   -6486.4256   -743.82039     102002.7      46.7237      46.7237      46.7237 
  193000    132.06324   -7145.0191   -6461.2396   -408.20798     102002.7      46.7237      46.7237      46.7237 
  194000    127.09568   -7130.7408   -6472.6816   -886.61195     102002.7      46.7237      46.7237      46.7237 
  195000     131.3641   -7165.3877   -6485.2281   -737.27476     102002.7      46.7237      46.7237      46.7237 
  196000    132.86732   -7139.6956   -6451.7529   -882.91667     102002.7      46.7237      46.7237      46.7237 
  197000    131.96958   -7151.3966    -6468.102   -604.05438     102002.7      46.7237      46.7237      46.7237 
  198000    130.98753   -7153.6208    -6475.411   -792.92433     102002.7      46.7237      46.7237      46.7237 
  199000    129.15879   -7123.4789   -6454.7376   -695.79341     102002.7      46.7237      46.7237      46.7237 
  200000    132.35711   -7148.5864   -6463.2854   -715.81039     102002.7      46.7237      46.7237      46.7237 
  201000    128.21216   -7150.8538   -6487.0139   -955.91151     102002.7      46.7237      46.7237      46.7237 
  202000    132.00514   -7141.5215   -6458.0428   -616.91561     102002.7      46.7237      46.7237      46.7237 
  203000    126.39831   -7124.0373    -6469.589   -443.16121     102002.7      46.7237      46.7237      46.7237 
  204000    129.61194    -7151.301   -6480.2135   -727.40147     102002.7      46.7237      46.7237      46.7237 
  205000    133.09396   -7154.8237   -6465.7075    -824.3808     102002.7      46.7237      46.7237      46.7237 
  206000    127.13954   -7148.4051   -6490.1189   -565.18174     102002.7      46.7237      46.7237      46.7237 
  207000    130.66412   -7124.6596   -6448.1243   -717.54087     102002.7      46.7237      46.7237      46.7237 
  208000    127.50204   -7132.0175   -6471.8544   -858.77716     102002.7      46.7237      46.7237      46.7237 
  209000    129.87846   -7168.8622   -6496.3948    -884.8052     102002.7      46.7237      46.7237      46.7237 
  210000    130.70039   -7145.1584   -6468.4353   -781.67655     102002.7      46.7237      46.7237      46.7237 
  211000    129.29132   -7148.5866   -6479.1592    -641.7617     102002.7      46.7237      46.7237      46.7237 
  212000     131.2723   -7138.8256   -6459.1414   -707.93927     102002.7      46.7237      46.7237      46.7237 
  213000     127.0231   -7135.4369   -6477.7536   -790.28027     102002.7      46.7237      46.7237      46.7237 
  214000     131.6008   -7139.9435   -6458.5584    -276.2383     102002.7      46.7237      46.7237      46.7237 
  215000    126.21789   -7132.9926   -6479.4784   -361.19233     102002.7      46.7237      46.7237      46.7237 
  216000     136.2934   -7143.5759   -6437.8941   -711.30823     102002.7      46.7237      46.7237      46.7237 
  217000    132.69976   -7156.3559   -6469.2807   -835.34915     102002.7      46.7237      46.7237      46.7237 
  218000    133.94677   -7142.9003   -6449.3685   -350.49758     102002.7      46.7237      46.7237      46.7237 
  219000    126.02002   -7161.4097     -6508.92   -907.41256     102002.7      46.7237      46.7237      46.7237 
  220000    135.08687   -7147.4946   -6448.0598   -696.59782     102002.7      46.7237      46.7237      46.7237 
  221000    128.17228   -7144.0967   -6480.4633   -668.48537     102002.7      46.7237      46.7237      46.7237 
  222000    129.74658   -7165.5941   -6493.8095   -756.10844     102002.7      46.7237      46.7237      46.7237 
  223000    132.69906   -7149.0678   -6461.9962   -299.70805     102002.7      46.7237      46.7237      46.7237 
  224000     131.8087   -7143.9745   -6461.5129   -895.91326     102002.7      46.7237      46.7237      46.7237 
  225000    132.60914   -7136.1951   -6449.5891   -601.45116     102002.7      46.7237      46.7237      46.7237 
  226000    136.63927   -7141.0143   -6433.5416    -786.9523     102002.7      46.7237      46.7237      46.7237 
  227000    129.16373   -7141.1694   -6472.4026   -775.57097     102002.7      46.7237      46.7237      46.7237 
  228000    132.06561   -7140.7494   -6456.9577   -680.19513     102002.7      46.7237      46.7237      46.7237 
  229000    135.82203   -7143.3878   -6440.1466   -728.96454     102002.7      46.7237      46.7237      46.7237 
  230000    127.05225   -7145.5263   -6487.6921   -718.44264     102002.7      46.7237      46.7237      46.7237 
  231000    131.37566   -7152.3848   -6472.1654    -656.8882     102002.7      46.7237      46.7237      46.7237 
  232000    129.53127   -7137.8956   -6467.2258   -671.77948     102002.7      46.7237      46.7237      46.7237 
  233000    127.28418   -7142.4389   -6483.4038   -488.91034     102002.7      46.7237      46.7237      46.7237 
  234000    128.44747   -7153.2521   -6488.1938   -641.50276     102002.7      46.7237      46.7237      46.7237 
  235000     131.6421   -7140.6468   -6459.0479   -625.36527     102002.7      46.7237      46.7237      46.7237 
  236000    129.18509   -7130.3397   -6461.4624   -717.74418     102002.7      46.7237      46.7237      46.7237 
  237000    130.47704   -7142.4259   -6466.8592   -859.33212     102002.7      46.7237      46.7237      46.7237 
  238000     131.4418   -7133.9134   -6453.3515   -937.53109     102002.7      46.7237      46.7237      46.7237 
  239000    126.26095   -7166.2301   -6512.4929   -768.75582     102002.7      46.7237      46.7237      46.7237 
  240000    134.01266   -7137.6471   -6443.7742   -866.89631     102002.7      46.7237      46.7237      46.7237 
  241000    129.56474   -7145.2858   -6474.4427   -704.20716     102002.7      46.7237      46.7237      46.7237 
  242000    130.60838   -7126.1717    -6449.925   -777.98779     102002.7      46.7237      46.7237      46.7237 
  243000    135.69225   -7149.3032   -6446.7339    -674.7949     102002.7      46.7237      46.7237      46.7237 
  244000    130.77124   -7156.0811   -6478.9911   -539.22762     102002.7      46.7237      46.7237      46.7237 
  245000    134.28612   -7118.6053   -6423.3165   -888.64148     102002.7      46.7237      46.7237      46.7237 
  246000    129.56072   -7143.9037   -6473.0814   -736.49361     102002.7      46.7237      46.7237      46.7237 
  247000    129.92233   -7133.8138   -6461.1192   -661.29656     102002.7      46.7237      46.7237      46.7237 
  248000    135.43362   -7127.6084   -6426.3782   -492.24855     102002.7      46.7237      46.7237      46.7237 
  249000    126.34733   -7128.8671   -6474.6827   -873.38624     102002.7      46.7237      46.7237      46.7237 
  250000    124.60397   -7130.4765   -6485.3186   -736.20504     102002.7      46.7237      46.7237      46.7237 
  251000     130.3034   -7143.0409   -6468.3733   -811.53327     102002.7      46.7237      46.7237      46.7237 
  252000    126.78811   -7169.3668   -6512.9002   -702.71085     102002.7      46.7237      46.7237      46.7237 
  253000     128.8827   -7126.4431   -6459.1314   -837.75453     102002.7      46.7237      46.7237      46.7237 
  254000    127.62161    -7163.191   -6502.4088   -833.38029     102002.7      46.7237      46.7237      46.7237 
  255000    130.64242   -7135.1822   -6458.7592   -561.56357     102002.7      46.7237      46.7237      46.7237 
  256000    126.62304   -7171.7169    -6516.105    -767.8801     102002.7      46.7237      46.7237      46.7237 
  257000    129.70741   -7132.3787   -6460.7969   -626.10651     102002.7      46.7237      46.7237      46.7237 
  258000    128.29842   -7137.8687   -6473.5822   -795.32012     102002.7      46.7237      46.7237      46.7237 
  259000    128.94522   -7120.5231   -6452.8877   -537.92847     102002.7      46.7237      46.7237      46.7237 
  260000    127.72833   -7166.0787   -6504.7439   -444.06566     102002.7      46.7237      46.7237      46.7237 
  261000    128.18524   -7144.4062   -6480.7057   -726.70174     102002.7      46.7237      46.7237      46.7237 
  262000    131.47481   -7124.0396   -6443.3068   -250.03924     102002.7      46.7237      46.7237      46.7237 
  263000      126.833   -7148.3781    -6491.679   -732.36836     102002.7      46.7237      46.7237      46.7237 
  264000    131.96591   -7149.6017   -6466.3262   -398.25617     102002.7      46.7237      46.7237      46.7237 
  265000    128.81181   -7115.7006    -6448.756   -365.29676     102002.7      46.7237      46.7237      46.7237 
  266000    130.78913   -7147.4325   -6470.2499    -736.7037     102002.7      46.7237      46.7237      46.7237 
  267000    132.37265   -7147.0404   -6461.6589   -519.82708     102002.7      46.7237      46.7237      46.7237 
  268000    133.98385   -7119.6911   -6425.9674   -729.94353     102002.7      46.7237      46.7237      46.7237 
  269000    128.96764   -7155.8294   -6488.0779   -607.47004     102002.7      46.7237      46.7237      46.7237 
  270000    131.29061    -7137.344    -6457.565   -567.81496     102002.7      46.7237      46.7237      46.7237 
  271000    126.49334   -7139.0237   -6484.0833   -942.28825     102002.7      46.7237      46.7237      46.7237 
  272000    127.46564    -7151.347   -6491.3723   -580.13655     102002.7      46.7237      46.7237      46.7237 
  273000     132.7601   -7142.5486    -6455.161   -590.53936     102002.7      46.7237      46.7237      46.7237 
  274000    133.49792   -7125.5129   -6434.3051   -1022.3997     102002.7      46.7237      46.7237      46.7237 
  275000    126.95468   -7133.3363   -6476.0072   -634.07153     102002.7      46.7237      46.7237      46.7237 
  276000    134.59023   -7130.5794    -6433.716   -665.98335     102002.7      46.7237      46.7237      46.7237 
  277000    133.75173   -7151.9157   -6459.3938    -776.9416     102002.7      46.7237      46.7237      46.7237 
  278000    128.79127   -7162.9985   -6496.1602   -607.37528     102002.7      46.7237      46.7237      46.7237 
  279000    128.01139   -7134.5144    -6471.714   -593.04282     102002.7      46.7237      46.7237      46.7237 
  280000    134.55875   -7144.7461   -6448.0457   -915.36131     102002.7      46.7237      46.7237      46.7237 
  281000    126.89723   -7143.1707    -6486.139   -823.76915     102002.7      46.7237      46.7237      46.7237 
  282000    129.93137   -7135.3141   -6462.5727   -766.15288     102002.7      46.7237      46.7237      46.7237 
  283000    128.09679   -7132.0078   -6468.7653    -909.1402     102002.7      46.7237      46.7237      46.7237 
  284000    133.04378   -7124.1195   -6435.2631   -713.74146     102002.7      46.7237      46.7237      46.7237 
  285000    132.07588   -7137.7964   -6453.9514   -1002.1053     102002.7      46.7237      46.7237      46.7237 
  286000    134.82113   -7135.4152   -6437.3563   -885.70153     102002.7      46.7237      46.7237      46.7237 
  287000    129.42674   -7148.2114   -6478.0828   -632.90387     102002.7      46.7237      46.7237      46.7237 
  288000    128.52531   -7158.3789   -6492.9177   -500.61727     102002.7      46.7237      46.7237      46.7237 
  289000    132.57814   -7142.4697   -6456.0242   -538.37563     102002.7      46.7237      46.7237      46.7237 
  290000    130.54129   -7138.0816   -6462.1823   -517.71358     102002.7      46.7237      46.7237      46.7237 
  291000    128.75229   -7150.1815    -6483.545   -765.85058     102002.7      46.7237      46.7237      46.7237 
  292000    133.72185   -7123.9462    -6431.579   -773.13935     102002.7      46.7237      46.7237      46.7237 
  293000     129.5065   -7130.7264   -6460.1849     -1196.88     102002.7      46.7237      46.7237      46.7237 
  294000    128.32244   -7133.8729    -6469.462   -791.70941     102002.7      46.7237      46.7237      46.7237 
  295000    127.98347   -7162.5869   -6499.9311   -737.41641     102002.7      46.7237      46.7237      46.7237 
  296000     133.6371   -7144.5191   -6452.5907   -658.01853     102002.7      46.7237      46.7237      46.7237 
  297000    131.61341   -7135.2947   -6453.8443   -807.13291     102002.7      46.7237      46.7237      46.7237 
  298000    128.40691   -7147.7345   -6482.8863   -794.48778     102002.7      46.7237      46.7237      46.7237 
  299000    129.76633   -7166.1136   -6494.2267   -789.81104     102002.7      46.7237      46.7237      46.7237 
  300000    128.93135   -7152.0235     -6484.46    -814.9914     102002.7      46.7237      46.7237      46.7237 
  301000    132.35428   -7148.7289   -6463.4425   -1024.0232     102002.7      46.7237      46.7237      46.7237 
  302000    126.78663   -7143.2453   -6486.7863   -788.89728     102002.7      46.7237      46.7237      46.7237 
  303000    134.21738   -7157.7475   -6462.8146   -587.10078     102002.7      46.7237      46.7237      46.7237 
  304000    134.88613   -7136.4078   -6438.0123    -895.4793     102002.7      46.7237      46.7237      46.7237 
  305000    130.98417   -7152.9735   -6474.7811   -821.71298     102002.7      46.7237      46.7237      46.7237 
  306000    132.34814   -7099.9543   -6414.6997   -715.69441     102002.7      46.7237      46.7237      46.7237 
  307000    126.19681   -7146.8882   -6493.4831   -562.54268     102002.7      46.7237      46.7237      46.7237 
  308000    128.69648   -7103.1677   -6436.8201    -816.3095     102002.7      46.7237      46.7237      46.7237 
  309000    129.58848   -7144.8595   -6473.8935   -735.91294     102002.7      46.7237      46.7237      46.7237 
  310000    129.14723   -7153.7913   -6485.1099   -842.53864     102002.7      46.7237      46.7237      46.7237 
  311000    130.68305   -7157.9183    -6481.285    -730.8138     102002.7      46.7237      46.7237      46.7237 
  312000    128.40708   -7151.0361    -6486.187   -605.00504     102002.7      46.7237      46.7237      46.7237 
  313000    131.27548   -7159.8078    -6480.107   -801.23705     102002.7      46.7237      46.7237      46.7237 
  314000    131.66115   -7129.4878   -6447.7902   -618.36856     102002.7      46.7237      46.7237      46.7237 
  315000    128.73717   -7153.2802    -6486.722   -549.12054     102002.7      46.7237      46.7237      46.7237 
  316000    128.46014     -7119.77   -6454.6462    -1065.642     102002.7      46.7237      46.7237      46.7237 
  317000    127.52507   -7122.5405   -6462.2581   -896.04119     102002.7      46.7237      46.7237      46.7237 
  318000    127.56495   -7138.8628    -6478.374   -762.05804     102002.7      46.7237      46.7237      46.7237 
  319000    133.76948    -7136.824   -6444.2101   -987.78392     102002.7      46.7237      46.7237      46.7237 
  320000    129.72275   -7135.2184   -6463.5572   -646.90061     102002.7      46.7237      46.7237      46.7237 
  321000    127.18176   -7162.3717   -6503.8669   -932.09216     102002.7      46.7237      46.7237      46.7237 
  322000    129.88013   -7135.7637   -6463.2877   -755.46906     102002.7      46.7237      46.7237      46.7237 
  323000    126.69689   -7142.9067   -6486.9124   -537.90451     102002.7      46.7237      46.7237      46.7237 
  324000    130.29669   -7126.5996   -6451.9667    -581.6853     102002.7      46.7237      46.7237      46.7237 
  325000     127.5805   -7141.4228   -6480.8535   -555.65442     102002.7      46.7237      46.7237      46.7237 
  326000    131.57113   -7169.1894   -6487.9579   -754.89116     102002.7      46.7237      46.7237      46.7237 
  327000    128.15139   -7149.1251   -6485.5998   -856.77519     102002.7      46.7237      46.7237      46.7237 
  328000    127.18329   -7136.3992   -6477.8864   -694.72117     102002.7      46.7237      46.7237      46.7237 
  329000    125.46264   -7141.8162   -6492.2124   -565.20034     102002.7      46.7237      46.7237      46.7237 
  330000    132.79307    -7143.787   -6456.2287   -676.08192     102002.7      46.7237      46.7237      46.7237 
  331000    130.79515   -7150.7645   -6473.5507   -581.09791     102002.7      46.7237      46.7237      46.7237 
  332000    128.33788   -7165.8226   -6501.3318   -787.03367     102002.7      46.7237      46.7237      46.7237 
  333000    130.34555   -7135.2402   -6460.3543   -839.06755     102002.7      46.7237      46.7237      46.7237 
  334000    131.18187   -7156.3745   -6477.1585    -802.2493     102002.7      46.7237      46.7237      46.7237 
  335000    132.17903   -7149.7903   -6465.4113    -619.3762     102002.7      46.7237      46.7237      46.7237 
  336000    130.02319   -7168.4531   -6495.2363   -744.94744     102002.7      46.7237      46.7237      46.7237 
  337000    133.13163   -7134.0621   -6444.7509   -366.90965     102002.7      46.7237      46.7237      46.7237 
  338000     125.2674   -7140.5214   -6491.9285   -626.09401     102002.7      46.7237      46.7237      46.7237 
  339000    132.57606   -7137.1602   -6450.7254   -552.10438     102002.7      46.7237      46.7237      46.7237 
  340000    129.60398   -7177.4994   -6506.4531   -334.77558     102002.7      46.7237      46.7237      46.7237 
  341000    130.15471   -7136.0008    -6462.103   -840.42586     102002.7      46.7237      46.7237      46.7237 
  342000    126.63996   -7157.3728   -6501.6732   -537.44093     102002.7      46.7237      46.7237      46.7237 
  343000    134.93293   -7150.4591   -6451.8213   -588.67383     102002.7      46.7237      46.7237      46.7237 
  344000    130.70005   -7139.1891   -6462.4677   -849.77934     102002.7      46.7237      46.7237      46.7237 
  345000    132.28093    -7176.644   -6491.7375   -583.69088     102002.7      46.7237      46.7237      46.7237 
  346000    130.68684    -7145.493     -6468.84   -951.45285     102002.7      46.7237      46.7237      46.7237 
  347000    129.09402   -7126.1996   -6457.7937   -846.00218     102002.7      46.7237      46.7237      46.7237 
  348000    132.24313   -7143.3889    -6458.678   -880.16434     102002.7      46.7237      46.7237      46.7237 
  349000    127.29426   -7152.3656   -6493.2782   -825.51024     102002.7      46.7237      46.7237      46.7237 
  350000    128.33589   -7158.5951   -6494.1146   -1076.4509     102002.7      46.7237      46.7237      46.7237 
  351000     129.2814   -7129.5873   -6460.2112   -757.85439     102002.7      46.7237      46.7237      46.7237 
  352000    130.60415   -7148.8081   -6472.5833   -1002.7817     102002.7      46.7237      46.7237      46.7237 
  353000    125.44965    -7157.045   -6507.5085   -845.92405     102002.7      46.7237      46.7237      46.7237 
  354000    131.76433   -7127.4951   -6445.2633   -848.03156     102002.7      46.7237      46.7237      46.7237 
  355000    130.60842   -7149.8425   -6473.5956   -658.90178     102002.7      46.7237      46.7237      46.7237 
  356000    131.09809   -7150.9136   -6472.1313   -771.87208     102002.7      46.7237      46.7237      46.7237 
  357000    130.60404   -7126.9178   -6450.6936   -846.63075     102002.7      46.7237      46.7237      46.7237 
  358000    131.20417   -7156.4728   -6477.1413   -407.51225     102002.7      46.7237      46.7237      46.7237 
  359000    126.41762   -7148.5296   -6493.9813   -795.54512     102002.7      46.7237      46.7237      46.7237 
  360000    129.40983   -7130.9886   -6460.9475   -555.11922     102002.7      46.7237      46.7237      46.7237 
  361000    131.45225   -7134.7734   -6454.1574   -651.36107     102002.7      46.7237      46.7237      46.7237 
  362000     125.3264    -7142.971   -6494.0726   -493.60663     102002.7      46.7237      46.7237      46.7237 
  363000    131.15426   -7128.8846   -6449.8115   -812.60947     102002.7      46.7237      46.7237      46.7237 
  364000    130.67562   -7147.3469    -6470.752   -714.01249     102002.7      46.7237      46.7237      46.7237 
  365000    130.21144    -7153.614   -6479.4225   -542.01756     102002.7      46.7237      46.7237      46.7237 
  366000    133.03709      -7126.4   -6437.5783   -955.53777     102002.7      46.7237      46.7237      46.7237 
  367000    132.06908   -7126.9921   -6443.1824   -636.24293     102002.7      46.7237      46.7237      46.7237 
  368000    130.33266   -7124.5812   -6449.7621   -1062.3755     102002.7      46.7237      46.7237      46.7237 
  369000    127.07871   -7145.0678   -6487.0966   -723.73709     102002.7      46.7237      46.7237      46.7237 
  370000    130.67085   -7151.7872    -6475.217   -649.55084     102002.7      46.7237      46.7237      46.7237 
  371000    130.60317   -7125.9171   -6449.6974   -703.38435     102002.7      46.7237      46.7237      46.7237 
  372000    130.47891   -7152.9557   -6477.3793   -628.81402     102002.7      46.7237      46.7237      46.7237 
  373000    128.25572   -7146.0552   -6481.9898   -959.37392     102002.7      46.7237      46.7237      46.7237 
  374000    126.78182   -7127.7433   -6471.3092   -687.93479     102002.7      46.7237      46.7237      46.7237 
  375000    126.94079    -7130.903   -6473.6458   -661.90626     102002.7      46.7237      46.7237      46.7237 
  376000    128.54649   -7118.1667   -6452.5958   -733.50013     102002.7      46.7237      46.7237      46.7237 
  377000    131.34519   -7156.1709   -6476.1092   -829.00792     102002.7      46.7237      46.7237      46.7237 
  378000    130.62031    -7136.659   -6460.3505   -574.93132     102002.7      46.7237      46.7237      46.7237 
  379000     127.3199    -7141.296   -6482.0759   -645.37603     102002.7      46.7237      46.7237      46.7237 
  380000    129.06498    -7138.846   -6470.5905   -907.49646     102002.7      46.7237      46.7237      46.7237 
  381000    130.59173   -7157.7983   -6481.6378   -835.11479     102002.7      46.7237      46.7237      46.7237 
  382000    132.12319   -7141.4242   -6457.3343   -865.24543     102002.7      46.7237      46.7237      46.7237 
  383000    123.74692   -7151.9115   -6511.1912   -474.17585     102002.7      46.7237      46.7237      46.7237 
  384000     128.7788   -7132.9854   -6466.2117   -898.56449     102002.7      46.7237      46.7237      46.7237 
  385000    127.15287   -7162.1603   -6503.8051   -871.42748     102002.7      46.7237      46.7237      46.7237 
  386000    131.15055    -7144.432   -6465.3781   -788.57771     102002.7      46.7237      46.7237      46.7237 
  387000    126.55973   -7158.5113   -6503.2272   -757.15353     102002.7      46.7237      46.7237      46.7237 
  388000    135.09602   -7144.8349   -6445.3527    -559.0068     102002.7      46.7237      46.7237      46.7237 
  389000    128.43974   -7141.4586   -6476.4404    -510.6988     102002.7      46.7237      46.7237      46.7237 
  390000    130.41309   -7119.1728   -6443.9372   -759.06955     102002.7      46.7237      46.7237      46.7237 
  391000    130.74701   -7155.0799   -6478.1154   -666.95029     102002.7      46.7237      46.7237      46.7237 
  392000    130.97413   -7120.2928   -6442.1524   -914.43816     102002.7      46.7237      46.7237      46.7237 
  393000    130.56168   -7165.1745   -6489.1696   -424.60089     102002.7      46.7237      46.7237      46.7237 
  394000    126.30593    -7125.661   -6471.6909   -522.77298     102002.7      46.7237      46.7237      46.7237 
  395000    129.46596   -7134.3787   -6464.0471   -542.13192     102002.7      46.7237      46.7237      46.7237 
  396000    128.25513   -7133.9076   -6469.8452   -612.13847     102002.7      46.7237      46.7237      46.7237 
  397000     133.4075   -7132.8279   -6442.0883   -729.11486     102002.7      46.7237      46.7237      46.7237 
  398000    129.07314   -7144.8105   -6476.5128   -939.17213     102002.7      46.7237      46.7237      46.7237 
  399000    131.36755   -7161.2022   -6481.0248   -771.31005     102002.7      46.7237      46.7237      46.7237 
  400000    128.57696   -7127.1595   -6461.4308   -883.67078     102002.7      46.7237      46.7237      46.7237 
  401000    130.22258   -7139.8483   -6465.5992   -790.21321     102002.7      46.7237      46.7237      46.7237 
  402000    128.79528   -7162.7712   -6495.9121   -840.53529     102002.7      46.7237      46.7237      46.7237 
  403000    130.66572   -7143.7354   -6467.1918   -831.94502     102002.7      46.7237      46.7237      46.7237 
  404000    130.36221   -7119.4454   -6444.4732   -683.11885     102002.7      46.7237      46.7237      46.7237 
  405000    128.62309   -7137.7242   -6471.7567    -910.9846     102002.7      46.7237      46.7237      46.7237 
  406000    128.97246    -7146.084   -6478.3075   -868.40521     102002.7      46.7237      46.7237      46.7237 
  407000    127.52727   -7146.6277   -6486.3339   -677.03763     102002.7      46.7237      46.7237      46.7237 
  408000    127.83859   -7126.0892   -6464.1836   -684.35865     102002.7      46.7237      46.7237      46.7237 
  409000    132.64528   -7154.3564   -6467.5633   -782.37317     102002.7      46.7237      46.7237      46.7237 
  410000    129.26777   -7120.7943   -6451.4889   -685.05579     102002.7      46.7237      46.7237      46.7237 
  411000    129.16501   -7137.6023   -6468.8289   -1004.7665     102002.7      46.7237      46.7237      46.7237 
  412000      131.439   -7167.7558   -6487.2084   -688.23815     102002.7      46.7237      46.7237      46.7237 
  413000    127.95451   -7146.2212   -6483.7154   -1115.1021     102002.7      46.7237      46.7237      46.7237 
  414000     130.0152   -7179.4627   -6506.2872     -721.217     102002.7      46.7237      46.7237      46.7237 
  415000    130.81678   -7140.8791   -6463.5534   -896.42851     102002.7      46.7237      46.7237      46.7237 
  416000    130.40978   -7154.1297   -6478.9113   -691.27488     102002.7      46.7237      46.7237      46.7237 
  417000    123.00313    -7159.076   -6522.2067   -994.69448     102002.7      46.7237      46.7237      46.7237 
  418000     129.3302   -7138.8082   -6469.1794   -561.81724     102002.7      46.7237      46.7237      46.7237 
  419000    132.17928   -7159.6636   -6475.2833   -619.63882     102002.7      46.7237      46.7237      46.7237 
  420000    131.11116   -7166.3106   -6487.4607   -642.55386     102002.7      46.7237      46.7237      46.7237 
  421000    131.19499   -7141.1065   -6461.8226   -739.23536     102002.7      46.7237      46.7237      46.7237 
  422000    129.09427    -7149.505   -6481.0978   -1115.1349     102002.7      46.7237      46.7237      46.7237 
  423000    131.47759   -7127.8031   -6447.0559   -785.58613     102002.7      46.7237      46.7237      46.7237 
  424000      129.615   -7134.3013    -6463.198   -753.02085     102002.7      46.7237      46.7237      46.7237 
  425000    129.73506   -7148.2846   -6476.5597   -937.03616     102002.7      46.7237      46.7237      46.7237 
  426000    127.71221   -7166.2722   -6505.0209   -703.95658     102002.7      46.7237      46.7237      46.7237 
  427000    126.89618   -7143.6911   -6486.6649   -815.15975     102002.7      46.7237      46.7237      46.7237 
  428000    131.89595   -7141.4792   -6458.5659   -949.67649     102002.7      46.7237      46.7237      46.7237 
  429000    132.07243   -7136.8294   -6453.0023   -813.30985     102002.7      46.7237      46.7237      46.7237 
  430000     127.6418   -7151.8073   -6490.9206   -900.54913     102002.7      46.7237      46.7237      46.7237 
  431000     129.9347   -7139.8717   -6467.1131   -867.33691     102002.7      46.7237      46.7237      46.7237 
  432000    130.53796    -7158.209   -6482.3269   -786.96597     102002.7      46.7237      46.7237      46.7237 
  433000    127.56989   -7116.0479   -6455.5335   -886.44438     102002.7      46.7237      46.7237      46.7237 
  434000    127.86005   -7144.4244   -6482.4076   -869.66232     102002.7      46.7237      46.7237      46.7237 
  435000    131.92375   -7137.7092    -6454.652   -693.18804     102002.7      46.7237      46.7237      46.7237 
  436000    131.01011   -7120.9801   -6442.6534   -817.06045     102002.7      46.7237      46.7237      46.7237 
  437000    129.83414   -7137.7682   -6465.5303   -633.01319     102002.7      46.7237      46.7237      46.7237 
  438000    128.09064   -7133.5282   -6470.3175    -721.8274     102002.7      46.7237      46.7237      46.7237 
  439000    127.24858   -7120.6703   -6461.8195   -765.90367     102002.7      46.7237      46.7237      46.7237 
  440000    132.35484   -7154.9173    -6469.628    -628.8634     102002.7      46.7237      46.7237      46.7237 
  441000    131.10893    -7129.137   -6450.2986   -706.42328     102002.7      46.7237      46.7237      46.7237 
  442000    131.95526   -7131.1859   -6447.9654   -880.02196     102002.7      46.7237      46.7237      46.7237 
  443000     127.2404   -7146.0093   -6487.2009   -805.50446     102002.7      46.7237      46.7237      46.7237 
  444000    131.48687   -7141.4742   -6460.6789   -990.62588     102002.7      46.7237      46.7237      46.7237 
  445000     129.2648   -7147.6409   -6478.3508   -751.20108     102002.7      46.7237      46.7237      46.7237 
  446000    129.94685    -7125.528   -6452.7065     -660.526     102002.7      46.7237      46.7237      46.7237 
  447000    130.85114   -7151.6583   -6474.1546   -516.45781     102002.7      46.7237      46.7237      46.7237 
  448000    131.72993   -7166.9384   -6484.8846   -440.37046     102002.7      46.7237      46.7237      46.7237 
  449000    129.37214   -7143.1003   -6473.2544   -570.24228     102002.7      46.7237      46.7237      46.7237 
  450000    128.77089   -7146.6845   -6479.9517   -511.18996     102002.7      46.7237      46.7237      46.7237 
  451000    123.46882   -7133.7085   -6494.4281   -760.68937     102002.7      46.7237      46.7237      46.7237 
  452000    129.42051   -7130.5782   -6460.4819   -916.04209     102002.7      46.7237      46.7237      46.7237 
  453000    126.46244    -7151.111   -6496.3306   -571.89586     102002.7      46.7237      46.7237      46.7237 
  454000    132.13388   -7132.7868   -6448.6416   -784.00966     102002.7      46.7237      46.7237      46.7237 
  455000    130.98561   -7146.2456   -6468.0457    -610.5827     102002.7      46.7237      46.7237      46.7237 
  456000    127.41591   -7121.9654   -6462.2482   -715.17686     102002.7      46.7237      46.7237      46.7237 
  457000     132.2921    -7131.133   -6446.1685   -641.29891     102002.7      46.7237      46.7237      46.7237 
  458000    124.72643   -7146.2881   -6500.4962   -719.43352     102002.7      46.7237      46.7237      46.7237 
  459000    126.03366   -7131.3822   -6478.8219    -1027.952     102002.7      46.7237      46.7237      46.7237 
  460000    128.33314   -7132.7647   -6468.2984   -872.22631     102002.7      46.7237      46.7237      46.7237 
  461000    125.78704   -7143.1196   -6491.8362   -659.82118     102002.7      46.7237      46.7237      46.7237 
  462000    131.24937   -7141.2367   -6461.6712   -873.20607     102002.7      46.7237      46.7237      46.7237 
  463000    123.52327   -7148.6573    -6509.095   -508.43689     102002.7      46.7237      46.7237      46.7237 
  464000    129.89925   -7159.1591    -6486.584   -1081.9993     102002.7      46.7237      46.7237      46.7237 
  465000    129.98556   -7128.2536   -6455.2317   -610.79923     102002.7      46.7237      46.7237      46.7237 
  466000    130.52131   -7148.3604   -6472.5645    -858.8547     102002.7      46.7237      46.7237      46.7237 
  467000    125.87009   -7132.0494   -6480.3359   -695.67871     102002.7      46.7237      46.7237      46.7237 
  468000    133.89997   -7134.5155    -6441.226   -748.87929     102002.7      46.7237      46.7237      46.7237 
  469000    129.38458   -7136.2842    -6466.374   -733.53368     102002.7      46.7237      46.7237      46.7237 
  470000    130.09848   -7147.4815   -6473.8749   -935.04556     102002.7      46.7237      46.7237      46.7237 
  471000    128.36439    -7111.328   -6446.6999   -521.60655     102002.7      46.7237      46.7237      46.7237 
  472000    129.57648   -7138.8603   -6467.9565   -725.98378     102002.7      46.7237      46.7237      46.7237 
  473000    129.09327   -7162.9216   -6494.5196   -690.63291     102002.7      46.7237      46.7237      46.7237 
  474000    129.64542   -7117.0072   -6445.7464   -478.15099     102002.7      46.7237      46.7237      46.7237 
  475000    127.19993   -7158.6496   -6500.0507   -824.72182     102002.7      46.7237      46.7237      46.7237 
  476000    128.93415   -7145.6486   -6478.0705   -782.41213     102002.7      46.7237      46.7237      46.7237 
  477000     126.8984   -7143.7394   -6486.7018   -744.61975     102002.7      46.7237      46.7237      46.7237 
  478000    133.69135   -7153.9217   -6461.7124   -464.27134     102002.7      46.7237      46.7237      46.7237 
  479000    127.84907   -7158.7769    -6496.817   -637.41158     102002.7      46.7237      46.7237      46.7237 
  480000    129.74299   -7122.2334   -6450.4674   -451.43396     102002.7      46.7237      46.7237      46.7237 
  481000    125.83255   -7148.3677   -6496.8486   -649.40403     102002.7      46.7237      46.7237      46.7237 
  482000    131.51428   -7145.0421    -6464.105   -1128.0025     102002.7      46.7237      46.7237      46.7237 
  483000    126.19276   -7152.2433   -6498.8592   -899.69233     102002.7      46.7237      46.7237      46.7237 
  484000    132.44871   -7159.7025   -6473.9271   -1014.8502     102002.7      46.7237      46.7237      46.7237 
  485000      127.652    -7107.637   -6446.6974   -590.57462     102002.7      46.7237      46.7237      46.7237 
  486000    129.15147   -7146.1687   -6477.4654   -834.85177     102002.7      46.7237      46.7237      46.7237 
  487000     131.4493   -7146.5068   -6465.9061   -812.51252     102002.7      46.7237      46.7237      46.7237 
  488000    130.12351   -7129.7395   -6456.0033   -787.32495     102002.7      46.7237      46.7237      46.7237 
  489000    127.00891   -7151.7803   -6494.1705   -738.31942     102002.7      46.7237      46.7237      46.7237 
  490000    128.79274    -7155.314   -6488.4681   -1111.1454     102002.7      46.7237      46.7237      46.7237 
  491000    127.87581   -7133.6909   -6471.5925     -813.315     102002.7      46.7237      46.7237      46.7237 
  492000    129.81599   -7141.4365   -6469.2925   -724.78539     102002.7      46.7237      46.7237      46.7237 
  493000    130.19866   -7144.8983    -6470.773   -529.68596     102002.7      46.7237      46.7237      46.7237 
  494000    125.18215   -7132.1864   -6484.0349    -945.4469     102002.7      46.7237      46.7237      46.7237 
  495000    126.42636   -7159.5303   -6504.9367   -953.36701     102002.7      46.7237      46.7237      46.7237 
  496000    126.46434   -7121.9457   -6467.1555    -589.0202     102002.7      46.7237      46.7237      46.7237 
  497000    128.37352    -7135.097   -6470.4216   -1032.2464     102002.7      46.7237      46.7237      46.7237 
  498000    130.58916   -7146.5367   -6470.3895    -998.4215     102002.7      46.7237      46.7237      46.7237 
  499000    133.59519   -7141.9438   -6450.2324   -969.32903     102002.7      46.7237      46.7237      46.7237 
  500000    131.65457   -7140.2652   -6458.6017   -606.17825     102002.7      46.7237      46.7237      46.7237 
  500503    125.94039    -7125.863   -6473.7856   -1056.7672     102002.7      46.7237      46.7237      46.7237 
Loop time of 1297.07 on 16 procs for 500000 steps with 1738 atoms

Performance: 33.306 ns/day, 0.721 hours/ns, 385.485 timesteps/s
99.8% CPU use with 16 MPI tasks x no OpenMP threads

MPI task timing breakdown:
Section |  min time  |  avg time  |  max time  |%varavg| %total
---------------------------------------------------------------
Pair    | 505.19     | 685.76     | 889.23     | 486.3 | 52.87
Bond    | 162.66     | 174.11     | 186.94     |  48.8 | 13.42
Neigh   | 4.3258     | 4.3472     | 4.3714     |   0.8 |  0.34
Comm    | 210.13     | 419.52     | 610.17     | 638.8 | 32.34
Output  | 0.020343   | 0.020738   | 0.02399    |   0.6 |  0.00
Modify  | 7.5629     | 8.0358     | 8.3513     |   7.7 |  0.62
Other   |            | 5.267      |            |       |  0.41

Nlocal:    108.625 ave 140 max 75 min
Histogram: 1 1 1 1 3 2 4 1 1 1
Nghost:    2210 ave 2249 max 2179 min
Histogram: 1 1 1 4 5 1 0 2 0 1
Neighs:    11445.6 ave 17440 max 7973 min
Histogram: 5 1 2 3 0 0 2 1 1 1

Total # of neighbors = 183129
Ave neighs/atom = 105.368
Ave special neighs/atom = 6.62831
Neighbor list builds = 3709
Dangerous builds = 0
Neighbor list info ...
  update every 1 steps, delay 10 steps, check yes
  max neighbors/atom: 2000, page size: 100000
  master list distance cutoff = 16
  ghost atom cutoff = 16
  binsize = 8, bins = 6 6 6
  3 neighbor lists, perpetual/occasional/extra = 3 0 0
  (1) pair buck6d/coul/gauss/dsf, perpetual, skip from (3)
      attributes: half, newton on
      pair build: skip
      stencil: none
      bin: none
  (2) pair lj/cut, perpetual, skip from (3)
      attributes: half, newton on
      pair build: skip
      stencil: none
      bin: none
  (3) neighbor class addition, perpetual
      attributes: half, newton on
      pair build: half/bin/newton
      stencil: half/bin/3d/newton
      bin: standard
Setting up Verlet run ...
  Unit style    : real
  Current step  : 500503
  Time step     : 1
WARNING: Inconsistent image flags (../domain.cpp:786)
Per MPI rank memory allocation (min/avg/max) = 23.14 | 23.31 | 23.34 Mbytes
Step Time TotEng KinEng PotEng E_mol E_pair Temp Pxx Pyy Pzz Pxy Pxz Pyz Cella Cellb Cellc CellAlpha CellBeta CellGamma Volume Press 
  500503       500000   -6473.7856     652.0774    -7125.863    4431.6813   -11557.544    125.94039   -793.25692   -776.20446   -1600.8402    444.81751   -65.396317    235.19253      46.7237      46.7237      46.7237           90           90           90     102002.7   -1056.7672 
  501000       500497   -6476.8423    671.87533   -7148.7176     4414.103   -11562.821    129.76411   -984.37654   -172.76926   -873.99307   -254.74679    101.86737     27.72432      46.7237      46.7237      46.7237           90           90           90     102002.7   -677.04629 
  502000       501497   -6465.6442    671.80847   -7137.4527    4417.9548   -11555.407    129.75119   -532.59842   -789.73844   -930.51127    22.932191   -93.897864    197.52889      46.7237      46.7237      46.7237           90           90           90     102002.7   -750.94938 
  503000       502497   -6464.5777    668.43655   -7133.0143    4408.1821   -11541.196    129.09995   -642.09744   -787.49511   -181.36544     16.28132    145.09409   -224.39616      46.7237      46.7237      46.7237           90           90           90     102002.7     -536.986 
  504000       503497   -6449.6539    696.07072   -7145.7246    4409.8615   -11555.586    134.43713   -360.63813   -95.784939   -346.18309   -140.74723    107.02426    3.9994376      46.7237      46.7237      46.7237           90           90           90     102002.7   -267.53539 
  505000       504497   -6485.7622    666.40336   -7152.1656    4388.8384   -11541.004    128.70726   -480.62854   -760.22119   -606.91634    37.260353    206.84074    -149.3184      46.7237      46.7237      46.7237           90           90           90     102002.7   -615.92202 
  506000       505497   -6481.9457    681.23098   -7163.1767    4393.1272   -11556.304    131.57103   -653.64419   -233.94461    -378.2905    8.6677344   -161.99955   -127.36196      46.7237      46.7237      46.7237           90           90           90     102002.7   -421.95977 
  507000       506497   -6479.7636    677.89123   -7157.6549    4407.7863   -11565.441      130.926   -193.68078   -1065.5581   -340.53095   -110.52069    104.59286   -125.71938      46.7237      46.7237      46.7237           90           90           90     102002.7    -533.2566 
  508000       507497   -6463.1485    660.47959   -7123.6281    4451.6848   -11575.313    127.56316   -972.20282   -1184.1479   -1188.2885    47.668113   -25.508161   -140.52621      46.7237      46.7237      46.7237           90           90           90     102002.7   -1114.8797 
  509000       508497   -6497.6979    647.85204   -7145.5499    4414.3683   -11559.918    125.12431   -332.50496   -991.30127   -789.52843   -126.11216   -33.938345   -46.405961      46.7237      46.7237      46.7237           90           90           90     102002.7   -704.44488 
  510000       509497   -6463.8762    688.62647   -7152.5026    4398.8559   -11551.359    132.99937   -551.48896   -973.14488   -709.06817   -99.068271   -33.645679   -77.402016      46.7237      46.7237      46.7237           90           90           90     102002.7   -744.56734 
  511000       510497   -6482.0289    657.06535   -7139.0942    4424.7853    -11563.88    126.90375   -851.20763   -799.39122   -352.82162   -183.53195   -55.249088   -167.50471      46.7237      46.7237      46.7237           90           90           90     102002.7   -667.80682 
  512000       511497   -6462.8718    666.06062   -7128.9324     4417.701   -11546.633    128.64107     -745.421   -634.78218   -751.78696    233.99017    288.05753    205.72476      46.7237      46.7237      46.7237           90           90           90     102002.7   -710.66338 
  513000       512497   -6484.2015    675.68786   -7159.8894    4395.2006    -11555.09    130.50045   -323.37497   -491.29016   -816.37751    244.42235    74.953315    52.633608      46.7237      46.7237      46.7237           90           90           90     102002.7   -543.68088 
  514000       513497   -6460.5886      683.806   -7144.3946    4399.1498   -11543.544    132.06836   -746.65169   -801.91527   -837.25954    318.46631   -225.22472     187.5786      46.7237      46.7237      46.7237           90           90           90     102002.7    -795.2755 
  515000       514497   -6480.1525    679.43929   -7159.5918    4390.1787   -11549.771    131.22499   -841.89164   -1163.6638   -959.38351   -47.867015    387.03917   -132.59525      46.7237      46.7237      46.7237           90           90           90     102002.7   -988.31297 
  516000       515497   -6464.2423    678.71355   -7142.9558    4412.3643    -11555.32    131.08482   -1059.1233   -241.50104   -887.25943   -237.02839    28.881427   -63.309855      46.7237      46.7237      46.7237           90           90           90     102002.7   -729.29461 
  517000       516497   -6461.1719    671.37862   -7132.5505    4435.7608   -11568.311    129.66817   -756.21758   -732.57999   -1217.1438    148.44027    31.347179    26.301147      46.7237      46.7237      46.7237           90           90           90     102002.7   -901.98047 
  518000       517497   -6486.6746     656.5266   -7143.2012    4398.8017   -11542.003    126.79969   -854.16161   -1238.9935   -681.08474    415.63304    52.427351    96.885017      46.7237      46.7237      46.7237           90           90           90     102002.7   -924.74663 
  519000       518497     -6472.67    671.27173   -7143.9417    4423.0905   -11567.032    129.64753   -1116.7405   -566.12897   -1054.2654    4.5098314    74.718252   -7.3776509      46.7237      46.7237      46.7237           90           90           90     102002.7   -912.37828 
  520000       519497   -6467.5983    674.29929   -7141.8976    4403.9753   -11545.873    130.23226   -844.72313   -1023.5498   -435.53521    13.984839    -159.7783   -16.467002      46.7237      46.7237      46.7237           90           90           90     102002.7   -767.93604 
  521000       520497   -6486.8325    655.93489   -7142.7674    4419.4695   -11562.237    126.68541   -692.01678   -589.54592    -532.0893    9.3491372    230.22102   -103.75546      46.7237      46.7237      46.7237           90           90           90     102002.7   -604.55067 
  522000       521497   -6441.6222    678.29537   -7119.9176    4417.7188   -11537.636    131.00405   -1049.5929   -707.20585   -630.54594    6.3845128    286.29048   -115.12481      46.7237      46.7237      46.7237           90           90           90     102002.7   -795.78157 
  523000       522497   -6476.9376    687.67673   -7164.6143    4390.5526   -11555.167    132.81594   -726.93417   -330.95428   -769.73817    -99.61518   -258.89832   -112.07609      46.7237      46.7237      46.7237           90           90           90     102002.7   -609.20888 
  524000       523497   -6495.2654    655.58198   -7150.8473    4402.4459   -11553.293    126.61725   -359.08091   -987.52088   -996.80935    102.87909   -99.247824   -70.548481      46.7237      46.7237      46.7237           90           90           90     102002.7   -781.13705 
  525000       524497    -6462.552    685.10399    -7147.656    4417.1787   -11564.835    132.31905   -979.51858    -1141.969   -1072.0494    17.416059    90.911464   -160.68646      46.7237      46.7237      46.7237           90           90           90     102002.7   -1064.5123 
  526000       525497    -6460.379    700.57214   -7160.9511    4393.4938   -11554.445    135.30652   -627.89407   -1041.3129   -780.66017   -352.79064   -216.13119   -179.33113      46.7237      46.7237      46.7237           90           90           90     102002.7   -816.62237 
  527000       526497    -6437.492    685.86782   -7123.3598    4452.5671   -11575.927    132.46657   -477.97288   -535.63426   -830.21182   -114.50844   -206.75194   -270.80578      46.7237      46.7237      46.7237           90           90           90     102002.7   -614.60632 
  528000       527497   -6479.4813     669.8922   -7149.3735    4398.9945   -11548.368    129.38109   -676.35961   -1119.9564   -804.29919   -155.51522    156.23879    150.48072      46.7237      46.7237      46.7237           90           90           90     102002.7   -866.87172 
  529000       528497   -6495.8373    667.86794   -7163.7052       4398.4   -11562.105    128.99013   -775.60832   -733.86744   -875.57153   -130.12435    221.99658    198.42861      46.7237      46.7237      46.7237           90           90           90     102002.7   -795.01576 
  530000       529497   -6462.9876    679.37016   -7142.3577    4388.9774   -11531.335    131.21164   -685.02213   -693.61614   -591.70199   -36.094775    -132.9976    -205.0441      46.7237      46.7237      46.7237           90           90           90     102002.7   -656.78009 
  531000       530497   -6468.2634     680.2565   -7148.5199    4418.6254   -11567.145    131.38282   -457.80762   -531.70009   -1047.0443   -12.185122    152.46812    93.925575      46.7237      46.7237      46.7237           90           90           90     102002.7   -678.85066 
  532000       531497   -6470.4227    661.92877   -7132.3515    4424.0475   -11556.399    127.84305   -981.28909   -1236.1117   -393.46609    275.03391    232.65144    428.88123      46.7237      46.7237      46.7237           90           90           90     102002.7   -870.28896 
  533000       532497   -6451.2493    676.45764    -7127.707    4436.4262   -11564.133    130.64912   -630.02083   -499.19532   -196.82571   -176.87767   -301.65209   -147.71487      46.7237      46.7237      46.7237           90           90           90     102002.7   -442.01395 
  534000       533497   -6465.1897      677.343   -7142.5327    4421.7015   -11564.234    130.82011   -208.90291   -612.70556   -587.33908    198.99256   -138.58309    52.925719      46.7237      46.7237      46.7237           90           90           90     102002.7   -469.64918 
  535000       534497   -6476.5643    660.79595   -7137.3602    4405.9942   -11543.354    127.62426   -516.89071    -430.2316   -469.71652    54.947118   -50.670469   -27.607659      46.7237      46.7237      46.7237           90           90           90     102002.7   -472.27961 
  536000       535497    -6487.835    661.23772   -7149.0727    4406.3846   -11555.457    127.70959   -627.55532   -678.55117   -591.73117   -29.346762   -313.30675    243.78195      46.7237      46.7237      46.7237           90           90           90     102002.7   -632.61255 
  537000       536497    -6466.864    665.91626   -7132.7803    4411.0279   -11543.808    128.61319   -686.40584   -402.63873   -476.21768   -225.48522   -237.60561   -91.408793      46.7237      46.7237      46.7237           90           90           90     102002.7   -521.75408 
  538000       537497   -6435.3699    697.04457   -7132.4145    4424.4557    -11556.87    134.62522   -726.75702   -383.06864   -478.39748   -4.8115545    119.86858   -67.182692      46.7237      46.7237      46.7237           90           90           90     102002.7   -529.40771 
  539000       538497   -6483.2568    671.94158   -7155.1983    4401.3374   -11556.536     129.7769   -498.61647   -809.90744   -526.87668   -128.47207    62.727012   -11.108679      46.7237      46.7237      46.7237           90           90           90     102002.7    -611.8002 
  540000       539497   -6470.3155    670.78687   -7141.1024     4408.508    -11549.61    129.55388   -827.28994   -75.708451   -1361.7075    90.028284     3.058362   -161.10921      46.7237      46.7237      46.7237           90           90           90     102002.7   -754.90195 
  541000       540497   -6432.6768     688.9714   -7121.6482    4438.0783   -11559.727    133.06599   -813.24548   -270.90332   -721.86996   -96.579617     93.46671    41.224435      46.7237      46.7237      46.7237           90           90           90     102002.7   -602.00625 
  542000       541497   -6485.6758    670.73185   -7156.4077    4391.3158   -11547.723    129.54326   -642.05573   -862.25511   -585.66279   -161.47366    13.028574   -270.03352      46.7237      46.7237      46.7237           90           90           90     102002.7   -696.65788 
  543000       542497   -6445.4591    677.92277   -7123.3819    4423.2261   -11546.608    130.93209   -613.10546   -302.33398   -1071.3883    92.946557    91.631038   -59.847106      46.7237      46.7237      46.7237           90           90           90     102002.7   -662.27592 
  544000       543497   -6477.3608    662.53309   -7139.8939    4415.8729   -11555.767    127.95977   -766.86029   -1070.1998   -662.46742    25.115422    237.23511   -68.802818      46.7237      46.7237      46.7237           90           90           90     102002.7   -833.17582 
  545000       544497   -6471.2109    662.72875   -7133.9397    4421.9392   -11555.879    127.99756   -576.18808   -304.41396   -377.68209    63.376723   -384.24383   -86.041073      46.7237      46.7237      46.7237           90           90           90     102002.7   -419.42804 
  546000       545497   -6479.8498    666.87263   -7146.7224    4424.9217   -11571.644     128.7979   -862.19653   -154.63759   -594.71112    184.55421    67.908513    52.820296      46.7237      46.7237      46.7237           90           90           90     102002.7   -537.18174 
  547000       546497   -6449.2758    676.29051   -7125.5663    4417.7322   -11543.298    130.61684    -307.4355   -633.37226   -923.74177   -68.345105   -127.59395    215.54363      46.7237      46.7237      46.7237           90           90           90     102002.7   -621.51651 
  548000       547497   -6453.3258    684.89531   -7138.2212     4417.912   -11556.133    132.27875    -1080.814   -578.58808   -760.33144     251.9953    116.70046   -81.355394      46.7237      46.7237      46.7237           90           90           90     102002.7   -806.57785 
  549000       548497   -6500.4331    661.34377   -7161.7769    4395.1476   -11556.924    127.73007   -371.11469   -17.617112   -1207.7567   -162.85284   -89.698472    129.33155      46.7237      46.7237      46.7237           90           90           90     102002.7   -532.16282 
  550000       549497   -6463.2074    696.50112   -7159.7085     4407.828   -11567.537    134.52026   -812.30293    -1185.063   -778.15304    59.377629    16.466122   -215.81299      46.7237      46.7237      46.7237           90           90           90     102002.7   -925.17297 
  551000       550497   -6456.4454    681.37814   -7137.8235    4399.7584   -11537.582    131.59945   -497.08478   -865.58387   -313.45298    460.15558    33.961429    -39.61794      46.7237      46.7237      46.7237           90           90           90     102002.7   -558.70721 
  552000       551497   -6484.4698    683.32697   -7167.7967    4382.8252   -11550.622    131.97584   -620.04037    -146.6107   -573.23851   -16.454601    83.264567    83.161753      46.7237      46.7237      46.7237           90           90           90     102002.7   -446.62986 
  553000       552497    -6447.938    702.71971   -7150.6577    4407.6399   -11558.298     135.7213   -766.61298   -1153.7365   -584.69652    202.09336   -57.185196   -12.602916      46.7237      46.7237      46.7237           90           90           90     102002.7   -835.01533 
  554000       553497   -6468.6118    677.57417    -7146.186    4419.0564   -11565.242    130.86476   -453.65382   -317.69884   -333.94879   -125.09711    314.87139   -272.35039      46.7237      46.7237      46.7237           90           90           90     102002.7   -368.43382 
  555000       554497   -6479.9658    658.25492   -7138.2207    4415.9662   -11554.187     127.1335   -574.56076   -946.98317   -765.27571    407.07464    106.93046   -327.69839      46.7237      46.7237      46.7237           90           90           90     102002.7   -762.27321 
[...]
  936000       935497   -6468.4198    684.15952   -7152.5793    4397.3602    -11549.94    132.13664    -349.2882   -585.44087   -862.52338    136.43339    168.66378    -53.86449      46.7237      46.7237      46.7237           90           90           90     102002.7   -599.08415 
  937000       936497   -6458.0888    664.41405   -7122.5029    4433.9585   -11556.461    128.32305   -719.82868   -164.71986    -433.3895    53.429137   -74.470859   -146.28214      46.7237      46.7237      46.7237           90           90           90     102002.7   -439.31268 
  938000       937497   -6456.0723     673.1983   -7129.2706    4428.7712   -11558.042    130.01962   -1079.4751   -642.59023   -758.61139    187.68805   -131.39715    43.039242      46.7237      46.7237      46.7237           90           90           90     102002.7   -826.89225 
  939000       938497   -6490.9173    666.96932   -7157.8866     4397.087   -11554.974    128.81657   -818.56231   -447.52824   -932.96804    106.16773    217.81362    74.177236      46.7237      46.7237      46.7237           90           90           90     102002.7   -733.01953 
  940000       939497   -6463.4935     670.1245    -7133.618    4427.3822       -11561    129.42595    -354.1587    -409.7688   -910.98675   -202.94414   -129.11035   -36.516366      46.7237      46.7237      46.7237           90           90           90     102002.7   -558.30475 
  941000       940497   -6466.1307    680.98222   -7147.1129    4412.6281   -11559.741    131.52298   -780.22491   -577.88187    -1176.555    64.705697   -37.692113     3.712635      46.7237      46.7237      46.7237           90           90           90     102002.7   -844.88726 
  942000       941497   -6443.6743    698.70258   -7142.3768    4408.7264   -11551.103    134.94544   -982.76388   -549.76088    -886.0768    66.770344    34.863152    3.6694207      46.7237      46.7237      46.7237           90           90           90     102002.7   -806.20052 
  943000       942497   -6475.4835    687.90558   -7163.3891    4386.5187   -11549.908    132.86014   -460.58983   -761.92908   -647.22269   -94.487203    204.35021     95.60185      46.7237      46.7237      46.7237           90           90           90     102002.7    -623.2472 
  944000       943497   -6449.2268    679.40569   -7128.6325    4427.2737   -11555.906     131.2185   -1298.7304   -213.72235   -675.43711    67.806564    83.780411    10.611556      46.7237      46.7237      46.7237           90           90           90     102002.7   -729.29661 
  945000       944497   -6488.4183    661.64544   -7150.0637    4406.8615   -11556.925    127.78833   -627.38937   -366.67044   -677.54509    45.115292   -77.162203    301.18003      46.7237      46.7237      46.7237           90           90           90     102002.7   -557.20163 
  946000       945497   -6472.0994    671.49908   -7143.5985    4401.5661   -11545.165    129.69144   -628.12355   -473.43152   -764.85789   -31.629802   -84.375903   -26.111628      46.7237      46.7237      46.7237           90           90           90     102002.7   -622.13765 
  947000       946497   -6502.8992    662.47857   -7165.3777    4387.2213   -11552.599    127.94924   -733.54978   -1100.0717   -726.83968   -62.014465    126.83351    57.975903      46.7237      46.7237      46.7237           90           90           90     102002.7   -853.48704 
  948000       947497   -6469.5451    661.66735   -7131.2125    4421.4432   -11552.656    127.79256   -410.49591   -1173.0637   -786.31021   -35.473688    160.18446   -89.343936      46.7237      46.7237      46.7237           90           90           90     102002.7   -789.95661 
  949000       948497   -6482.3403     655.5221   -7137.8624    4409.3883   -11547.251    126.60569   -356.93046   -664.69471   -665.30989    91.512104    -55.60584   -154.27841      46.7237      46.7237      46.7237           90           90           90     102002.7   -562.31169 
  950000       949497   -6476.0304    665.94334   -7141.9738    4430.4178   -11572.392    128.61842   -1068.3601   -940.34523   -686.31311   -22.346263    18.660796    67.998265      46.7237      46.7237      46.7237           90           90           90     102002.7   -898.33948 
  951000       950497   -6458.2341    680.01218   -7138.2463    4413.2141    -11551.46    131.33563   -994.03474   -289.85489   -630.74793    171.56915   -71.003012   -96.264932      46.7237      46.7237      46.7237           90           90           90     102002.7   -638.21252 
  952000       951497    -6481.211    663.16868   -7144.3796    4428.0879   -11572.468    128.08253   -151.12661   -597.94317   -97.327148    119.48567   -73.875084    274.17585      46.7237      46.7237      46.7237           90           90           90     102002.7   -282.13231 
  953000       952497   -6438.7646    674.48202   -7113.2466    4444.8261   -11558.073    130.26755   -756.50958   -756.50707   -764.98604    68.215508   -140.87038   -128.59435      46.7237      46.7237      46.7237           90           90           90     102002.7   -759.33423 
  954000       953497   -6472.0638    673.35854   -7145.4223    4415.1181    -11560.54    130.05057   -944.54071   -322.48817   -697.17203    -20.15417    16.731311   -74.672229      46.7237      46.7237      46.7237           90           90           90     102002.7   -654.73364 
  955000       954497   -6449.9012    686.71037   -7136.6116    4415.5801   -11552.192     132.6293   -592.78996   -732.95468    -793.8677   -17.013018   -94.143888   -53.841696      46.7237      46.7237      46.7237           90           90           90     102002.7   -706.53745 
  956000       955497   -6498.9718      653.069   -7152.0408    4415.7133   -11567.754     126.1319   -754.66871   -647.40696   -956.63395   -27.578849   -13.176602    82.585924      46.7237      46.7237      46.7237           90           90           90     102002.7   -786.23654 
  957000       956497   -6481.3965    678.92218   -7160.3186    4389.9098   -11550.228    131.12511   -673.14812   -234.24729    -754.6119    26.308048    303.07821     26.86022      46.7237      46.7237      46.7237           90           90           90     102002.7   -554.00244 
  958000       957497   -6468.9561    666.85449   -7135.8106    4409.7532   -11545.564    128.79439   -768.68741   -910.41657   -823.44172   -57.722447    186.94924   -109.83597      46.7237      46.7237      46.7237           90           90           90     102002.7    -834.1819 
  959000       958497   -6484.9585    679.73881   -7164.6973    4390.0722   -11554.769    131.28283   -636.96757   -1087.0302    -796.0395   -141.23636    278.03032   -159.00922      46.7237      46.7237      46.7237           90           90           90     102002.7   -840.01243 
  960000       959497   -6485.0692    667.55917   -7152.6284    4404.3336   -11556.962    128.93049   -492.85059    6.0923615   -754.72257    88.918736    138.97359   -55.657191      46.7237      46.7237      46.7237           90           90           90     102002.7   -413.82693 
  961000       960497   -6454.9135    678.06454    -7132.978    4425.8505   -11558.829    130.95947   -614.71818   -584.94403   -719.04226   -90.561834   -287.50368     94.41933      46.7237      46.7237      46.7237           90           90           90     102002.7   -639.56815 
  962000       961497   -6470.9448    677.45222    -7148.397    4408.6876   -11557.085    130.84121   -836.94563   -781.08594   -563.60927    19.887345   -210.65791   -115.87445      46.7237      46.7237      46.7237           90           90           90     102002.7   -727.21361 
  963000       962497   -6453.2922    673.91394   -7127.2062    4430.0339    -11557.24    130.15784    -508.2048    -203.0566   -992.04594    166.42247   0.62756864   -16.977582      46.7237      46.7237      46.7237           90           90           90     102002.7   -567.76911 
  964000       963497    -6467.799     675.3732   -7143.1722    4408.1301   -11551.302    130.43967   -802.45624   -297.18691   -604.53986     60.93567    6.9414107   -26.746417      46.7237      46.7237      46.7237           90           90           90     102002.7     -568.061 
  965000       964497    -6442.649    677.32716   -7119.9761    4444.7785   -11564.755    130.81705   -536.05542   -579.25853   -1021.7834    48.168909   -161.04809    305.95458      46.7237      46.7237      46.7237           90           90           90     102002.7   -712.36578 
  966000       965497   -6476.1293    677.55287   -7153.6821    4406.5871   -11560.269    130.86065   -589.04014   -1023.4976   -295.25508    290.39622   -85.702016    -14.08875      46.7237      46.7237      46.7237           90           90           90     102002.7   -635.93094 
  967000       966497   -6448.7339    675.95028   -7124.6842    4451.5425   -11576.227    130.55113   -676.82803     -745.059   -974.82791    199.53532   -235.38684   -69.764468      46.7237      46.7237      46.7237           90           90           90     102002.7   -798.90498 
  968000       967497   -6461.8222    678.91434   -7140.7366    4412.3236    -11553.06     131.1236   -217.14833   -652.57997   -613.60936    159.37722   -18.259163   -96.449615      46.7237      46.7237      46.7237           90           90           90     102002.7   -494.44589 
  969000       968497   -6480.5752    676.01435   -7156.5896    4400.7687   -11557.358     130.5635   -834.30351   -497.31563   -751.06844    -190.5703    9.1974134    122.01701      46.7237      46.7237      46.7237           90           90           90     102002.7   -694.22919 
  970000       969497   -6424.6979     700.8569   -7125.5548    4411.3597   -11536.914    135.36152   -922.77261    -567.0458   -773.36904   -79.098384    253.34933   -8.4190502      46.7237      46.7237      46.7237           90           90           90     102002.7   -754.39582 
  971000       970497   -6467.5001    677.21753   -7144.7177    4418.6179   -11563.336    130.79588   -816.80655   -401.02896   -599.27192   -54.735844     138.4922   -30.500205      46.7237      46.7237      46.7237           90           90           90     102002.7   -605.70248 
  972000       971497   -6457.7455    668.94943    -7126.695      4423.95   -11550.645      129.199   -952.12814   -486.44169   -494.00957   -26.291106    -227.8737   -156.23098      46.7237      46.7237      46.7237           90           90           90     102002.7   -644.19313 
  973000       972497   -6499.4792    648.52594   -7148.0051    4407.1404   -11555.146    125.25447   -370.68181   -971.64687   -697.95682    85.563042    32.837811     86.89718      46.7237      46.7237      46.7237           90           90           90     102002.7   -680.09517 
  974000       973497   -6467.7307    675.21261   -7142.9434    4426.0451   -11568.989    130.40866   -343.57909   -652.81492    -674.5029   -146.77239   -170.86376    -220.2536      46.7237      46.7237      46.7237           90           90           90     102002.7   -556.96564 
  975000       974497   -6509.0704    653.60411   -7162.6745    4389.2441   -11551.919    126.23525   -538.60453   -511.73906   -636.94324     -55.9191   -145.61144   -2.7425839      46.7237      46.7237      46.7237           90           90           90     102002.7   -562.42894 
  976000       975497   -6456.5696    666.75176   -7123.3213    4420.5704   -11543.892    128.77455    -679.4285   -1060.5812   -563.20431     34.70616   -133.97939    2.4376702      46.7237      46.7237      46.7237           90           90           90     102002.7   -767.73802 
  977000       976497   -6449.1877    699.33265   -7148.5203    4416.1447   -11564.665    135.06713   -324.10726   -1359.5592   -1192.9402     240.9676   -263.54595   -250.56304      46.7237      46.7237      46.7237           90           90           90     102002.7   -958.86889 
  978000       977497   -6503.5114    660.66922   -7164.1806     4403.964   -11568.145    127.59979   -252.11161   -1080.6716   -641.90269    56.509786    111.16293    74.729281      46.7237      46.7237      46.7237           90           90           90     102002.7   -658.22865 
  979000       978497   -6465.1574    670.72679   -7135.8841    4426.8171   -11562.701    129.54228   -808.89067   -700.30647   -1061.0123   -15.012908   -179.84051   -47.916704      46.7237      46.7237      46.7237           90           90           90     102002.7   -856.73648 
  980000       979497   -6500.1248    649.42619    -7149.551    4413.4366   -11562.988    125.42834   -619.77649   -550.44568   -528.14475   -408.12311   -51.040461    99.432703      46.7237      46.7237      46.7237           90           90           90     102002.7    -566.1223 
  981000       980497   -6463.5304    670.86572   -7134.3962    4426.2261   -11560.622    129.56911    -739.4703   -600.74976   -861.33361   -231.48445   -244.41826    123.86845      46.7237      46.7237      46.7237           90           90           90     102002.7   -733.85122 
  982000       981497   -6467.2017     667.3581   -7134.5598    4436.0687   -11570.629    128.89166   -441.03438   -796.76313    -707.3378    67.548241    11.412679   -109.00911      46.7237      46.7237      46.7237           90           90           90     102002.7   -648.37843 
  983000       982497   -6479.7948    680.03108   -7159.8259    4390.5281   -11550.354    131.33928   -720.66059   -1112.5149   -1030.2858    173.17417   -229.85499    209.16984      46.7237      46.7237      46.7237           90           90           90     102002.7    -954.4871 
  984000       983497   -6452.0435    674.69569   -7126.7392    4432.3009    -11559.04    130.30882   -871.41296   -992.60374   -572.54398     134.6733    92.746056     -396.741      46.7237      46.7237      46.7237           90           90           90     102002.7   -812.18689 
  985000       984497   -6476.1857    664.76043   -7140.9461    4421.1331   -11562.079    128.38995   -487.10804   -1344.6262   -587.49592    184.20973   -23.989433    24.121816      46.7237      46.7237      46.7237           90           90           90     102002.7   -806.41006 
  986000       985497    -6502.823    648.67946   -7151.5024    4413.7522   -11565.255    125.28412   -585.04598   -999.08278   -636.69093    277.71229     286.9193    237.54252      46.7237      46.7237      46.7237           90           90           90     102002.7   -740.27323 
  987000       986497   -6470.9384    685.77077   -7156.7092    4400.6391   -11557.348    132.44783   -773.63655   -758.18391   -709.53396   -97.274998   -280.80797   -374.82614      46.7237      46.7237      46.7237           90           90           90     102002.7   -747.11814 
  988000       987497   -6483.4765    689.68707   -7173.1636    4379.9328   -11553.096    133.20421   -1102.0885   -482.75498   -382.05225    116.74979   -188.08512    -42.91507      46.7237      46.7237      46.7237           90           90           90     102002.7    -655.6319 
  989000       988497   -6463.4165    680.51841   -7143.9349    4426.4584   -11570.393    131.43341   -482.22076    39.896448   -632.64656   -54.767233    223.72875    -12.32759      46.7237      46.7237      46.7237           90           90           90     102002.7   -358.32363 
  990000       989497   -6486.3426    669.02893   -7155.3715    4394.8588    -11550.23    129.21436   -660.11029   -848.35595   -753.44306   -126.15649   -12.228827    185.97863      46.7237      46.7237      46.7237           90           90           90     102002.7   -753.96977 
  991000       990497   -6437.7732    671.30433   -7109.0775    4444.5053   -11553.583    129.65382   -1230.0786   -721.05053   -711.97301    360.62842    31.636159   -58.211135      46.7237      46.7237      46.7237           90           90           90     102002.7    -887.7007 
  992000       991497   -6466.6857     677.7792   -7144.4649    4420.2012   -11564.666    130.90436   -489.11101   -932.25826   -429.17828    -106.3695   -108.45117    237.93427      46.7237      46.7237      46.7237           90           90           90     102002.7   -616.84918 
  993000       992497   -6466.4462    666.96448   -7133.4106     4413.816   -11547.227    128.81564   -694.84605   -524.78002   -999.08971   -66.807891    88.201324   -171.17311      46.7237      46.7237      46.7237           90           90           90     102002.7   -739.57193 
  994000       993497   -6472.6432    672.66626   -7145.3094    4421.2184   -11566.528    129.91686   -732.06806     9.630309   -924.27794   -71.653037    137.01261     155.6823      46.7237      46.7237      46.7237           90           90           90     102002.7   -548.90523 
  995000       994497   -6449.8287    674.04011   -7123.8688    4412.4379   -11536.307     130.1822   -1062.7005   -1152.4243   -718.74405    7.5667959    213.49707    60.622824      46.7237      46.7237      46.7237           90           90           90     102002.7   -977.95629 
  996000       995497   -6476.1925    677.76463   -7153.9572    4422.2113   -11576.168    130.90155   -304.91856   -446.12931   -949.38191   -200.75654    24.434137    173.32493      46.7237      46.7237      46.7237           90           90           90     102002.7   -566.80992 
  997000       996497   -6482.5878     672.7326   -7155.3204    4387.1678   -11542.488    129.92967   -875.75357   -970.52012   -928.70649   -7.9231406    29.904615    91.045764      46.7237      46.7237      46.7237           90           90           90     102002.7   -924.99339 
  998000       997497   -6449.1171    685.49194    -7134.609    4424.1015   -11558.711    132.39398   -1075.9168   -20.010941    -939.8466   -136.64716   -83.378622   -8.2539733      46.7237      46.7237      46.7237           90           90           90     102002.7   -678.59145 
  999000       998497   -6484.1068    662.35411   -7146.4609    4409.6821   -11556.143     127.9252   -798.24305   -470.02192   -337.32008   -106.08961    -125.5472    56.442394      46.7237      46.7237      46.7237           90           90           90     102002.7   -535.19502 
 1000000       999497   -6506.6695    649.56948   -7156.2389    4404.6696   -11560.909    125.45601   -1163.2928   -809.87824   -597.63921   -16.469349    187.70296    504.96687      46.7237      46.7237      46.7237           90           90           90     102002.7   -856.93675 
 1000503      1000000   -6493.7309    674.63664   -7168.3675    4376.9034   -11545.271    130.29742   -653.34254   -1362.8316   -779.40761    163.70424     296.6813    218.52466      46.7237      46.7237      46.7237           90           90           90     102002.7   -931.86058 
Loop time of 1447.93 on 16 procs for 500000 steps with 1738 atoms

Performance: 29.836 ns/day, 0.804 hours/ns, 345.320 timesteps/s
99.8% CPU use with 16 MPI tasks x no OpenMP threads

MPI task timing breakdown:
Section |  min time  |  avg time  |  max time  |%varavg| %total
---------------------------------------------------------------
Pair    | 555.51     | 769.79     | 1008.5     | 509.4 | 53.16
Bond    | 174.63     | 183.22     | 194.66     |  43.7 | 12.65
Neigh   | 4.2662     | 4.2874     | 4.3127     |   0.8 |  0.30
Comm    | 215.56     | 463.51     | 681.78     | 674.0 | 32.01
Output  | 0.097273   | 0.10252    | 0.10296    |   0.4 |  0.01
Modify  | 21.266     | 21.835     | 22.246     |   6.3 |  1.51
Other   |            | 5.184      |            |       |  0.36

Nlocal:    108.625 ave 139 max 71 min
Histogram: 2 0 1 1 1 3 2 2 3 1
Nghost:    2213.5 ave 2253 max 2181 min
Histogram: 1 2 2 1 5 1 1 1 0 2
Neighs:    11449.6 ave 16770 max 5609 min
Histogram: 1 2 0 3 1 3 1 1 2 2

Total # of neighbors = 183194
Ave neighs/atom = 105.405
Ave special neighs/atom = 6.62831
Neighbor list builds = 3686
Dangerous builds = 0
Total wall time: 0:45:47
