LAMMPS (30 Mar 2018)
Reading data file ...
  orthogonal box = (0 0 0) to (46.7237 46.7237 46.7237)
  2 by 3 by 4 MPI processor grid
  reading atoms ...
  1741 atoms
  scanning bonds ...
  5 = max bonds/atom
  scanning angles ...
  10 = max angles/atom
  scanning dihedrals ...
  32 = max dihedrals/atom
  scanning impropers ...
  3 = max impropers/atom
  reading bonds ...
  2064 bonds
  reading angles ...
  3696 angles
  reading dihedrals ...
  6240 dihedrals
  reading impropers ...
  1008 impropers
Finding 1-2 1-3 1-4 neighbors ...
  special bond factors lj:   0          0          0         
  special bond factors coul: 0          0          0         
  5 = max # of 1-2 neighbors
  8 = max # of 1-3 neighbors
  20 = max # of 1-4 neighbors
  19 = max # of special neighbors
Finding 1-2 1-3 1-4 neighbors ...
  special bond factors lj:   0          0          1         
  special bond factors coul: 1          1          1         
  5 = max # of 1-2 neighbors
  8 = max # of 1-3 neighbors
  19 = max # of special neighbors
WARNING: Using 'neigh_modify every 1 delay 0 check yes' setting during minimization (../min.cpp:168)
Neighbor list info ...
  update every 1 steps, delay 0 steps, check yes
  max neighbors/atom: 2000, page size: 100000
  master list distance cutoff = 16
  ghost atom cutoff = 16
  binsize = 8, bins = 6 6 6
  3 neighbor lists, perpetual/occasional/extra = 3 0 0
  (1) pair buck6d/coul/gauss/dsf, perpetual, skip from (3)
      attributes: half, newton on
      pair build: skip
      stencil: none
      bin: none
  (2) pair lj/cut, perpetual, skip from (3)
      attributes: half, newton on
      pair build: skip
      stencil: none
      bin: none
  (3) neighbor class addition, perpetual
      attributes: half, newton on
      pair build: half/bin/newton
      stencil: half/bin/3d/newton
      bin: standard
Setting up cg style minimization ...
  Unit style    : real
  Current step  : 0
WARNING: Inconsistent image flags (../domain.cpp:786)
Per MPI rank memory allocation (min/avg/max) = 22.87 | 23.28 | 24.42 Mbytes
Step Temp E_pair E_mol TotEng Press 
       0            0   -11549.917    6482.8914   -5067.0253    6271.4587 
     503            0   -11569.753    3731.9471   -7837.8061   -480.22019 
Loop time of 1.19584 on 24 procs for 503 steps with 1741 atoms

99.7% CPU use with 24 MPI tasks x no OpenMP threads

Minimization stats:
  Stopping criterion = max force evaluations
  Energy initial, next-to-last, final = 
        -5067.02532526      -7837.7951444     -7837.80607925
  Force two-norm initial, final = 2576.95 4.72155
  Force max component initial, final = 152.164 0.593231
  Final line search alpha, max atom move = 0.0174386 0.0103451
  Iterations, force evaluations = 503 1000

MPI task timing breakdown:
Section |  min time  |  avg time  |  max time  |%varavg| %total
---------------------------------------------------------------
Pair    | 0.48771    | 0.60744    | 0.81745    |  10.8 | 50.80
Bond    | 0.12859    | 0.15719    | 0.19307    |   4.3 | 13.14
Neigh   | 0.0063265  | 0.0065973  | 0.007019   |   0.3 |  0.55
Comm    | 0.16573    | 0.38044    | 0.51398    |  12.9 | 31.81
Output  | 0          | 0          | 0          |   0.0 |  0.00
Modify  | 0          | 0          | 0          |   0.0 |  0.00
Other   |            | 0.04417    |            |       |  3.69

Nlocal:    72.5417 ave 83 max 56 min
Histogram: 1 1 1 1 2 6 2 4 2 4
Nghost:    1979.71 ave 2160 max 1889 min
Histogram: 16 0 0 0 0 0 0 0 0 8
Neighs:    7630.67 ave 10748 max 4704 min
Histogram: 1 3 5 2 1 3 2 1 5 1

Total # of neighbors = 183136
Ave neighs/atom = 105.19
Ave special neighs/atom = 6.61689
Neighbor list builds = 12
Dangerous builds = 0
Neighbor list info ...
  update every 1 steps, delay 10 steps, check yes
  max neighbors/atom: 2000, page size: 100000
  master list distance cutoff = 16
  ghost atom cutoff = 16
  binsize = 8, bins = 6 6 6
  3 neighbor lists, perpetual/occasional/extra = 3 0 0
  (1) pair buck6d/coul/gauss/dsf, perpetual, skip from (3)
      attributes: half, newton on
      pair build: skip
      stencil: none
      bin: none
  (2) pair lj/cut, perpetual, skip from (3)
      attributes: half, newton on
      pair build: skip
      stencil: none
      bin: none
  (3) neighbor class addition, perpetual
      attributes: half, newton on
      pair build: half/bin/newton
      stencil: half/bin/3d/newton
      bin: standard
Setting up Verlet run ...
  Unit style    : real
  Current step  : 503
  Time step     : 1
WARNING: Inconsistent image flags (../domain.cpp:786)
Per MPI rank memory allocation (min/avg/max) = 22.52 | 22.72 | 23.31 Mbytes
Step Temp PotEng TotEng Press Volume Lx Ly Lz 
     503          110   -7837.8061    -7267.279   -224.53981     102002.7      46.7237      46.7237      46.7237 
    1000    100.50344   -7348.6306   -6827.3585   -718.62294     102002.7      46.7237      46.7237      46.7237 
    2000     112.5733   -7257.2671   -6673.3934   -751.63764     102002.7      46.7237      46.7237      46.7237 
    3000    103.84799   -7227.5695   -6688.9505   -1062.8474     102002.7      46.7237      46.7237      46.7237 
    4000     106.1575   -7243.8683   -6693.2708   -734.30183     102002.7      46.7237      46.7237      46.7237 
    5000     108.9676   -7235.8438   -6670.6714   -721.02563     102002.7      46.7237      46.7237      46.7237 
    6000    106.61731   -7273.6523     -6720.67   -695.57538     102002.7      46.7237      46.7237      46.7237 
    7000    110.52724   -7267.9189   -6694.6573   -525.78631     102002.7      46.7237      46.7237      46.7237 
    8000    110.63315   -7239.3321   -6665.5211   -780.25466     102002.7      46.7237      46.7237      46.7237 
    9000    109.60507   -7238.9831   -6670.5044    -782.8798     102002.7      46.7237      46.7237      46.7237 
   10000    106.90766   -7247.5413    -6693.053   -664.88639     102002.7      46.7237      46.7237      46.7237 
   11000    109.45527    -7238.737   -6671.0353   -698.82177     102002.7      46.7237      46.7237      46.7237 
   12000    112.23761   -7250.8361   -6668.7035   -851.30044     102002.7      46.7237      46.7237      46.7237 
   13000    107.93539   -7259.1711   -6699.3524   -453.25638     102002.7      46.7237      46.7237      46.7237 
   14000    106.46442   -7227.5008   -6675.3114   -935.35406     102002.7      46.7237      46.7237      46.7237 
   15000    109.87866   -7248.5618   -6678.6641   -910.24024     102002.7      46.7237      46.7237      46.7237 
   16000    107.19257   -7251.9476   -6695.9816   -933.07581     102002.7      46.7237      46.7237      46.7237 
   17000    112.28625   -7250.8437   -6668.4588   -793.41641     102002.7      46.7237      46.7237      46.7237 
   18000    112.56079   -7255.8634   -6672.0545   -729.25088     102002.7      46.7237      46.7237      46.7237 
   19000    108.10153    -7258.581   -6697.9006   -728.09065     102002.7      46.7237      46.7237      46.7237 
   20000    107.39766   -7254.0419   -6697.0122   -844.22636     102002.7      46.7237      46.7237      46.7237 
   21000    109.52829   -7257.2909   -6689.2105   -738.66372     102002.7      46.7237      46.7237      46.7237 
   22000    107.16596   -7257.7427   -6701.9147   -727.25538     102002.7      46.7237      46.7237      46.7237 
   23000    112.99226   -7264.2681   -6678.2213   -718.82726     102002.7      46.7237      46.7237      46.7237 
   24000    111.47751   -7266.8819   -6688.6916    -546.4062     102002.7      46.7237      46.7237      46.7237 
   25000    109.74175   -7268.4199   -6699.2322   -577.95405     102002.7      46.7237      46.7237      46.7237 
   26000    109.07536   -7251.0989   -6685.3676   -729.64915     102002.7      46.7237      46.7237      46.7237 
   27000    106.73452    -7250.277   -6696.6867    -678.0417     102002.7      46.7237      46.7237      46.7237 
   28000     110.1711   -7260.9257   -6689.5113   -702.09969     102002.7      46.7237      46.7237      46.7237 
   29000    109.77535   -7263.0989   -6693.7371   -824.52943     102002.7      46.7237      46.7237      46.7237 
   30000    110.35681   -7253.4293   -6681.0517   -697.79768     102002.7      46.7237      46.7237      46.7237 
   31000    111.88226    -7256.577   -6676.2875   -668.66562     102002.7      46.7237      46.7237      46.7237 
   32000    106.27932   -7260.7181   -6709.4888    -674.9489     102002.7      46.7237      46.7237      46.7237 
   33000    111.80205   -7252.0054   -6672.1319   -620.96222     102002.7      46.7237      46.7237      46.7237 
   34000    111.62312   -7275.5219   -6696.5764   -726.00326     102002.7      46.7237      46.7237      46.7237 
   35000    111.73979   -7271.5238   -6691.9732   -469.47422     102002.7      46.7237      46.7237      46.7237 
   36000    106.35778   -7235.9384   -6684.3022    -801.9393     102002.7      46.7237      46.7237      46.7237 
   37000    107.24401   -7263.0801   -6706.8473   -734.38719     102002.7      46.7237      46.7237      46.7237 
   38000    111.47635   -7256.7109   -6678.5267    -586.0718     102002.7      46.7237      46.7237      46.7237 
   39000    112.22428   -7253.2066   -6671.1431   -691.87007     102002.7      46.7237      46.7237      46.7237 
   40000    110.02393   -7273.6273   -6702.9761   -628.73794     102002.7      46.7237      46.7237      46.7237 
   41000    111.10889   -7249.8722   -6673.5938   -538.75613     102002.7      46.7237      46.7237      46.7237 
   42000    110.32573   -7256.6943   -6684.4778   -537.79747     102002.7      46.7237      46.7237      46.7237 
   43000    105.36485   -7269.3228   -6722.8365   -571.79828     102002.7      46.7237      46.7237      46.7237 
   44000    109.28086   -7264.1938   -6697.3967   -843.19688     102002.7      46.7237      46.7237      46.7237 
   45000    109.40037   -7250.8756   -6683.4586   -890.65722     102002.7      46.7237      46.7237      46.7237 
   46000    111.91873   -7242.8949   -6662.4162   -650.70063     102002.7      46.7237      46.7237      46.7237 
   47000    110.84437   -7266.8307   -6691.9242   -743.30483     102002.7      46.7237      46.7237      46.7237 
   48000    114.51587   -7275.7995   -6681.8504   -753.03384     102002.7      46.7237      46.7237      46.7237 
   49000    111.52934   -7252.5528   -6674.0936   -810.54463     102002.7      46.7237      46.7237      46.7237 
   50000    108.55668   -7279.9376   -6716.8965   -1049.9649     102002.7      46.7237      46.7237      46.7237 
   51000    110.08265    -7258.032   -6687.0762   -828.64487     102002.7      46.7237      46.7237      46.7237 
   52000    110.93018   -7246.1018   -6670.7503   -808.76923     102002.7      46.7237      46.7237      46.7237 
   53000    109.10145   -7254.6037   -6688.7371   -848.67598     102002.7      46.7237      46.7237      46.7237 
   54000    109.20147   -7263.8616   -6697.4763   -708.46176     102002.7      46.7237      46.7237      46.7237 
   55000    111.54077   -7253.2913   -6674.7728   -874.85486     102002.7      46.7237      46.7237      46.7237 
   56000     110.5002   -7259.3527   -6686.2313   -564.07368     102002.7      46.7237      46.7237      46.7237 
   57000    110.33999   -7242.1485   -6669.8581     -761.773     102002.7      46.7237      46.7237      46.7237 
   58000    107.45961   -7251.8023   -6694.4513    -493.5726     102002.7      46.7237      46.7237      46.7237 
   59000    109.77499   -7253.2634   -6683.9034   -328.26464     102002.7      46.7237      46.7237      46.7237 
   60000    114.26593   -7253.2422   -6660.5894   -354.81825     102002.7      46.7237      46.7237      46.7237 
   61000    108.85603   -7263.3319   -6698.7382   -613.34288     102002.7      46.7237      46.7237      46.7237 
   62000    112.18697   -7259.0711   -6677.2011   -475.39071     102002.7      46.7237      46.7237      46.7237 
   63000    110.43326   -7244.8217   -6672.0475   -475.10938     102002.7      46.7237      46.7237      46.7237 
   64000    112.62582   -7281.3571   -6697.2109   -426.72812     102002.7      46.7237      46.7237      46.7237 
   65000    110.63136   -7239.3312   -6665.5295   -526.47214     102002.7      46.7237      46.7237      46.7237 
   66000    108.28548   -7262.3289   -6700.6944    -412.9454     102002.7      46.7237      46.7237      46.7237 
   67000     109.4193   -7271.6763   -6704.1611   -288.52312     102002.7      46.7237      46.7237      46.7237 
   68000    112.03852   -7255.3462   -6674.2461   -315.04727     102002.7      46.7237      46.7237      46.7237 
   69000    107.19155   -7252.6373   -6696.6766   -519.84528     102002.7      46.7237      46.7237      46.7237 
   70000    108.99862   -7259.9944   -6694.6612   -620.77726     102002.7      46.7237      46.7237      46.7237 
   71000    109.20201   -7255.2733   -6688.8851   -820.96781     102002.7      46.7237      46.7237      46.7237 
   72000    110.72303   -7254.3953   -6680.1182   -874.42241     102002.7      46.7237      46.7237      46.7237 
   73000    114.60901   -7246.5947   -6652.1625   -865.05866     102002.7      46.7237      46.7237      46.7237 
   74000    109.11221   -7261.2114   -6695.2889   -744.24758     102002.7      46.7237      46.7237      46.7237 
   75000    109.67728   -7252.7194   -6683.8662   -879.74716     102002.7      46.7237      46.7237      46.7237 
   76000    109.76754   -7270.0262   -6700.7048   -855.96053     102002.7      46.7237      46.7237      46.7237 
   77000    109.09602   -7254.6248   -6688.7863   -953.33124     102002.7      46.7237      46.7237      46.7237 
   78000    114.60941   -7267.7971   -6673.3628   -618.27791     102002.7      46.7237      46.7237      46.7237 
   79000    111.04109   -7259.3035   -6683.3768   -779.44105     102002.7      46.7237      46.7237      46.7237 
   80000      112.016   -7240.5048   -6659.5216   -738.83584     102002.7      46.7237      46.7237      46.7237 
   81000    108.97229   -7251.2184   -6686.0217    -786.7858     102002.7      46.7237      46.7237      46.7237 
   82000    109.07045   -7270.6557   -6704.9498   -771.90241     102002.7      46.7237      46.7237      46.7237 
   83000    109.90509   -7246.1187   -6676.0839   -755.35997     102002.7      46.7237      46.7237      46.7237 
   84000    111.06496   -7265.5968   -6689.5462   -484.68302     102002.7      46.7237      46.7237      46.7237 
   85000    108.67057   -7257.7364   -6694.1046   -596.59532     102002.7      46.7237      46.7237      46.7237 
   86000      106.927   -7264.3331   -6709.7445   -492.09215     102002.7      46.7237      46.7237      46.7237 
   87000    111.71991   -7259.5868   -6680.1392    -445.5316     102002.7      46.7237      46.7237      46.7237 
   88000    107.15876   -7228.9411   -6673.1505   -742.75519     102002.7      46.7237      46.7237      46.7237 
   89000    112.03558   -7271.4859    -6690.401   -567.49305     102002.7      46.7237      46.7237      46.7237 
   90000     111.4302   -7248.3689    -6670.424   -398.54098     102002.7      46.7237      46.7237      46.7237 
   91000    111.66908   -7266.6339     -6687.45   -638.66367     102002.7      46.7237      46.7237      46.7237 
   92000    107.10138   -7268.6551    -6713.162   -558.93164     102002.7      46.7237      46.7237      46.7237 
   93000    112.56313   -7269.7038   -6685.8828   -742.47398     102002.7      46.7237      46.7237      46.7237 
   94000    109.20388   -7236.6495   -6670.2516   -612.82565     102002.7      46.7237      46.7237      46.7237 
   95000    107.48021   -7250.7095   -6693.2516   -516.37376     102002.7      46.7237      46.7237      46.7237 
   96000    110.33589   -7247.0682    -6674.799   -570.55228     102002.7      46.7237      46.7237      46.7237 
   97000    107.94934   -7245.7188   -6685.8277   -774.80989     102002.7      46.7237      46.7237      46.7237 
   98000    113.20291   -7263.2872   -6676.1479   -825.39199     102002.7      46.7237      46.7237      46.7237 
   99000    109.10734   -7261.3532    -6695.456   -432.38935     102002.7      46.7237      46.7237      46.7237 
  100000    111.56366   -7249.5352    -6670.898   -853.31981     102002.7      46.7237      46.7237      46.7237 
  101000    110.20504   -7253.4929   -6681.9024   -945.38353     102002.7      46.7237      46.7237      46.7237 
  102000    105.65475   -7248.5924   -6700.6025   -1117.5272     102002.7      46.7237      46.7237      46.7237 
  103000     109.8098   -7252.3388   -6682.7982   -740.83063     102002.7      46.7237      46.7237      46.7237 
  104000     107.5081   -7237.0623   -6679.4598   -753.07014     102002.7      46.7237      46.7237      46.7237 
  105000     109.8337   -7273.3615    -6703.697   -535.56352     102002.7      46.7237      46.7237      46.7237 
  106000     112.4469   -7289.4399   -6706.2217   -589.95378     102002.7      46.7237      46.7237      46.7237 
  107000    109.68822   -7256.2457   -6687.3357   -538.36803     102002.7      46.7237      46.7237      46.7237 
  108000    107.40272   -7261.3698   -6704.3139   -678.68889     102002.7      46.7237      46.7237      46.7237 
  109000    112.59931   -7246.8201   -6662.8115   -696.09327     102002.7      46.7237      46.7237      46.7237 
  110000    109.04535   -7261.9864   -6696.4107   -449.10303     102002.7      46.7237      46.7237      46.7237 
  111000    108.61234   -7272.5806   -6709.2508   -645.91713     102002.7      46.7237      46.7237      46.7237 
  112000    112.53011   -7270.5023   -6686.8526   -373.32646     102002.7      46.7237      46.7237      46.7237 
  113000     108.9934   -7258.9945   -6693.6883   -392.20561     102002.7      46.7237      46.7237      46.7237 
  114000    110.83582   -7273.9077   -6699.0456   -523.14922     102002.7      46.7237      46.7237      46.7237 
  115000    109.05068   -7271.8211   -6706.2178   -856.15098     102002.7      46.7237      46.7237      46.7237 
  116000    110.51342   -7258.3623   -6685.1724   -398.30519     102002.7      46.7237      46.7237      46.7237 
  117000    112.99337   -7249.4538   -6663.4013   -643.18502     102002.7      46.7237      46.7237      46.7237 
  118000    109.71854   -7262.1845   -6693.1173   -683.69482     102002.7      46.7237      46.7237      46.7237 
  119000     110.0968   -7247.6302   -6676.6011   -696.14441     102002.7      46.7237      46.7237      46.7237 
  120000    112.64291   -7257.1756   -6672.9408   -797.06173     102002.7      46.7237      46.7237      46.7237 
  121000    111.86692   -7268.7833   -6688.5733    -779.1143     102002.7      46.7237      46.7237      46.7237 
  122000     109.8978   -7264.0091   -6694.0122   -622.13386     102002.7      46.7237      46.7237      46.7237 
  123000    110.66005   -7277.1117   -6703.1612   -985.34797     102002.7      46.7237      46.7237      46.7237 
  124000    105.96944    -7255.467   -6705.8448   -957.33612     102002.7      46.7237      46.7237      46.7237 
  125000    109.66752   -7247.9431   -6679.1405   -780.94878     102002.7      46.7237      46.7237      46.7237 
  126000    109.25492   -7257.0633   -6690.4007   -537.14033     102002.7      46.7237      46.7237      46.7237 
  127000    108.59125   -7265.5931   -6702.3727   -1017.9913     102002.7      46.7237      46.7237      46.7237 
  128000    109.56215   -7251.7248   -6683.4687   -612.74518     102002.7      46.7237      46.7237      46.7237 
  129000    109.00114   -7268.4637   -6703.1173   -767.29196     102002.7      46.7237      46.7237      46.7237 
  130000    106.87687   -7246.4284   -6692.0999   -733.60318     102002.7      46.7237      46.7237      46.7237 
  131000    111.06833   -7242.2842   -6666.2162   -642.38199     102002.7      46.7237      46.7237      46.7237 
  132000    110.02205    -7247.314   -6676.6726     -688.699     102002.7      46.7237      46.7237      46.7237 
  133000    110.27588   -7261.8071   -6689.8492   -697.41044     102002.7      46.7237      46.7237      46.7237 
  134000    113.85696   -7262.9556    -6672.424   -763.33604     102002.7      46.7237      46.7237      46.7237 
  135000    110.48973   -7242.5455   -6669.4784   -597.43216     102002.7      46.7237      46.7237      46.7237 
  136000    110.41322   -7259.1451   -6686.4748   -583.33913     102002.7      46.7237      46.7237      46.7237 
  137000    109.23744   -7257.2878   -6690.7158   -676.46003     102002.7      46.7237      46.7237      46.7237 
  138000    108.96475   -7260.4476     -6695.29   -472.26994     102002.7      46.7237      46.7237      46.7237 
  139000     107.8625   -7267.2235   -6707.7828   -559.73409     102002.7      46.7237      46.7237      46.7237 
  140000    107.89724   -7252.7125   -6693.0916   -574.08004     102002.7      46.7237      46.7237      46.7237 
  141000      108.142   -7250.4857   -6689.5954   -988.62494     102002.7      46.7237      46.7237      46.7237 
  142000    109.37968   -7267.9674   -6700.6577   -495.61929     102002.7      46.7237      46.7237      46.7237 
  143000     109.7955   -7268.3373   -6698.8709   -532.35119     102002.7      46.7237      46.7237      46.7237 
  144000    110.98043    -7250.992   -6675.3798   -589.59803     102002.7      46.7237      46.7237      46.7237 
  145000    110.51633   -7262.6791   -6689.4741   -469.00782     102002.7      46.7237      46.7237      46.7237 
  146000     115.4431   -7253.1847   -6654.4264   -917.89058     102002.7      46.7237      46.7237      46.7237 
  147000    107.46127    -7253.975   -6696.6154   -729.08097     102002.7      46.7237      46.7237      46.7237 
  148000    106.24064   -7265.3059   -6714.2772   -781.96267     102002.7      46.7237      46.7237      46.7237 
  149000    109.49249   -7242.0809   -6674.1861   -658.90332     102002.7      46.7237      46.7237      46.7237 
  150000    114.12729   -7264.8993   -6672.9656   -551.61317     102002.7      46.7237      46.7237      46.7237 
  151000    112.28718   -7235.8332   -6653.4434   -630.32322     102002.7      46.7237      46.7237      46.7237 
  152000    110.01978    -7261.278   -6690.6484   -358.93961     102002.7      46.7237      46.7237      46.7237 
  153000    111.64913   -7249.0471   -6669.9667   -831.97362     102002.7      46.7237      46.7237      46.7237 
  154000    107.00068   -7258.5353   -6703.5646   -682.23095     102002.7      46.7237      46.7237      46.7237 
  155000    111.19241   -7237.2094   -6660.4978   -896.74574     102002.7      46.7237      46.7237      46.7237 
  156000    106.69652   -7250.8633   -6697.4701   -928.63636     102002.7      46.7237      46.7237      46.7237 
  157000    113.48585   -7263.8873   -6675.2806    -899.8021     102002.7      46.7237      46.7237      46.7237 
  158000    109.59414   -7246.8123   -6678.3903   -696.46567     102002.7      46.7237      46.7237      46.7237 
  159000    105.29794   -7271.8448   -6725.7055   -792.54029     102002.7      46.7237      46.7237      46.7237 
  160000    112.44299   -7268.4684   -6685.2706   -869.68851     102002.7      46.7237      46.7237      46.7237 
  161000    109.53251   -7241.9724     -6673.87   -999.55245     102002.7      46.7237      46.7237      46.7237 
  162000     111.6095   -7268.8011   -6689.9262   -880.11554     102002.7      46.7237      46.7237      46.7237 
  163000    109.65503   -7256.5036   -6687.7658   -664.95508     102002.7      46.7237      46.7237      46.7237 
  164000    113.69226    -7247.037   -6657.3596   -632.37106     102002.7      46.7237      46.7237      46.7237 
  165000    108.88508   -7247.0789   -6682.3345   -947.37362     102002.7      46.7237      46.7237      46.7237 
  166000    107.59679    -7260.009   -6701.9465   -727.82629     102002.7      46.7237      46.7237      46.7237 
  167000    108.14092   -7258.7755   -6697.8907    -545.8217     102002.7      46.7237      46.7237      46.7237 
  168000    110.72721   -7244.0645   -6669.7657    -1068.042     102002.7      46.7237      46.7237      46.7237 
  169000    109.26929   -7264.0861    -6697.349   -708.81968     102002.7      46.7237      46.7237      46.7237 
  170000    110.13174   -7261.7476   -6690.5372   -585.87234     102002.7      46.7237      46.7237      46.7237 
  171000    114.38134    -7264.767   -6671.5157   -427.04348     102002.7      46.7237      46.7237      46.7237 
  172000    105.94777   -7262.3882   -6712.8785   -688.58659     102002.7      46.7237      46.7237      46.7237 
  173000    108.17445   -7262.9232   -6701.8646   -534.14656     102002.7      46.7237      46.7237      46.7237 
  174000    112.24459    -7261.089   -6678.9202   -665.99604     102002.7      46.7237      46.7237      46.7237 
  175000    110.53475   -7265.4602   -6692.1597   -861.22436     102002.7      46.7237      46.7237      46.7237 
  176000    109.62532   -7272.8447   -6704.2609   -1028.3296     102002.7      46.7237      46.7237      46.7237 
  177000    111.94262   -7249.7841   -6669.1815   -837.88012     102002.7      46.7237      46.7237      46.7237 
  178000    112.95385   -7261.7508   -6675.9033   -735.69011     102002.7      46.7237      46.7237      46.7237 
  179000    105.67316   -7252.6705   -6704.5851   -867.49421     102002.7      46.7237      46.7237      46.7237 
  180000    111.32649   -7249.3823   -6671.9752   -609.81331     102002.7      46.7237      46.7237      46.7237 
  181000    107.56637    -7245.801   -6687.8962   -178.16737     102002.7      46.7237      46.7237      46.7237 
  182000    111.92072   -7233.1571    -6652.668   -503.80475     102002.7      46.7237      46.7237      46.7237 
  183000      110.137   -7255.0565   -6683.8189   -744.91038     102002.7      46.7237      46.7237      46.7237 
  184000     107.8164   -7254.8711   -6695.6695   -567.26736     102002.7      46.7237      46.7237      46.7237 
  185000     111.9392   -7258.6634   -6678.0785   -782.77427     102002.7      46.7237      46.7237      46.7237 
  186000     113.2941   -7295.9239   -6708.3116   -759.17198     102002.7      46.7237      46.7237      46.7237 
  187000      108.689   -7255.0877   -6691.3604   -764.26766     102002.7      46.7237      46.7237      46.7237 
  188000    107.56928   -7260.3329    -6702.413   -643.41189     102002.7      46.7237      46.7237      46.7237 
  189000    110.23091   -7254.1255   -6682.4008   -966.75468     102002.7      46.7237      46.7237      46.7237 
  190000     111.1517   -7250.3325    -6673.832   -914.39069     102002.7      46.7237      46.7237      46.7237 
  191000    107.65195   -7269.1987   -6710.8501   -863.42436     102002.7      46.7237      46.7237      46.7237 
  192000    115.88097   -7245.0523   -6644.0229   -780.79323     102002.7      46.7237      46.7237      46.7237 
  193000    110.96947   -7282.3123    -6706.757   -408.82141     102002.7      46.7237      46.7237      46.7237 
  194000    111.13079   -7247.2552   -6670.8632   -629.27771     102002.7      46.7237      46.7237      46.7237 
  195000     107.9398   -7249.8665   -6690.0249   -479.73406     102002.7      46.7237      46.7237      46.7237 
  196000    109.53559   -7263.4047   -6695.2864   -437.78756     102002.7      46.7237      46.7237      46.7237 
  197000    106.17607   -7255.8905   -6705.1966   -866.54774     102002.7      46.7237      46.7237      46.7237 
  198000    111.98979    -7259.638   -6678.7907   -589.63062     102002.7      46.7237      46.7237      46.7237 
  199000    112.88824   -7266.9905   -6681.4833   -857.46703     102002.7      46.7237      46.7237      46.7237 
  200000    108.78791   -7267.2405   -6703.0001   -477.96488     102002.7      46.7237      46.7237      46.7237 
  201000    110.98591   -7242.8906     -6667.25   -385.14115     102002.7      46.7237      46.7237      46.7237 
  202000    109.46592   -7257.8731   -6690.1161   -678.13881     102002.7      46.7237      46.7237      46.7237 
  203000    110.23132   -7254.0506   -6682.3238   -871.82504     102002.7      46.7237      46.7237      46.7237 
  204000    110.35852   -7268.9453   -6696.5587   -573.36776     102002.7      46.7237      46.7237      46.7237 
  205000    111.79363    -7247.364   -6667.5341    -1105.312     102002.7      46.7237      46.7237      46.7237 
  206000    110.72527    -7276.512   -6702.2233   -761.43107     102002.7      46.7237      46.7237      46.7237 
  207000    111.51455   -7240.0739   -6661.6915   -631.66361     102002.7      46.7237      46.7237      46.7237 
  208000    111.65291   -7258.7302   -6679.6302   -519.35416     102002.7      46.7237      46.7237      46.7237 
  209000    109.03577   -7257.1683   -6691.6423   -466.22604     102002.7      46.7237      46.7237      46.7237 
  210000    106.71181    -7271.911   -6718.4385   -869.29492     102002.7      46.7237      46.7237      46.7237 
  211000    107.88832   -7252.1004   -6692.5258   -791.98144     102002.7      46.7237      46.7237      46.7237 
  212000    110.39758   -7248.9127   -6676.3236   -703.22502     102002.7      46.7237      46.7237      46.7237 
  213000    111.99161   -7266.6478    -6685.791    -625.3351     102002.7      46.7237      46.7237      46.7237 
  214000     109.3005   -7256.5375   -6689.6384   -562.66151     102002.7      46.7237      46.7237      46.7237 
  215000    107.12622   -7277.2128   -6721.5909   -588.66577     102002.7      46.7237      46.7237      46.7237 
  216000    113.57353   -7265.5253   -6676.4637   -539.72655     102002.7      46.7237      46.7237      46.7237 
  217000    108.12968   -7268.2016   -6707.3751   -609.70834     102002.7      46.7237      46.7237      46.7237 
  218000    108.21719    -7250.643   -6689.3628   -356.50319     102002.7      46.7237      46.7237      46.7237 
  219000    107.13359   -7252.1613   -6696.5012   -651.29457     102002.7      46.7237      46.7237      46.7237 
  220000     111.3364   -7261.2642   -6683.8057   -786.59141     102002.7      46.7237      46.7237      46.7237 
  221000    106.17696   -7255.4863   -6704.7879   -685.31762     102002.7      46.7237      46.7237      46.7237 
  222000    110.75772   -7253.3279   -6678.8708   -718.55348     102002.7      46.7237      46.7237      46.7237 
  223000    109.43079   -7253.5527    -6685.978   -691.06006     102002.7      46.7237      46.7237      46.7237 
  224000    110.25869   -7262.9824   -6691.1137   -767.07211     102002.7      46.7237      46.7237      46.7237 
  225000    110.65011   -7257.9357   -6684.0368   -798.92249     102002.7      46.7237      46.7237      46.7237 
  226000    113.32999   -7244.7419   -6656.9435   -763.56214     102002.7      46.7237      46.7237      46.7237 
  227000    111.73469   -7262.8869   -6683.3626   -762.37984     102002.7      46.7237      46.7237      46.7237 
  228000    108.34838   -7251.8476   -6689.8868   -581.84109     102002.7      46.7237      46.7237      46.7237 
  229000    113.77924   -7237.5316   -6647.4031   -314.26827     102002.7      46.7237      46.7237      46.7237 
  230000    108.65549   -7254.6179   -6691.0643   -584.72176     102002.7      46.7237      46.7237      46.7237 
  231000    111.14238   -7258.1625   -6681.7104   -391.26111     102002.7      46.7237      46.7237      46.7237 
  232000     113.5109   -7245.3913   -6656.6546   -453.41052     102002.7      46.7237      46.7237      46.7237 
  233000    106.44726   -7232.4033    -6680.303   -562.75122     102002.7      46.7237      46.7237      46.7237 
  234000    112.60292    -7243.735   -6659.7076   -442.82855     102002.7      46.7237      46.7237      46.7237 
  235000    109.27695   -7255.4907   -6688.7138   -550.11832     102002.7      46.7237      46.7237      46.7237 
  236000    109.24725   -7250.8545   -6684.2317   -569.00002     102002.7      46.7237      46.7237      46.7237 
  237000    111.42136   -7267.9001    -6690.001   -961.35385     102002.7      46.7237      46.7237      46.7237 
  238000    109.91906   -7256.4289   -6686.3217   -920.95488     102002.7      46.7237      46.7237      46.7237 
  239000     113.4954   -7248.2235   -6659.5672   -718.47716     102002.7      46.7237      46.7237      46.7237 
  240000    109.09619   -7265.1851   -6699.3458   -601.43551     102002.7      46.7237      46.7237      46.7237 
  241000    113.42903   -7247.4079   -6659.0959   -736.08678     102002.7      46.7237      46.7237      46.7237 
  242000    109.24401   -7247.1972   -6680.5911   -564.95047     102002.7      46.7237      46.7237      46.7237 
  243000    110.92697   -7273.1926   -6697.8577   -560.95796     102002.7      46.7237      46.7237      46.7237 
  244000    109.74797   -7240.0249    -6670.805   -628.29798     102002.7      46.7237      46.7237      46.7237 
  245000    106.56215   -7259.6113    -6706.915   -614.36478     102002.7      46.7237      46.7237      46.7237 
  246000     112.4791   -7254.3514   -6670.9663   -496.45635     102002.7      46.7237      46.7237      46.7237 
  247000    109.09769   -7266.3694   -6700.5223   -600.47669     102002.7      46.7237      46.7237      46.7237 
  248000    110.61271   -7265.6628   -6691.9579    -480.7428     102002.7      46.7237      46.7237      46.7237 
  249000    110.48132   -7247.6928   -6674.6693   -489.23243     102002.7      46.7237      46.7237      46.7237 
  250000     107.0194   -7250.1665   -6695.0987   -1067.5467     102002.7      46.7237      46.7237      46.7237 
  251000    111.76253   -7261.2397   -6681.5711   -710.72932     102002.7      46.7237      46.7237      46.7237 
  252000     106.7144   -7267.6351   -6714.1492   -885.55907     102002.7      46.7237      46.7237      46.7237 
  253000    110.25577   -7245.9584   -6674.1048   -887.43279     102002.7      46.7237      46.7237      46.7237 
  254000    110.80715   -7272.2217   -6697.5083   -787.51275     102002.7      46.7237      46.7237      46.7237 
  255000    112.94234   -7232.9635   -6647.1757   -1121.3056     102002.7      46.7237      46.7237      46.7237 
  256000    108.23463   -7244.8425   -6683.4718   -702.03872     102002.7      46.7237      46.7237      46.7237 
  257000     110.0662   -7264.2472   -6693.3769   -737.07103     102002.7      46.7237      46.7237      46.7237 
  258000    109.97773   -7271.8831   -6701.4716   -782.42903     102002.7      46.7237      46.7237      46.7237 
  259000    111.95579   -7241.0932   -6660.4222   -496.05418     102002.7      46.7237      46.7237      46.7237 
  260000    107.91112   -7254.9806   -6695.2878   -613.96679     102002.7      46.7237      46.7237      46.7237 
  261000    112.45789   -7262.1236   -6678.8484   -748.62007     102002.7      46.7237      46.7237      46.7237 
  262000    108.98807   -7259.4778   -6694.1993   -692.93084     102002.7      46.7237      46.7237      46.7237 
  263000    110.56383   -7265.8191   -6692.3677   -693.50946     102002.7      46.7237      46.7237      46.7237 
  264000    113.26863   -7240.6816   -6653.2015   -467.12059     102002.7      46.7237      46.7237      46.7237 
  265000    110.96047    -7264.273   -6688.7644   -605.31808     102002.7      46.7237      46.7237      46.7237 
  266000    110.20739   -7245.4125   -6673.8099   -293.49925     102002.7      46.7237      46.7237      46.7237 
  267000    112.66667   -7264.9757   -6680.6177   -722.65025     102002.7      46.7237      46.7237      46.7237 
  268000    111.03699   -7243.3552   -6667.4497    -732.5912     102002.7      46.7237      46.7237      46.7237 
  269000    107.06357     -7283.67    -6728.373   -753.70548     102002.7      46.7237      46.7237      46.7237 
  270000    107.20283   -7239.4777   -6683.4585     -530.821     102002.7      46.7237      46.7237      46.7237 
  271000    111.44797   -7270.5116   -6692.4746   -610.85812     102002.7      46.7237      46.7237      46.7237 
  272000    110.09968   -7250.1871   -6679.1431   -889.83874     102002.7      46.7237      46.7237      46.7237 
  273000    109.95912   -7280.3963   -6710.0812   -689.72602     102002.7      46.7237      46.7237      46.7237 
  274000    111.03194   -7256.8537   -6680.9744   -814.45525     102002.7      46.7237      46.7237      46.7237 
  275000    110.97068   -7243.6799   -6668.1183   -570.91308     102002.7      46.7237      46.7237      46.7237 
  276000    110.12677   -7271.6912   -6700.5066    -732.3202     102002.7      46.7237      46.7237      46.7237 
  277000    109.24901   -7264.0246   -6697.3926   -744.21924     102002.7      46.7237      46.7237      46.7237 
  278000    109.96156   -7247.0128   -6676.6851   -948.50738     102002.7      46.7237      46.7237      46.7237 
  279000    108.44042   -7257.6929   -6695.2547   -619.22005     102002.7      46.7237      46.7237      46.7237 
  280000    114.58937   -7246.5905   -6652.2602   -754.27805     102002.7      46.7237      46.7237      46.7237 
  281000    109.37845   -7273.7614   -6706.4581   -775.29572     102002.7      46.7237      46.7237      46.7237 
  282000    110.05558   -7250.7606   -6679.9453   -919.23962     102002.7      46.7237      46.7237      46.7237 
  283000    108.20546   -7262.6269   -6701.4075   -853.38058     102002.7      46.7237      46.7237      46.7237 
  284000    113.30903    -7264.362   -6676.6723    -712.0744     102002.7      46.7237      46.7237      46.7237 
  285000    108.08783   -7275.3017   -6714.6923   -624.76431     102002.7      46.7237      46.7237      46.7237 
  286000    112.09214   -7266.7115   -6685.3333   -773.21542     102002.7      46.7237      46.7237      46.7237 
  287000    112.29534   -7229.1486   -6646.7165   -455.37293     102002.7      46.7237      46.7237      46.7237 
  288000    111.61824   -7270.5711   -6691.6509   -554.08106     102002.7      46.7237      46.7237      46.7237 
  289000    113.57074    -7246.677   -6657.6299   -633.40772     102002.7      46.7237      46.7237      46.7237 
  290000    109.67023   -7264.2044   -6695.3877   -573.98339     102002.7      46.7237      46.7237      46.7237 
  291000    110.62767   -7278.5658   -6704.7833   -669.62969     102002.7      46.7237      46.7237      46.7237 
  292000    109.34095   -7243.7711   -6676.6623   -759.51299     102002.7      46.7237      46.7237      46.7237 
  293000    109.26706   -7284.5353   -6717.8097   -542.01619     102002.7      46.7237      46.7237      46.7237 
  294000    110.44185   -7272.0774   -6699.2587    -829.5674     102002.7      46.7237      46.7237      46.7237 
  295000    114.41486     -7258.44   -6665.0148   -886.23816     102002.7      46.7237      46.7237      46.7237 
  296000    111.15835   -7250.0514   -6673.5164   -624.55114     102002.7      46.7237      46.7237      46.7237 
  297000     110.8052   -7263.2909   -6688.5876   -564.99683     102002.7      46.7237      46.7237      46.7237 
  298000    110.46864   -7272.3055   -6699.3478   -794.55542     102002.7      46.7237      46.7237      46.7237 
  299000    109.86784   -7256.1043   -6686.2627    -746.5707     102002.7      46.7237      46.7237      46.7237 
  300000    114.48066   -7247.5935   -6653.8271   -771.75348     102002.7      46.7237      46.7237      46.7237 
  301000     108.6652    -7255.735   -6692.1311   -555.05946     102002.7      46.7237      46.7237      46.7237 
  302000    112.04424    -7262.007   -6680.8773   -660.86386     102002.7      46.7237      46.7237      46.7237 
  303000    110.49876   -7252.2897   -6679.1758   -653.30517     102002.7      46.7237      46.7237      46.7237 
  304000    107.50051   -7252.0003   -6694.4371   -632.28099     102002.7      46.7237      46.7237      46.7237 
  305000    107.82127    -7269.464   -6710.2372    -736.8995     102002.7      46.7237      46.7237      46.7237 
  306000    111.12462   -7267.3826   -6691.0226   -459.10483     102002.7      46.7237      46.7237      46.7237 
  307000    111.10983    -7250.812   -6674.5287   -574.98911     102002.7      46.7237      46.7237      46.7237 
  308000    109.75495   -7267.6047   -6698.3486   -850.95482     102002.7      46.7237      46.7237      46.7237 
  309000    111.49873   -7264.8889   -6686.5886   -530.34605     102002.7      46.7237      46.7237      46.7237 
  310000    106.55901   -7242.0344   -6689.3545   -763.67277     102002.7      46.7237      46.7237      46.7237 
  311000    110.07326   -7257.3446   -6686.4377   -693.89768     102002.7      46.7237      46.7237      46.7237 
  312000    112.75149   -7259.6813   -6674.8833   -532.04257     102002.7      46.7237      46.7237      46.7237 
  313000    108.53453   -7273.6737   -6710.7475   -742.20481     102002.7      46.7237      46.7237      46.7237 
  314000    113.27958   -7260.0426   -6672.5057   -720.52022     102002.7      46.7237      46.7237      46.7237 
  315000    107.23249   -7254.3672   -6698.1942   -622.59948     102002.7      46.7237      46.7237      46.7237 
  316000    110.08551   -7242.5441   -6671.5735   -947.07939     102002.7      46.7237      46.7237      46.7237 
  317000     112.7307   -7275.7488   -6691.0587   -731.71618     102002.7      46.7237      46.7237      46.7237 
  318000    113.23141    -7259.121    -6671.834   -793.96021     102002.7      46.7237      46.7237      46.7237 
  319000    109.57843   -7268.2643   -6699.9238   -635.09846     102002.7      46.7237      46.7237      46.7237 
  320000    111.74701   -7245.1633   -6665.5752   -625.21552     102002.7      46.7237      46.7237      46.7237 
  321000     113.1493   -7258.8004   -6671.9392   -648.05049     102002.7      46.7237      46.7237      46.7237 
  322000    107.58872   -7250.4741   -6692.4534   -635.26022     102002.7      46.7237      46.7237      46.7237 
  323000    108.86139   -7273.2134   -6708.5919   -877.59261     102002.7      46.7237      46.7237      46.7237 
  324000     113.6286   -7263.3334   -6673.9862   -721.72431     102002.7      46.7237      46.7237      46.7237 
  325000    109.54776   -7266.0352   -6697.8538   -722.31453     102002.7      46.7237      46.7237      46.7237 
  326000    109.22218   -7257.8717    -6691.379   -819.30054     102002.7      46.7237      46.7237      46.7237 
  327000    109.37141   -7263.9007   -6696.6339   -858.37664     102002.7      46.7237      46.7237      46.7237 
  328000    110.49986   -7243.6331   -6670.5135     -593.847     102002.7      46.7237      46.7237      46.7237 
  329000    108.66428   -7262.9305   -6699.3313   -815.79588     102002.7      46.7237      46.7237      46.7237 
  330000    109.43448   -7246.0717   -6678.4778   -982.61722     102002.7      46.7237      46.7237      46.7237 
  331000    106.69808   -7267.4537   -6714.0525    -681.9686     102002.7      46.7237      46.7237      46.7237 
  332000    110.14365   -7270.5737   -6699.3016   -675.11073     102002.7      46.7237      46.7237      46.7237 
  333000    109.87043   -7257.5666   -6687.7115   -606.08241     102002.7      46.7237      46.7237      46.7237 
  334000    108.35566   -7256.1094   -6694.1109   -880.20942     102002.7      46.7237      46.7237      46.7237 
  335000    115.35655   -7262.4312   -6664.1218   -869.28755     102002.7      46.7237      46.7237      46.7237 
  336000    109.09505   -7260.6782   -6694.8447   -547.09246     102002.7      46.7237      46.7237      46.7237 
  337000    108.58791   -7264.2565   -6701.0534   -776.13949     102002.7      46.7237      46.7237      46.7237 
  338000    114.09265   -7258.9267   -6667.1726   -515.07019     102002.7      46.7237      46.7237      46.7237 
  339000    111.57349   -7260.3618   -6681.6736   -506.55642     102002.7      46.7237      46.7237      46.7237 
  340000    106.41416   -7264.4121   -6712.4833      -847.28     102002.7      46.7237      46.7237      46.7237 
  341000    109.45714    -7257.642   -6689.9306   -697.69624     102002.7      46.7237      46.7237      46.7237 
  342000    114.88261   -7257.1071   -6661.2559   -1030.3121     102002.7      46.7237      46.7237      46.7237 
  343000    113.05674   -7280.4295   -6694.0483   -370.23575     102002.7      46.7237      46.7237      46.7237 
  344000    111.70986   -7251.6642   -6672.2688   -659.81721     102002.7      46.7237      46.7237      46.7237 
  345000    110.53992   -7259.2892   -6685.9619   -799.81522     102002.7      46.7237      46.7237      46.7237 
  346000    108.92081   -7253.1342   -6688.2044   -433.16056     102002.7      46.7237      46.7237      46.7237 
  347000    113.11185   -7261.0429   -6674.3759   -956.72068     102002.7      46.7237      46.7237      46.7237 
  348000    108.73819   -7264.8783   -6700.8958   -758.57583     102002.7      46.7237      46.7237      46.7237 
  349000    109.39748   -7250.9948   -6683.5928   -896.66606     102002.7      46.7237      46.7237      46.7237 
  350000    111.55457   -7240.7517   -6662.1617   -556.76291     102002.7      46.7237      46.7237      46.7237 
  351000    108.47874   -7260.2956   -6697.6588   -828.06681     102002.7      46.7237      46.7237      46.7237 
  352000    113.03652   -7254.4118   -6668.1356   -444.12615     102002.7      46.7237      46.7237      46.7237 
  353000    110.45387   -7266.7493   -6693.8682   -855.08483     102002.7      46.7237      46.7237      46.7237 
  354000    110.53261   -7259.8683   -6686.5788   -872.52883     102002.7      46.7237      46.7237      46.7237 
  355000    109.44099   -7242.5585   -6674.9308   -726.46485     102002.7      46.7237      46.7237      46.7237 
  356000     109.2166   -7274.8858    -6708.422    -815.1482     102002.7      46.7237      46.7237      46.7237 
  357000    109.84044   -7248.2222   -6678.5227   -833.23022     102002.7      46.7237      46.7237      46.7237 
  358000    111.43686     -7239.38   -6661.4005   -878.10385     102002.7      46.7237      46.7237      46.7237 
  359000     105.6635   -7256.0073    -6707.972   -611.81264     102002.7      46.7237      46.7237      46.7237 
  360000    110.43553   -7246.7599   -6673.9739   -666.44163     102002.7      46.7237      46.7237      46.7237 
  361000    111.33544   -7257.5204    -6680.067   -946.39028     102002.7      46.7237      46.7237      46.7237 
  362000    110.07554   -7277.2061   -6706.2872   -608.02489     102002.7      46.7237      46.7237      46.7237 
  363000    110.59157   -7239.0504   -6665.4551   -910.58835     102002.7      46.7237      46.7237      46.7237 
  364000     109.7783   -7260.9653   -6691.5881   -939.13598     102002.7      46.7237      46.7237      46.7237 
  365000    110.27604   -7257.3997   -6685.4409   -1043.7842     102002.7      46.7237      46.7237      46.7237 
  366000     110.1118   -7255.2754   -6684.1685   -759.50569     102002.7      46.7237      46.7237      46.7237 
  367000    112.57639   -7265.2866   -6681.3968   -954.22578     102002.7      46.7237      46.7237      46.7237 
  368000    107.69505   -7261.1987   -6702.6265   -449.23512     102002.7      46.7237      46.7237      46.7237 
  369000    110.75414   -7251.5735    -6677.135   -686.75937     102002.7      46.7237      46.7237      46.7237 
  370000    109.57634   -7254.2286   -6685.8989   -452.40227     102002.7      46.7237      46.7237      46.7237 
  371000    109.85942   -7273.0246   -6703.2267   -938.48924     102002.7      46.7237      46.7237      46.7237 
  372000     112.7993   -7278.7178   -6693.6719   -777.62522     102002.7      46.7237      46.7237      46.7237 
  373000    107.34984   -7263.9411   -6707.1594   -674.38301     102002.7      46.7237      46.7237      46.7237 
  374000     108.8306   -7241.9853   -6677.5235   -1090.4533     102002.7      46.7237      46.7237      46.7237 
  375000    107.78995   -7270.7093   -6711.6449   -566.83089     102002.7      46.7237      46.7237      46.7237 
  376000    112.91704   -7261.9971   -6676.3406   -820.03669     102002.7      46.7237      46.7237      46.7237 
  377000    104.24316   -7254.2883   -6713.6197   -977.91232     102002.7      46.7237      46.7237      46.7237 
  378000    107.22191   -7255.8417   -6699.7235   -941.82949     102002.7      46.7237      46.7237      46.7237 
  379000    112.23364   -7234.3711    -6652.259   -879.33565     102002.7      46.7237      46.7237      46.7237 
  380000    108.31727   -7254.5327   -6692.7333   -1084.2597     102002.7      46.7237      46.7237      46.7237 
  381000    107.02928   -7274.4949   -6719.3759    -646.6418     102002.7      46.7237      46.7237      46.7237 
  382000    113.77773   -7270.4108   -6680.2902   -951.00115     102002.7      46.7237      46.7237      46.7237 
  383000    108.07606   -7268.7709   -6708.2226   -623.07604     102002.7      46.7237      46.7237      46.7237 
  384000    111.65671   -7261.2093   -6682.0895    -771.0685     102002.7      46.7237      46.7237      46.7237 
  385000    108.24529   -7274.7419   -6713.3158   -906.68858     102002.7      46.7237      46.7237      46.7237 
  386000    110.66831   -7248.7283    -6674.735   -677.82809     102002.7      46.7237      46.7237      46.7237 
  387000    108.87723   -7255.0818   -6690.3781   -871.85338     102002.7      46.7237      46.7237      46.7237 
  388000    107.72848   -7247.6479   -6688.9023   -583.45481     102002.7      46.7237      46.7237      46.7237 
  389000    109.20691   -7247.1313   -6680.7176   -651.01218     102002.7      46.7237      46.7237      46.7237 
  390000    106.18767   -7264.5992   -6713.8452   -887.01504     102002.7      46.7237      46.7237      46.7237 
  391000    108.27251   -7269.9962   -6708.4289   -743.17841     102002.7      46.7237      46.7237      46.7237 
  392000    111.25572    -7261.809    -6684.769   -661.17982     102002.7      46.7237      46.7237      46.7237 
  393000    108.93799   -7245.5027   -6680.4839   -950.76482     102002.7      46.7237      46.7237      46.7237 
  394000    109.78785   -7258.2326   -6688.8059   -764.81272     102002.7      46.7237      46.7237      46.7237 
  395000    109.89088   -7251.7007   -6681.7395   -894.50775     102002.7      46.7237      46.7237      46.7237 
  396000    110.78168   -7275.0845   -6700.5032   -724.73609     102002.7      46.7237      46.7237      46.7237 
  397000    108.77954   -7257.4847   -6693.2877   -617.52324     102002.7      46.7237      46.7237      46.7237 
  398000    110.50525   -7278.3986    -6705.251   -744.31759     102002.7      46.7237      46.7237      46.7237 
  399000    108.17878   -7261.2526   -6700.1716    -638.1192     102002.7      46.7237      46.7237      46.7237 
  400000    111.33284   -7246.7278   -6669.2879   -638.81604     102002.7      46.7237      46.7237      46.7237 
  401000    113.06583   -7271.1523    -6684.724   -360.69724     102002.7      46.7237      46.7237      46.7237 
  402000    108.85108   -7261.8346   -6697.2666   -560.22586     102002.7      46.7237      46.7237      46.7237 
  403000    108.92361   -7248.8515   -6683.9073   -759.73326     102002.7      46.7237      46.7237      46.7237 
  404000    108.81068   -7263.0059   -6698.6474   -753.74674     102002.7      46.7237      46.7237      46.7237 
  405000    111.03367   -7274.8191   -6698.9309   -955.53629     102002.7      46.7237      46.7237      46.7237 
  406000    110.75245   -7252.8007    -6678.371   -719.76542     102002.7      46.7237      46.7237      46.7237 
  407000    105.57273   -7250.4915   -6702.9269   -967.59555     102002.7      46.7237      46.7237      46.7237 
  408000     111.2219   -7274.2444   -6697.3798   -686.59781     102002.7      46.7237      46.7237      46.7237 
  409000      109.919   -7254.2263   -6684.1194   -673.44009     102002.7      46.7237      46.7237      46.7237 
  410000    111.21902   -7238.7264   -6661.8768   -617.41941     102002.7      46.7237      46.7237      46.7237 
  411000    110.28238   -7263.1856    -6691.194   -808.37998     102002.7      46.7237      46.7237      46.7237 
  412000    108.78665   -7261.5189    -6697.285   -871.29236     102002.7      46.7237      46.7237      46.7237 
  413000    108.99203   -7245.3648   -6680.0657   -673.81316     102002.7      46.7237      46.7237      46.7237 
  414000    110.48364   -7252.0913   -6679.0558   -826.44929     102002.7      46.7237      46.7237      46.7237 
  415000    109.41752   -7269.4106   -6701.9046   -268.82658     102002.7      46.7237      46.7237      46.7237 
  416000     111.6527   -7264.6896   -6685.5907   -462.04406     102002.7      46.7237      46.7237      46.7237 
  417000    109.76372   -7273.3351   -6704.0335   -199.36974     102002.7      46.7237      46.7237      46.7237 
  418000    111.43728   -7258.2091   -6680.2275    -684.7049     102002.7      46.7237      46.7237      46.7237 
  419000    111.81745    -7277.102   -6697.1485   -736.70206     102002.7      46.7237      46.7237      46.7237 
  420000    110.14947    -7268.374   -6697.0717   -538.72406     102002.7      46.7237      46.7237      46.7237 
  421000    110.80911   -7244.3486    -6669.625   -698.29712     102002.7      46.7237      46.7237      46.7237 
  422000    109.86316    -7271.727   -6701.9097   -521.76414     102002.7      46.7237      46.7237      46.7237 
  423000    109.74963   -7273.2915    -6704.063   -819.79871     102002.7      46.7237      46.7237      46.7237 
  424000    111.16959   -7261.1865   -6684.5932   -727.70428     102002.7      46.7237      46.7237      46.7237 
  425000    107.13291   -7267.8714   -6712.2148   -807.40372     102002.7      46.7237      46.7237      46.7237 
  426000    109.50982   -7241.5505   -6673.5659   -902.75207     102002.7      46.7237      46.7237      46.7237 
  427000    109.62639   -7277.4012   -6708.8119   -774.39604     102002.7      46.7237      46.7237      46.7237 
  428000    109.06861   -7262.6933   -6696.9971   -651.13671     102002.7      46.7237      46.7237      46.7237 
  429000    109.35628   -7243.4823    -6676.294   -658.64121     102002.7      46.7237      46.7237      46.7237 
  430000    109.09652   -7248.5055   -6682.6644   -941.96213     102002.7      46.7237      46.7237      46.7237 
  431000    110.05378   -7266.3404   -6695.5344   -862.57388     102002.7      46.7237      46.7237      46.7237 
  432000    111.72714   -7230.7951   -6651.3101   -608.28133     102002.7      46.7237      46.7237      46.7237 
  433000    111.98776   -7258.6295   -6677.7927   -745.06476     102002.7      46.7237      46.7237      46.7237 
  434000    107.01142   -7270.7374   -6715.7109   -830.89056     102002.7      46.7237      46.7237      46.7237 
  435000    112.20787   -7254.4092   -6672.4308   -828.27024     102002.7      46.7237      46.7237      46.7237 
  436000    111.02023   -7264.8149   -6688.9963   -501.78561     102002.7      46.7237      46.7237      46.7237 
  437000    112.82431    -7237.062   -6651.8863   -617.71362     102002.7      46.7237      46.7237      46.7237 
  438000    109.51483   -7258.6114   -6690.6008   -659.49831     102002.7      46.7237      46.7237      46.7237 
  439000     111.6122   -7260.5278   -6681.6389   -740.26572     102002.7      46.7237      46.7237      46.7237 
  440000     108.4665   -7262.3314   -6699.7581   -760.78794     102002.7      46.7237      46.7237      46.7237 
  441000    105.99963    -7242.886   -6693.1073   -842.23992     102002.7      46.7237      46.7237      46.7237 
  442000    113.44766    -7256.911   -6668.5023    -652.0812     102002.7      46.7237      46.7237      46.7237 
  443000    108.54346   -7261.3726   -6698.4001   -767.52904     102002.7      46.7237      46.7237      46.7237 
  444000    111.24954   -7254.4542   -6677.4463   -749.83686     102002.7      46.7237      46.7237      46.7237 
  445000    108.70355    -7230.291   -6666.4882   -976.02722     102002.7      46.7237      46.7237      46.7237 
  446000    110.57997   -7254.6741   -6681.1389   -791.86546     102002.7      46.7237      46.7237      46.7237 
  447000    109.76471   -7271.9919   -6702.6852   -1038.0677     102002.7      46.7237      46.7237      46.7237 
  448000      109.952    -7263.723   -6693.4449   -863.65072     102002.7      46.7237      46.7237      46.7237 
  449000    110.89513    -7281.928   -6706.7582   -1069.7233     102002.7      46.7237      46.7237      46.7237 
  450000    109.08894   -7256.4816   -6690.6799    -835.9328     102002.7      46.7237      46.7237      46.7237 
  451000    107.51207    -7269.943   -6712.3199    -758.4154     102002.7      46.7237      46.7237      46.7237 
  452000    111.92708   -7263.0305   -6682.5085   -581.36266     102002.7      46.7237      46.7237      46.7237 
  453000    110.35455   -7256.1353   -6683.7694   -845.79338     102002.7      46.7237      46.7237      46.7237 
  454000    110.22097   -7255.0653   -6683.3922   -547.79435     102002.7      46.7237      46.7237      46.7237 
  455000    107.81751   -7265.8333    -6706.626   -455.43678     102002.7      46.7237      46.7237      46.7237 
  456000    110.19587   -7245.4819    -6673.939   -619.57466     102002.7      46.7237      46.7237      46.7237 
  457000    109.85762   -7261.0367   -6691.2481    -488.2183     102002.7      46.7237      46.7237      46.7237 
  458000    112.12563   -7246.5657   -6665.0139   -645.84022     102002.7      46.7237      46.7237      46.7237 
  459000     109.9706   -7257.3818   -6687.0072   -592.53258     102002.7      46.7237      46.7237      46.7237 
  460000    110.07102   -7276.5478   -6705.6524   -350.36121     102002.7      46.7237      46.7237      46.7237 
  461000    110.57563   -7246.0093   -6672.4966   -740.83393     102002.7      46.7237      46.7237      46.7237 
  462000    108.33523   -7272.7965    -6710.904     -677.935     102002.7      46.7237      46.7237      46.7237 
  463000    109.38617   -7254.7163   -6687.3729   -875.78001     102002.7      46.7237      46.7237      46.7237 
  464000    107.93895   -7267.7292    -6707.892   -840.55251     102002.7      46.7237      46.7237      46.7237 
  465000    106.41059   -7240.1215   -6688.2113   -924.51171     102002.7      46.7237      46.7237      46.7237 
  466000    110.45651   -7256.3381   -6683.4433   -830.42416     102002.7      46.7237      46.7237      46.7237 
  467000    109.47154     -7276.01   -6708.2238   -518.52499     102002.7      46.7237      46.7237      46.7237 
  468000    109.64899    -7252.571   -6683.8645    -745.6627     102002.7      46.7237      46.7237      46.7237 
  469000    112.35833   -7255.6253   -6672.8665    -643.4323     102002.7      46.7237      46.7237      46.7237 
  470000    109.21007   -7262.5971   -6696.1671   -890.90828     102002.7      46.7237      46.7237      46.7237 
  471000    110.83327   -7247.6318   -6672.7829   -520.47522     102002.7      46.7237      46.7237      46.7237 
  472000    104.91219    -7279.444   -6735.3054   -683.62486     102002.7      46.7237      46.7237      46.7237 
  473000    111.29292   -7261.6135   -6684.3806   -683.15829     102002.7      46.7237      46.7237      46.7237 
  474000     106.3687   -7277.1037   -6725.4108   -765.29949     102002.7      46.7237      46.7237      46.7237 
  475000    113.30235    -7263.995   -6676.3399   -656.80737     102002.7      46.7237      46.7237      46.7237 
  476000    111.23695   -7274.1104   -6697.1678   -768.66361     102002.7      46.7237      46.7237      46.7237 
  477000    112.00323   -7242.6542   -6661.7372   -825.69269     102002.7      46.7237      46.7237      46.7237 
  478000    108.30102   -7252.9376   -6691.2225   -673.14962     102002.7      46.7237      46.7237      46.7237 
  479000    110.76936   -7245.1557   -6670.6383   -813.78527     102002.7      46.7237      46.7237      46.7237 
  480000     108.0779   -7252.6326   -6692.0748   -529.31123     102002.7      46.7237      46.7237      46.7237 
  481000    111.20472    -7254.836   -6678.0605   -989.81861     102002.7      46.7237      46.7237      46.7237 
  482000    108.75136   -7266.0856   -6702.0348   -617.93046     102002.7      46.7237      46.7237      46.7237 
  483000    110.83028   -7261.4562   -6686.6228   -778.79158     102002.7      46.7237      46.7237      46.7237 
  484000    110.42006   -7251.4559   -6678.7502     -556.286     102002.7      46.7237      46.7237      46.7237 
  485000    107.06778   -7254.0528   -6698.7341   -737.17478     102002.7      46.7237      46.7237      46.7237 
  486000    111.25116   -7258.0757   -6681.0594   -589.25939     102002.7      46.7237      46.7237      46.7237 
  487000    105.22651   -7262.2613   -6716.4924   -666.46965     102002.7      46.7237      46.7237      46.7237 
  488000    111.15518   -7270.9026   -6694.3841   -1086.8511     102002.7      46.7237      46.7237      46.7237 
  489000    108.91809   -7249.3807   -6684.4651    -617.6653     102002.7      46.7237      46.7237      46.7237 
  490000    107.44182   -7265.8064   -6708.5476   -888.41838     102002.7      46.7237      46.7237      46.7237 
  491000    112.13528   -7262.8858   -6681.2839   -696.32438     102002.7      46.7237      46.7237      46.7237 
  492000    109.06212   -7254.2979   -6688.6353   -825.67576     102002.7      46.7237      46.7237      46.7237 
  493000    108.57178   -7278.9103   -6715.7908   -820.14401     102002.7      46.7237      46.7237      46.7237 
  494000    109.38673   -7255.7818   -6688.4356   -735.28579     102002.7      46.7237      46.7237      46.7237 
  495000    107.37532   -7269.5764   -6712.6626   -753.73025     102002.7      46.7237      46.7237      46.7237 
  496000    109.41701   -7251.6064   -6684.1031    -570.2059     102002.7      46.7237      46.7237      46.7237 
  497000    112.95578   -7253.3509   -6667.4934   -540.21688     102002.7      46.7237      46.7237      46.7237 
  498000     108.2335   -7252.2566   -6690.8917   -704.11847     102002.7      46.7237      46.7237      46.7237 
  499000    109.53128   -7232.3372   -6664.2412   -665.73619     102002.7      46.7237      46.7237      46.7237 
  500000    109.11845    -7247.196   -6681.2412   -777.83118     102002.7      46.7237      46.7237      46.7237 
  500503    108.79733   -7271.8967   -6707.6075   -899.48567     102002.7      46.7237      46.7237      46.7237 
Loop time of 562.347 on 24 procs for 500000 steps with 1741 atoms

Performance: 76.821 ns/day, 0.312 hours/ns, 889.131 timesteps/s
99.9% CPU use with 24 MPI tasks x no OpenMP threads

MPI task timing breakdown:
Section |  min time  |  avg time  |  max time  |%varavg| %total
---------------------------------------------------------------
Pair    | 176.24     | 273.96     | 353.76     | 336.2 | 48.72
Bond    | 67.349     | 78.295     | 92.96      |  65.2 | 13.92
Neigh   | 1.7441     | 1.7626     | 1.7751     |   0.9 |  0.31
Comm    | 118.43     | 201.17     | 299.31     | 409.5 | 35.77
Output  | 0.35749    | 0.3578     | 0.36203    |   0.1 |  0.06
Modify  | 3.333      | 3.8423     | 4.1063     |  10.5 |  0.68
Other   |            | 2.958      |            |       |  0.53

Nlocal:    72.5417 ave 100 max 54 min
Histogram: 1 3 3 7 4 2 2 0 1 1
Nghost:    1985.67 ave 2154 max 1878 min
Histogram: 7 9 0 0 0 0 0 0 0 8
Neighs:    7636.33 ave 11416 max 5007 min
Histogram: 4 3 6 2 0 2 1 1 3 2

Total # of neighbors = 183272
Ave neighs/atom = 105.268
Ave special neighs/atom = 6.61689
Neighbor list builds = 3326
Dangerous builds = 0
Neighbor list info ...
  update every 1 steps, delay 10 steps, check yes
  max neighbors/atom: 2000, page size: 100000
  master list distance cutoff = 16
  ghost atom cutoff = 16
  binsize = 8, bins = 6 6 6
  3 neighbor lists, perpetual/occasional/extra = 3 0 0
  (1) pair buck6d/coul/gauss/dsf, perpetual, skip from (3)
      attributes: half, newton on
      pair build: skip
      stencil: none
      bin: none
  (2) pair lj/cut, perpetual, skip from (3)
      attributes: half, newton on
      pair build: skip
      stencil: none
      bin: none
  (3) neighbor class addition, perpetual
      attributes: half, newton on
      pair build: half/bin/newton
      stencil: half/bin/3d/newton
      bin: standard
Setting up Verlet run ...
  Unit style    : real
  Current step  : 500503
  Time step     : 1
WARNING: Inconsistent image flags (../domain.cpp:786)
Per MPI rank memory allocation (min/avg/max) = 23.94 | 24.44 | 24.57 Mbytes
Step Time TotEng KinEng PotEng E_mol E_pair Temp Pxx Pyy Pzz Pxy Pxz Pyz Cella Cellb Cellc CellAlpha CellBeta CellGamma Volume Press 
  500503       500000   -6707.6075    564.28925   -7271.8967    4302.4129    -11574.31    108.79733   -1036.3649    -1111.596    -550.4961    185.40006    188.55621   -141.32385      46.7237      46.7237      46.7237           90           90           90     102002.7   -899.48567 
  501000       500497   -6717.4525     558.0645    -7275.517    4287.7314   -11563.248    107.59717   -681.80033   -657.68889   -850.59399   -1.1283413   -84.793869   -66.624997      46.7237      46.7237      46.7237           90           90           90     102002.7   -730.02774 
  502000       501497    -6676.559    581.54354   -7258.1025    4304.4791   -11562.582    112.12403    -863.2442   -692.58069    -675.0645    52.316737   -131.56505   -138.35387      46.7237      46.7237      46.7237           90           90           90     102002.7    -743.6298 
  503000       502497   -6685.8257    571.40502   -7257.2307    4318.3735   -11575.604    110.16928   -1180.0792   -369.10422   -675.46612    135.81074    -18.34992   -214.41291      46.7237      46.7237      46.7237           90           90           90     102002.7   -741.54985 
  504000       503497   -6688.5755    567.18194   -7255.7575    4296.1793   -11551.937    109.35505   -601.21647   -714.60178   -874.70076    267.18859    106.91017   -201.56906      46.7237      46.7237      46.7237           90           90           90     102002.7     -730.173 
  505000       504497   -6700.4768    559.32664   -7259.8035    4303.7589   -11563.562    107.84052    -678.5783   -605.90043   -700.92188    172.25624    102.05248    181.19836      46.7237      46.7237      46.7237           90           90           90     102002.7    -661.8002 
  506000       505497   -6677.3771    570.39185    -7247.769     4319.837   -11567.606    109.97393   -894.23833   -654.94291   -737.84964   -49.880343    150.98971    82.670824      46.7237      46.7237      46.7237           90           90           90     102002.7   -762.34363 
  507000       506497   -6693.6802    568.88788   -7262.5681    4295.9655   -11558.534    109.68396   -1056.0511   -879.03533   -624.90079     88.88485   -122.02053    29.007084      46.7237      46.7237      46.7237           90           90           90     102002.7   -853.32908 
  508000       507497   -6709.2642    560.36777    -7269.632    4291.6271   -11561.259    108.04125    -1278.632   -695.55048   -1052.8201    143.45815   -72.978183   -59.096574      46.7237      46.7237      46.7237           90           90           90     102002.7   -1009.0008 
  509000       508497   -6693.0805    573.32545    -7266.406    4288.0912   -11554.497    110.53954   -372.91289   -1002.3814   -566.74039   -174.94678   -64.297169    169.21567      46.7237      46.7237      46.7237           90           90           90     102002.7    -647.3449 
  510000       509497    -6686.407    573.27765   -7259.6847    4300.5676   -11560.252    110.53033   -1010.2725   -573.73881   -345.09821   -81.220843     83.38186    29.239776      46.7237      46.7237      46.7237           90           90           90     102002.7   -643.03652 
  511000       510497   -6689.2234    566.12064   -7255.3441    4319.5385   -11574.883    109.15043   -878.08276   -440.76925   -688.96908    85.236597   -105.50972   -155.06646      46.7237      46.7237      46.7237           90           90           90     102002.7    -669.2737 
  512000       511497    -6700.553     560.4607   -7261.0137    4298.3859     -11559.4    108.05917    -873.7815   -908.55397   -739.32274    116.07069   -91.647534    33.503285      46.7237      46.7237      46.7237           90           90           90     102002.7   -840.55274 
  513000       512497   -6708.5829    556.56022   -7265.1432    4298.4707   -11563.614    107.30714    -727.4747   -738.47473   -928.47126    98.968863   -9.3599957   -25.189034      46.7237      46.7237      46.7237           90           90           90     102002.7   -798.14023 
  514000       513497    -6693.519    581.96437   -7275.4834     4294.302   -11569.785    112.20517   -1182.8056    -845.9303   -424.39407    27.897195    192.52277    35.788561      46.7237      46.7237      46.7237           90           90           90     102002.7   -817.70998 
  515000       514497   -6678.5581    566.01317   -7244.5712     4327.479    -11572.05    109.12971   -586.92399   -738.80163   -792.52086    184.33888     257.6123    17.956408      46.7237      46.7237      46.7237           90           90           90     102002.7   -706.08216 
  516000       515497   -6703.7107    548.51294   -7252.2236    4316.3515   -11568.575    105.75559   -683.00299   -910.05874   -918.40082    43.783645    323.20025    334.47239      46.7237      46.7237      46.7237           90           90           90     102002.7   -837.15418 
  517000       516497   -6663.6073    572.71075   -7236.3181    4335.3865   -11571.705    110.42103   -875.87899   -839.43095    -412.5838    98.019093    98.518033    95.234884      46.7237      46.7237      46.7237           90           90           90     102002.7   -709.29791 
  518000       517497   -6693.7893    572.74913   -7266.5385    4281.0878   -11547.626    110.42843   -536.02486    -504.2074   -645.97145    17.879075    132.47502   -16.066074      46.7237      46.7237      46.7237           90           90           90     102002.7    -562.0679 
  519000       518497   -6670.6254    574.58226   -7245.2076    4329.9734   -11575.181    110.78186   -849.87972    -419.1856   -389.68229    110.51757    187.56354   -102.35107      46.7237      46.7237      46.7237           90           90           90     102002.7   -552.91587 
  520000       519497   -6684.5936    581.24644   -7265.8401     4290.644   -11556.484    112.06674   -443.36859   -951.54551   -315.53922   -98.364149   -140.85562   -13.098466      46.7237      46.7237      46.7237           90           90           90     102002.7   -570.15111 
  521000       520497   -6700.2253    556.11759   -7256.3429    4304.8973    -11561.24     107.2218   -1101.3703   -733.78112   -570.10813   -16.924439   -74.861957    27.342967      46.7237      46.7237      46.7237           90           90           90     102002.7   -801.75317 
  522000       521497   -6688.3346    578.95817   -7267.2928    4301.3248   -11568.618    111.62556   -473.28586   -760.49548   -950.48973    164.48342    149.69208   -16.073498      46.7237      46.7237      46.7237           90           90           90     102002.7   -728.09036 
  523000       522497    -6667.532    589.67349   -7257.2055    4299.9124   -11557.118    113.69152   -827.03258   -292.18574   -1174.6263    178.95137   -2.7297801   -58.915657      46.7237      46.7237      46.7237           90           90           90     102002.7   -764.61486 
  524000       523497   -6671.7014    578.31427   -7250.0156    4318.8253   -11568.841    111.50141   -1156.7912   -1018.4986   -461.90097    6.0366876    296.29831    94.609627      46.7237      46.7237      46.7237           90           90           90     102002.7   -879.06359 
  525000       524497   -6691.0567     570.2693    -7261.326    4294.8331   -11556.159    109.95031   -537.57644    -581.3056    -1043.893   -21.245369    149.28277    202.66782      46.7237      46.7237      46.7237           90           90           90     102002.7   -720.92503 
  526000       525497   -6642.2933    593.74181   -7236.0351    4329.4251    -11565.46     114.4759   -1180.2592   -695.66864   -885.97107   -35.974895   -22.487019   -84.603821      46.7237      46.7237      46.7237           90           90           90     102002.7   -920.63296 
  527000       526497   -6706.7127    560.90921   -7267.6219     4292.753   -11560.375    108.14564   -928.77736   -714.25416   -475.13952   -202.26619    182.26082    -215.2213      46.7237      46.7237      46.7237           90           90           90     102002.7   -706.05701 
  528000       527497   -6671.2902    566.29349   -7237.5837     4334.451   -11572.035    109.18375   -778.56423   -752.68924   -1026.4749   -76.780114   -100.29095    -66.70384      46.7237      46.7237      46.7237           90           90           90     102002.7   -852.57611 
  529000       528497   -6721.6051    560.51034   -7282.1154    4265.8805   -11547.996    108.06874   -351.28859   -945.49576   -953.48776   -213.95494   -46.447348    166.53725      46.7237      46.7237      46.7237           90           90           90     102002.7    -750.0907 
  530000       529497   -6682.4839     573.2347   -7255.7186    4301.8673   -11557.586    110.52205   -708.45437   -789.02785   -643.52767   -139.62183   -220.04304    94.242135      46.7237      46.7237      46.7237           90           90           90     102002.7   -713.66996 
  531000       530497   -6680.3297    579.72389   -7260.0536    4310.6715   -11570.725    111.77319   -619.66669   -859.08512   -739.75961    -177.1055    -53.26207   -255.30965      46.7237      46.7237      46.7237           90           90           90     102002.7   -739.50381 
  532000       531497   -6698.6483    557.62105   -7256.2693    4315.1392   -11571.409    107.51167    -588.1937   -649.87799   -1054.6849    112.69488   -65.818036   -71.732162      46.7237      46.7237      46.7237           90           90           90     102002.7   -764.25219 
  533000       532497   -6677.2007    581.12933     -7258.33    4303.1203    -11561.45    112.04417   -1004.8155   -619.14062   -514.22507    -163.8964   -265.43702   -33.548113      46.7237      46.7237      46.7237           90           90           90     102002.7   -712.72707 
  534000       533497    -6662.478    586.81182   -7249.2899    4309.0054   -11558.295    113.13977   -121.08823   -272.39341   -665.72135    9.4570718   -26.050381    60.305721      46.7237      46.7237      46.7237           90           90           90     102002.7   -353.06766 
  535000       534497    -6697.795    574.45636   -7272.2513    4300.7757   -11573.027    110.75759    -486.3421   -722.65972   -606.93251   -186.66372   -225.93675    116.77915      46.7237      46.7237      46.7237           90           90           90     102002.7   -605.31144 
  536000       535497   -6704.5076     548.4177   -7252.9253    4327.4403   -11580.366    105.73723   -590.63602   -903.69652   -843.59337   -225.39755   -206.53023   -115.31005      46.7237      46.7237      46.7237           90           90           90     102002.7   -779.30864 
  537000       536497   -6716.5074    547.04734   -7263.5547    4305.6707   -11569.225    105.47302   -759.59135   -638.16931    -639.9256   -372.38796    -140.0779    165.55076      46.7237      46.7237      46.7237           90           90           90     102002.7   -679.22875 
  538000       537497   -6684.3985    571.53124   -7255.9297    4301.5134   -11557.443    110.19361   -820.75876   -1043.1361   -558.03551   -225.23261    -99.78836   -155.42635      46.7237      46.7237      46.7237           90           90           90     102002.7   -807.31013 
  539000       538497   -6700.3579    563.05516   -7263.4131    4311.1133   -11574.526    108.55939   -805.13283   -548.62343   -447.96586    3.2317474   -163.24883   -83.444439      46.7237      46.7237      46.7237           90           90           90     102002.7   -600.57404 
  540000       539497    -6688.399    560.96202    -7249.361    4320.7682   -11570.129    108.15582   -1394.8135   -894.24704   -826.65359    111.61448    83.656671    90.611772      46.7237      46.7237      46.7237           90           90           90     102002.7   -1038.5714 
  541000       540497    -6662.304    586.58897    -7248.893    4312.8815   -11561.774    113.09681   -626.90708   -902.36646    -684.5888   -48.967957    31.886129   -46.923338      46.7237      46.7237      46.7237           90           90           90     102002.7   -737.95411 
  542000       541497   -6688.5688    562.27671   -7250.8455    4307.3367   -11558.182     108.4093   -662.74129   -948.90537    -323.9514   -48.830987    112.37186   -17.022896      46.7237      46.7237      46.7237           90           90           90     102002.7   -645.19936 
  543000       542497   -6685.1848     553.7758   -7238.9606    4318.8925   -11557.853    106.77029   -903.45369   -863.05251   -517.57825   -95.151843    -164.3149    95.988419      46.7237      46.7237      46.7237           90           90           90     102002.7   -761.36148 
  544000       543497   -6689.8121    568.03057   -7257.8426    4299.5646   -11557.407    109.51867   -1053.3429   -192.82662   -2.1207274    246.79569   -16.032227    155.40554      46.7237      46.7237      46.7237           90           90           90     102002.7   -416.09675 
  545000       544497   -6702.3503    571.42853   -7273.7788    4288.3815    -11562.16    110.17381   -780.55269   -342.31316   -327.58829    127.07295    70.677212   -16.511152      46.7237      46.7237      46.7237           90           90           90     102002.7   -483.48471 
  546000       545497   -6652.1839     583.4187   -7235.6026    4320.0861   -11555.689    112.48557   -897.27703   -473.34345   -648.39293    -60.75148   -124.43083    119.72815      46.7237      46.7237      46.7237           90           90           90     102002.7   -673.00447 
  547000       546497   -6681.7068    569.48583   -7251.1926    4316.1322   -11567.325    109.79925   -490.40745   -579.13797   -358.53722    37.689076    343.55536   -162.99228      46.7237      46.7237      46.7237           90           90           90     102002.7   -476.02755 
  548000       547497   -6685.8996    575.45956   -7261.3591    4291.2418   -11552.601    110.95101   -818.72512   -1010.3687   -714.67719   -224.18857   -120.12989    253.57963      46.7237      46.7237      46.7237           90           90           90     102002.7   -847.92367 
  549000       548497   -6687.9914    570.62654   -7258.6179    4306.4187   -11565.037    110.01918   -458.15712   -453.79446   -674.72856   -285.72089   -54.879832    127.12168      46.7237      46.7237      46.7237           90           90           90     102002.7   -528.89338 
  550000       549497   -6696.3332    571.81177   -7268.1449     4301.918   -11570.063     110.2477   -875.62666   -788.57944    -834.7777    79.077689    146.88273    47.619104      46.7237      46.7237      46.7237           90           90           90     102002.7    -832.9946 
  551000       550497   -6695.0148    567.55752   -7262.5723    4292.2815   -11554.854    109.42746   -944.50679   -837.53513   -854.00317    89.465683   -47.891401    223.18695      46.7237      46.7237      46.7237           90           90           90     102002.7    -878.6817 
  552000       551497   -6672.5593    578.43997   -7250.9993    4315.2304    -11566.23    111.52564   -441.37632   -828.31788   -725.33041   -46.079031   -285.76799    140.35763      46.7237      46.7237      46.7237           90           90           90     102002.7   -665.00821 
  553000       552497   -6703.3153    558.85248   -7262.1677    4283.9016   -11546.069     107.7491    -609.5722   -876.94905   -919.29176   -174.79928   -36.409959    241.32506      46.7237      46.7237      46.7237           90           90           90     102002.7   -801.93767 
  554000       553497   -6673.0928    577.00228   -7250.0951    4306.3897   -11556.485    111.24845   -747.93025   -525.67435   -351.65882   -108.01921   -62.907513    26.771166      46.7237      46.7237      46.7237           90           90           90     102002.7   -541.75447 
  555000       554497    -6681.828    569.78336   -7251.6114    4302.7375   -11554.349    109.85661   -766.98293   -822.93943   -964.53897   -175.10789    60.108992   -101.86308      46.7237      46.7237      46.7237           90           90           90     102002.7   -851.48711 
[...]
  936000       935497   -6693.8942     577.2187   -7271.1129    4303.5251   -11574.638    111.29018   -752.51731   -1129.6609    -603.5648    38.262077    22.257633    144.64924      46.7237      46.7237      46.7237           90           90           90     102002.7   -828.58101 
  937000       936497   -6648.4708     586.9921   -7235.4629    4321.4576   -11556.921    113.17453    -826.3662   -401.36051      -718.36    32.733483   -173.79419   -152.81701      46.7237      46.7237      46.7237           90           90           90     102002.7   -648.69557 
  938000       937497    -6692.513    569.12579   -7261.6388    4287.0908    -11548.73    109.72983    -648.1864   -517.33761   -855.68278   -60.550099    90.140085   -137.92555      46.7237      46.7237      46.7237           90           90           90     102002.7   -673.73559 
  939000       938497   -6679.9562     581.7466   -7261.7028    4288.4797   -11550.182    112.16318   -699.84403   -419.35355   -638.26929    -69.51972     232.8373   -85.881085      46.7237      46.7237      46.7237           90           90           90     102002.7   -585.82229 
  940000       939497   -6698.8717    565.57042   -7264.4421    4292.5262   -11556.968    109.04434    42.978241    -735.8362   -1155.3925     225.9072     117.9903   -93.659485      46.7237      46.7237      46.7237           90           90           90     102002.7    -616.0835 
  941000       940497   -6674.0765     581.4391   -7255.5156    4309.4627   -11564.978    112.10389   -874.98644   -624.28575   -906.91924   -108.76028   -125.02312   -112.92757      46.7237      46.7237      46.7237           90           90           90     102002.7   -802.06381 
  942000       941497   -6680.4817    576.10507   -7256.5868    4307.8656   -11564.452    111.07547   -666.94057   -993.90215   -551.34052    31.910706    144.26263   -109.93683      46.7237      46.7237      46.7237           90           90           90     102002.7   -737.39441 
  943000       942497    -6699.464    562.53647   -7262.0005    4296.8225   -11558.823    108.45938    -1010.706   -779.95114   -948.85761    135.81771    218.62962   -99.300196      46.7237      46.7237      46.7237           90           90           90     102002.7   -913.17157 
  944000       943497   -6684.7886    567.81231   -7252.6009    4311.1082   -11563.709    109.47659    -389.6445   -399.06425   -449.50874     213.5405    136.78188   -99.369305      46.7237      46.7237      46.7237           90           90           90     102002.7   -412.73916 
  945000       944497    -6698.437    559.61152   -7258.0486    4303.9033   -11561.952    107.89544   -491.42323   -888.52252   -266.46694   -91.135235   -180.68237   -90.502266      46.7237      46.7237      46.7237           90           90           90     102002.7   -548.80423 
  946000       945497   -6696.4723    561.69952   -7258.1718    4299.8415   -11558.013    108.29802   -919.97465   -491.08159    -728.3666   -207.38659    139.81655   -166.60418      46.7237      46.7237      46.7237           90           90           90     102002.7   -713.14095 
  947000       946497   -6673.4573    564.23102   -7237.6883    4305.6724   -11543.361     108.7861   -1259.1011   -206.43068    -626.0045    11.444622    281.26844    100.12675      46.7237      46.7237      46.7237           90           90           90     102002.7   -697.17877 
  948000       947497   -6698.6885    576.48542   -7275.1739    4300.8122   -11575.986     111.1488   -661.15735   -1003.4655   -836.26828     184.3201    26.693466   -386.49807      46.7237      46.7237      46.7237           90           90           90     102002.7   -833.63037 
  949000       948497   -6703.7683    560.11067    -7263.879    4291.1868   -11555.066    107.99168   -455.99797   -724.84676   -1048.4697    189.95332    223.06947   -210.26679      46.7237      46.7237      46.7237           90           90           90     102002.7    -743.1048 
  950000       949497   -6680.4346     580.6758   -7261.1104    4298.9698    -11560.08    111.95672   -845.77447   -701.51846    -315.1716   -39.445722   -21.825829   -169.19212      46.7237      46.7237      46.7237           90           90           90     102002.7   -620.82151 
  951000       950497    -6697.167    573.09518   -7270.2622    4286.2891   -11556.551    110.49515   -605.44607   -749.64602   -386.78771    72.974085   -80.770456   -522.91278      46.7237      46.7237      46.7237           90           90           90     102002.7    -580.6266 
  952000       951497   -6695.7414    557.86451   -7253.6059    4308.4988   -11562.105    107.55861   -774.03038   -847.88008   -878.24354    342.79448   -231.26008   -230.87594      46.7237      46.7237      46.7237           90           90           90     102002.7   -833.38467 
  953000       952497   -6690.1264    576.36643   -7266.4929    4276.7774    -11543.27    111.12586   -635.21558   -341.65916   -437.98252   -67.285298    103.34957     -20.5859      46.7237      46.7237      46.7237           90           90           90     102002.7   -471.61909 
  954000       953497   -6701.6586    562.44643    -7264.105    4306.5752    -11570.68    108.44202   -862.93436   -434.35352   -52.959037    212.32488   -44.878501   -209.77656      46.7237      46.7237      46.7237           90           90           90     102002.7   -450.08231 
  955000       954497   -6678.4485    579.32366   -7257.7722    4307.2766   -11565.049    111.69602   -922.48394   -954.87367   -1007.7614   -43.158523   -160.29819    -56.71083      46.7237      46.7237      46.7237           90           90           90     102002.7   -961.70635 
  956000       955497   -6685.9411    575.23538   -7261.1765    4297.2848   -11558.461    110.90779   -616.88379   -913.34479   -788.47666   -146.03018   -21.457359   -7.1727918      46.7237      46.7237      46.7237           90           90           90     102002.7   -772.90175 
  957000       956497   -6706.6934    565.29559    -7271.989     4284.117   -11556.106    108.99135   -618.57911   -752.30512   -911.44489    91.629759   -137.26707    269.19128      46.7237      46.7237      46.7237           90           90           90     102002.7   -760.77637 
  958000       957497   -6681.5024    562.27039   -7243.7728    4338.4183   -11582.191    108.40808   -541.11422   -380.04794   -508.14435    69.275882    295.27439   -114.42181      46.7237      46.7237      46.7237           90           90           90     102002.7    -476.4355 
  959000       958497   -6675.9922    566.69507   -7242.6873      4314.87   -11557.557    109.26118   -756.88694   -730.05535   -634.83619   -305.72928   -164.59065    144.53409      46.7237      46.7237      46.7237           90           90           90     102002.7   -707.25949 
  960000       959497   -6695.7728    563.51706   -7259.2899    4290.6631   -11549.953    108.64845   -947.80857   -256.47515   -415.94965     -63.8902   -25.306006    -44.87978      46.7237      46.7237      46.7237           90           90           90     102002.7   -540.07779 
  961000       960497   -6685.9287    568.86876   -7254.7975    4316.4451   -11571.243    109.68028   -720.07378   -478.81817   -294.82986   -69.458248   -1.1270735   -26.188073      46.7237      46.7237      46.7237           90           90           90     102002.7   -497.90727 
  962000       961497   -6661.0728    577.47574   -7238.5485    4320.3626   -11558.911    111.33974   -691.01086   -530.25373   -1091.6315   -78.240297   -150.27494     308.8281      46.7237      46.7237      46.7237           90           90           90     102002.7   -770.96536 
  963000       962497   -6689.4217    577.57477   -7266.9965    4288.1437    -11555.14    111.35883   -608.81376   -663.16423   -555.47006   -107.81217   -25.749685    16.832224      46.7237      46.7237      46.7237           90           90           90     102002.7   -609.14935 
  964000       963497   -6673.5986    572.62087   -7246.2195    4331.7981   -11578.018     110.4037   -658.37052   -735.07379   -367.59023    -77.44363   -81.675011   -55.039226      46.7237      46.7237      46.7237           90           90           90     102002.7   -587.01151 
  965000       964497   -6692.5843    554.41808   -7247.0024    4312.7214   -11559.724    106.89412   -938.63624   -517.63916   -915.52353    -193.1016    35.652839    -55.84753      46.7237      46.7237      46.7237           90           90           90     102002.7   -790.59965 
  966000       965497   -6658.2503    576.23633   -7234.4866    4334.1905   -11568.677    111.10077    -603.1285   -355.26708   -656.29133   -195.95515    46.286957    129.27069      46.7237      46.7237      46.7237           90           90           90     102002.7   -538.22897 
  967000       966497   -6690.1798    561.12189   -7251.3017    4314.5518   -11565.853    108.18665   -517.88416   -415.07563   -528.46068    10.410204    178.86587    225.81898      46.7237      46.7237      46.7237           90           90           90     102002.7   -487.14016 
  968000       967497   -6709.2557    555.29695   -7264.5526    4304.5532   -11569.106    107.06358   -422.08272   -319.40495   -174.77632    261.55802    103.68524   -95.909111      46.7237      46.7237      46.7237           90           90           90     102002.7   -305.42133 
  969000       968497   -6682.5522     567.7645   -7250.3167    4313.4541   -11563.771    109.46737   -548.66497   -443.34077   -542.42924    193.29132    43.751603    228.14996      46.7237      46.7237      46.7237           90           90           90     102002.7   -511.47832 
  970000       969497   -6675.3443    582.03879   -7257.3831    4298.7253   -11556.108    112.21951   -553.02116    24.462291   -261.64732   -150.31772    180.65773   -78.680629      46.7237      46.7237      46.7237           90           90           90     102002.7   -263.40207 
  971000       970497   -6710.1947    564.07996   -7274.2746    4287.7057    -11561.98    108.75698   -886.53638   -872.13744   -658.08081     72.34081   -202.59453   -55.209752      46.7237      46.7237      46.7237           90           90           90     102002.7   -805.58488 
  972000       971497   -6680.5867    571.95909   -7252.5458    4315.4616   -11568.007     110.2761    -1023.523   -875.07506    -715.5257    -87.18327    219.26636    154.15533      46.7237      46.7237      46.7237           90           90           90     102002.7   -871.37459 
  973000       972497   -6714.9147    575.05977   -7289.9745    4267.3039   -11557.278    110.87393   -422.51997   -919.89032   -778.58366    11.724938    -106.4806    80.170011      46.7237      46.7237      46.7237           90           90           90     102002.7   -706.99798 
  974000       973497   -6692.5628    553.75124   -7246.3141    4317.7762    -11564.09    106.76556   -666.93211   -913.42227   -1050.2501    30.858357   -283.21787   -35.203026      46.7237      46.7237      46.7237           90           90           90     102002.7   -876.86816 
  975000       974497   -6702.2051    567.36757   -7269.5727    4288.6188   -11558.191    109.39084   -814.11195   -854.02418    -911.0615     89.45422    143.31552    68.677646      46.7237      46.7237      46.7237           90           90           90     102002.7   -859.73254 
  976000       975497   -6656.4088    591.83253   -7248.2413    4317.2501   -11565.491    114.10779   -792.22609   -620.68985   -1081.3954   -302.73755   -19.504295    165.43053      46.7237      46.7237      46.7237           90           90           90     102002.7    -831.4371 
  977000       976497   -6680.5262    581.55617   -7262.0824    4303.4034   -11565.486    112.12646   -734.27931    -1044.536    -257.1232   -8.9618324   -260.65085    -124.6904      46.7237      46.7237      46.7237           90           90           90     102002.7   -678.64616 
  978000       977497    -6692.701    564.11646   -7256.8174    4316.0214   -11572.839    108.76401   -800.17518   -1122.7095   -627.98023   -28.048938    119.76023   -69.498636      46.7237      46.7237      46.7237           90           90           90     102002.7   -850.28829 
  979000       978497   -6654.4389    588.54504    -7242.984    4328.9181   -11571.902    113.47395   -708.84496    -279.1099   -1091.1747    20.932506   -64.049031   -122.57876      46.7237      46.7237      46.7237           90           90           90     102002.7   -693.04319 
  980000       979497   -6679.3719    566.04916   -7245.4211    4329.0661   -11574.487    109.13665   -888.84724   -370.69733   -973.79968    93.532602   -129.04345     26.91361      46.7237      46.7237      46.7237           90           90           90     102002.7   -744.44808 
  981000       980497   -6729.3921    554.77126   -7284.1634    4275.9538   -11560.117    106.96222   -511.20331   -657.44591   -562.44887     103.1958    107.89167   -263.29663      46.7237      46.7237      46.7237           90           90           90     102002.7    -577.0327 
  982000       981497   -6685.2212    564.87425   -7250.0954    4316.8677   -11566.963    108.91012   -1197.3883   -1057.1026   -576.99994    92.279434    68.023264     72.95196      46.7237      46.7237      46.7237           90           90           90     102002.7    -943.8303 
  983000       982497   -6697.6844    573.70488   -7271.3893    4300.3692   -11571.758     110.6127   -530.89752   -527.91917    -953.6956   -286.25615   -39.189549   -283.93935      46.7237      46.7237      46.7237           90           90           90     102002.7   -670.83743 
  984000       983497   -6682.4255    574.78635   -7257.2119    4301.4577    -11558.67    110.82121   -692.41453   -429.97406   -991.88662    74.564086   -160.95338   -315.07269      46.7237      46.7237      46.7237           90           90           90     102002.7    -704.7584 
  985000       984497   -6696.5096    566.28201   -7262.7917    4288.0005   -11550.792    109.18154   -771.81901   -646.02949   -778.40802    91.539061   -48.137699    97.382772      46.7237      46.7237      46.7237           90           90           90     102002.7   -732.08551 
  986000       985497   -6694.3197    560.24896   -7254.5686    4313.3405   -11567.909    108.01834   -663.11334   -506.27741    -483.1038    21.622754    -13.73147   -93.354414      46.7237      46.7237      46.7237           90           90           90     102002.7   -550.83152 
  987000       986497   -6693.6782    576.46324   -7270.1415    4292.4265   -11562.568    111.14452   -916.61934   -712.34561   -903.80326   -207.88962   -95.185479   -134.31248      46.7237      46.7237      46.7237           90           90           90     102002.7   -844.25607 
  988000       987497   -6670.8483    596.43767   -7267.2859    4304.0903   -11571.376    114.99568    -880.2192   -649.04196   -524.28216    99.325401   -178.10261   -74.301605      46.7237      46.7237      46.7237           90           90           90     102002.7   -684.51444 
  989000       988497   -6711.5535    556.38993   -7267.9435    4300.7014   -11568.645    107.27431   -893.55744   -821.99223   -585.45045    313.35732   -5.4921575   -71.616163      46.7237      46.7237      46.7237           90           90           90     102002.7   -767.00004 
  990000       989497   -6678.3885    564.61243   -7243.0009    4312.9755   -11555.976    108.85964   -555.24008   -666.25343   -1300.1673   -37.406232   -280.32226   -224.70366      46.7237      46.7237      46.7237           90           90           90     102002.7   -840.55361 
  991000       990497   -6698.7157    560.21564   -7258.9313    4317.0645   -11575.996    108.01192   -382.49293   -438.46863   -682.97461    135.93223   -108.51364   -171.86878      46.7237      46.7237      46.7237           90           90           90     102002.7   -501.31206 
  992000       991497   -6677.5885    569.44223   -7247.0308    4324.0145   -11571.045    109.79084   -705.62199   -705.30733   -665.65741   -222.26407   -107.63044     107.2776      46.7237      46.7237      46.7237           90           90           90     102002.7   -692.19558 
  993000       992497   -6701.2613    556.44366   -7257.7049    4317.1829   -11574.888    107.28466     -428.337   -507.71786   -606.53731   -93.738546   -17.731189   -55.213847      46.7237      46.7237      46.7237           90           90           90     102002.7   -514.19739 
  994000       993497   -6679.1762    585.97933   -7265.1555    4296.3298   -11561.485    112.97927   -767.46314   -516.74364   -707.96938   -37.844071    41.504894   -15.113168      46.7237      46.7237      46.7237           90           90           90     102002.7   -664.05872 
  995000       994497   -6701.6471     559.8113   -7261.4584    4291.6323   -11553.091    107.93396   -821.74583   -752.76805   -659.63417   -235.82234   -209.67939   -208.41949      46.7237      46.7237      46.7237           90           90           90     102002.7   -744.71602 
  996000       995497    -6690.228    565.72063   -7255.9486    4312.1545   -11568.103     109.0733   -745.54199   -356.45996   -590.40748    73.984553   -157.01476   -136.39857      46.7237      46.7237      46.7237           90           90           90     102002.7   -564.13648 
  997000       996497   -6687.8113    556.51558   -7244.3269    4312.1531    -11556.48    107.29853   -963.11991   -382.34932   -416.39724    -101.1163   -5.1555337   -87.452667      46.7237      46.7237      46.7237           90           90           90     102002.7   -587.28883 
  998000       997497   -6722.3505    553.07178   -7275.4223    4300.4311   -11575.853    106.63455   -552.27089   -472.47588   -588.29962    58.384139    -62.38449     42.19836      46.7237      46.7237      46.7237           90           90           90     102002.7   -537.68213 
  999000       998497   -6683.1269    565.56313     -7248.69    4327.8147   -11576.505    109.04294    -795.8882   -1061.3762   -488.30246   -107.00972   -24.696554   -160.62377      46.7237      46.7237      46.7237           90           90           90     102002.7   -781.85562 
 1000000       999497   -6689.9295     567.4777   -7257.4072    4331.9351   -11589.342    109.41207   -593.69832   -547.93287    -1060.876    12.296564    112.56161    36.318816      46.7237      46.7237      46.7237           90           90           90     102002.7   -734.16905 
 1000503      1000000   -6669.6758    579.59065   -7249.2664    4302.2049   -11551.471     111.7475   -729.33086   -252.52751   -623.42492    98.545259   -17.862316   -35.629927      46.7237      46.7237      46.7237           90           90           90     102002.7   -535.09443 
Loop time of 633.682 on 24 procs for 500000 steps with 1741 atoms

Performance: 68.173 ns/day, 0.352 hours/ns, 789.039 timesteps/s
99.9% CPU use with 24 MPI tasks x no OpenMP threads

MPI task timing breakdown:
Section |  min time  |  avg time  |  max time  |%varavg| %total
---------------------------------------------------------------
Pair    | 198.73     | 305.02     | 440.44     | 353.1 | 48.13
Bond    | 68.441     | 82.342     | 99.95      |  84.6 | 12.99
Neigh   | 1.7696     | 1.7938     | 1.8083     |   1.1 |  0.28
Comm    | 81.791     | 229.29     | 345.29     | 427.0 | 36.18
Output  | 0.34989    | 0.3921     | 0.39404    |   1.4 |  0.06
Modify  | 11.553     | 11.856     | 12.195     |   4.6 |  1.87
Other   |            | 2.99       |            |       |  0.47

Nlocal:    72.5417 ave 112 max 38 min
Histogram: 1 0 4 2 8 4 3 1 0 1
Nghost:    1982.21 ave 2142 max 1868 min
Histogram: 3 10 3 0 0 0 0 0 1 7
Neighs:    7637.38 ave 14032 max 4192 min
Histogram: 2 3 8 4 2 1 2 1 0 1

Total # of neighbors = 183297
Ave neighs/atom = 105.283
Ave special neighs/atom = 6.61689
Neighbor list builds = 3364
Dangerous builds = 0
Total wall time: 0:19:57
