LAMMPS (30 Mar 2018)
Reading data file ...
  orthogonal box = (0 0 0) to (46.7237 46.7237 46.7237)
  2 by 2 by 4 MPI processor grid
  reading atoms ...
  1814 atoms
  scanning bonds ...
  5 = max bonds/atom
  scanning angles ...
  10 = max angles/atom
  scanning dihedrals ...
  32 = max dihedrals/atom
  scanning impropers ...
  3 = max impropers/atom
  reading bonds ...
  2064 bonds
  reading angles ...
  3696 angles
  reading dihedrals ...
  6240 dihedrals
  reading impropers ...
  1008 impropers
Finding 1-2 1-3 1-4 neighbors ...
  special bond factors lj:   0          0          0         
  special bond factors coul: 0          0          0         
  5 = max # of 1-2 neighbors
  8 = max # of 1-3 neighbors
  20 = max # of 1-4 neighbors
  19 = max # of special neighbors
Finding 1-2 1-3 1-4 neighbors ...
  special bond factors lj:   0          0          1         
  special bond factors coul: 1          1          1         
  5 = max # of 1-2 neighbors
  8 = max # of 1-3 neighbors
  19 = max # of special neighbors
WARNING: Using 'neigh_modify every 1 delay 0 check yes' setting during minimization (../min.cpp:168)
Neighbor list info ...
  update every 1 steps, delay 0 steps, check yes
  max neighbors/atom: 2000, page size: 100000
  master list distance cutoff = 16
  ghost atom cutoff = 16
  binsize = 8, bins = 6 6 6
  3 neighbor lists, perpetual/occasional/extra = 3 0 0
  (1) pair buck6d/coul/gauss/dsf, perpetual, skip from (3)
      attributes: half, newton on
      pair build: skip
      stencil: none
      bin: none
  (2) pair lj/cut, perpetual, skip from (3)
      attributes: half, newton on
      pair build: skip
      stencil: none
      bin: none
  (3) neighbor class addition, perpetual
      attributes: half, newton on
      pair build: half/bin/newton
      stencil: half/bin/3d/newton
      bin: standard
Setting up cg style minimization ...
  Unit style    : real
  Current step  : 0
WARNING: Inconsistent image flags (../domain.cpp:786)
Per MPI rank memory allocation (min/avg/max) = 22.9 | 23.35 | 23.8 Mbytes
Step Temp E_pair E_mol TotEng Press 
       0            0   -11748.732    6482.8914   -5265.8409    6190.8306 
     502            0   -11793.314    3722.0347   -8071.2795   -526.26132 
Loop time of 2.87761 on 16 procs for 502 steps with 1814 atoms

99.9% CPU use with 16 MPI tasks x no OpenMP threads

Minimization stats:
  Stopping criterion = max force evaluations
  Energy initial, next-to-last, final = 
        -5265.84093003     -8071.26923482     -8071.27953829
  Force two-norm initial, final = 2576.48 4.70976
  Force max component initial, final = 152.007 0.662366
  Final line search alpha, max atom move = 0.0107529 0.00712234
  Iterations, force evaluations = 502 1001

MPI task timing breakdown:
Section |  min time  |  avg time  |  max time  |%varavg| %total
---------------------------------------------------------------
Pair    | 1.0904     | 1.6385     | 2.1099     |  23.5 | 56.94
Bond    | 0.3141     | 0.36098    | 0.44439    |   5.7 | 12.54
Neigh   | 0.01682    | 0.016993   | 0.01718    |   0.1 |  0.59
Comm    | 0.34061    | 0.82214    | 1.4014     |  35.1 | 28.57
Output  | 0          | 0          | 0          |   0.0 |  0.00
Modify  | 0          | 0          | 0          |   0.0 |  0.00
Other   |            | 0.03902    |            |       |  1.36

Nlocal:    113.375 ave 131 max 95 min
Histogram: 2 1 0 2 1 4 2 1 2 1
Nghost:    2265.12 ave 2285 max 2246 min
Histogram: 1 2 2 1 3 2 0 2 2 1
Neighs:    11455 ave 15197 max 7256 min
Histogram: 1 4 1 1 1 1 0 2 0 5

Total # of neighbors = 183280
Ave neighs/atom = 101.036
Ave special neighs/atom = 6.35061
Neighbor list builds = 13
Dangerous builds = 0
Neighbor list info ...
  update every 1 steps, delay 10 steps, check yes
  max neighbors/atom: 2000, page size: 100000
  master list distance cutoff = 16
  ghost atom cutoff = 16
  binsize = 8, bins = 6 6 6
  3 neighbor lists, perpetual/occasional/extra = 3 0 0
  (1) pair buck6d/coul/gauss/dsf, perpetual, skip from (3)
      attributes: half, newton on
      pair build: skip
      stencil: none
      bin: none
  (2) pair lj/cut, perpetual, skip from (3)
      attributes: half, newton on
      pair build: skip
      stencil: none
      bin: none
  (3) neighbor class addition, perpetual
      attributes: half, newton on
      pair build: half/bin/newton
      stencil: half/bin/3d/newton
      bin: standard
Setting up Verlet run ...
  Unit style    : real
  Current step  : 502
  Time step     : 1
WARNING: Inconsistent image flags (../domain.cpp:786)
Per MPI rank memory allocation (min/avg/max) = 22.54 | 22.64 | 22.73 Mbytes
Step Temp PotEng TotEng Press Volume Lx Ly Lz 
     502          130   -8071.2795   -7368.7324   -211.41645     102002.7      46.7237      46.7237      46.7237 
    1000    115.81237   -7456.3064   -6830.4322   -607.55535     102002.7      46.7237      46.7237      46.7237 
    2000    132.95724   -7344.2164   -6625.6878   -662.83247     102002.7      46.7237      46.7237      46.7237 
    3000     126.4306   -7330.7683    -6647.511   -1128.6957     102002.7      46.7237      46.7237      46.7237 
    4000     132.4824   -7373.5913   -6657.6287   -708.17187     102002.7      46.7237      46.7237      46.7237 
    5000    130.55581   -7337.6743   -6632.1234   -742.12142     102002.7      46.7237      46.7237      46.7237 
    6000    131.49698   -7357.3913   -6646.7541   -845.36353     102002.7      46.7237      46.7237      46.7237 
    7000    128.26023   -7357.3728   -6664.2278   -437.41971     102002.7      46.7237      46.7237      46.7237 
    8000    129.82924   -7370.8137   -6669.1894    -975.4373     102002.7      46.7237      46.7237      46.7237 
    9000    133.79121   -7356.4445   -6633.4089   -621.32221     102002.7      46.7237      46.7237      46.7237 
   10000     131.3391   -7353.2736   -6643.4897   -844.56894     102002.7      46.7237      46.7237      46.7237 
   11000    128.63967   -7340.3396    -6645.144   -727.56139     102002.7      46.7237      46.7237      46.7237 
   12000    126.20757   -7347.9163   -6665.8642   -931.80643     102002.7      46.7237      46.7237      46.7237 
   13000    130.82553   -7349.0319   -6642.0235   -752.10045     102002.7      46.7237      46.7237      46.7237 
   14000    129.42243   -7353.8569    -6654.431   -926.77895     102002.7      46.7237      46.7237      46.7237 
   15000    128.70975   -7356.1262   -6660.5518   -768.44253     102002.7      46.7237      46.7237      46.7237 
   16000    127.14108   -7314.2926   -6627.1956    -854.7665     102002.7      46.7237      46.7237      46.7237 
   17000    133.44524   -7352.4287   -6631.2628   -1175.1791     102002.7      46.7237      46.7237      46.7237 
   18000    129.84761    -7343.199   -6641.4755   -711.60252     102002.7      46.7237      46.7237      46.7237 
   19000    127.42386   -7360.2712   -6671.6461   -816.99509     102002.7      46.7237      46.7237      46.7237 
   20000     128.9582   -7319.8235   -6622.9065   -1004.5807     102002.7      46.7237      46.7237      46.7237 
   21000    126.89868    -7325.822   -6640.0351   -838.45308     102002.7      46.7237      46.7237      46.7237 
   22000    128.82117   -7366.8612   -6670.6847   -852.29622     102002.7      46.7237      46.7237      46.7237 
   23000     130.6369   -7335.1521   -6629.1631   -962.55516     102002.7      46.7237      46.7237      46.7237 
   24000    135.09594   -7353.5015   -6623.4148     -846.844     102002.7      46.7237      46.7237      46.7237 
   25000    127.43346   -7347.2376   -6658.5607   -581.79976     102002.7      46.7237      46.7237      46.7237 
   26000    129.13212   -7347.3696   -6649.5126   -711.63682     102002.7      46.7237      46.7237      46.7237 
   27000    129.57882   -7351.3384   -6651.0674   -418.67278     102002.7      46.7237      46.7237      46.7237 
   28000    136.91018   -7343.4286   -6603.5375   -486.58938     102002.7      46.7237      46.7237      46.7237 
   29000    128.64987   -7356.3303   -6661.0796   -561.54884     102002.7      46.7237      46.7237      46.7237 
   30000    132.30846   -7328.9225      -6613.9   -541.72869     102002.7      46.7237      46.7237      46.7237 
   31000     128.1388   -7316.6149   -6624.1261   -297.96352     102002.7      46.7237      46.7237      46.7237 
   32000    129.24121    -7369.486   -6671.0395   -1055.4786     102002.7      46.7237      46.7237      46.7237 
   33000      131.179    -7337.765   -6628.8464    -659.2282     102002.7      46.7237      46.7237      46.7237 
   34000    130.10242   -7357.2584   -6654.1578   -495.46625     102002.7      46.7237      46.7237      46.7237 
   35000    137.15818   -7338.1655   -6596.9341   -814.56413     102002.7      46.7237      46.7237      46.7237 
   36000    128.24264   -7352.5419    -6659.492   -750.32064     102002.7      46.7237      46.7237      46.7237 
   37000    129.22557   -7339.9544   -6641.5925   -717.44612     102002.7      46.7237      46.7237      46.7237 
   38000     130.9287   -7335.4144   -6627.8484   -479.57129     102002.7      46.7237      46.7237      46.7237 
   39000    127.18855    -7347.129   -6659.7755   -697.50824     102002.7      46.7237      46.7237      46.7237 
   40000    127.51392   -7355.1054   -6665.9936   -723.04571     102002.7      46.7237      46.7237      46.7237 
   41000    128.98681   -7332.9152   -6635.8436   -532.58435     102002.7      46.7237      46.7237      46.7237 
   42000    135.90228   -7351.2041   -6616.7598   -830.37293     102002.7      46.7237      46.7237      46.7237 
   43000    130.07887   -7343.9314   -6640.9581   -844.55169     102002.7      46.7237      46.7237      46.7237 
   44000    127.25075   -7349.6368   -6661.9472   -653.82497     102002.7      46.7237      46.7237      46.7237 
   45000    128.94423   -7340.8092   -6643.9676   -544.72238     102002.7      46.7237      46.7237      46.7237 
   46000    133.52283   -7350.1177   -6628.5324   -914.64194     102002.7      46.7237      46.7237      46.7237 
   47000    130.41499   -7366.1744   -6661.3846   -959.45861     102002.7      46.7237      46.7237      46.7237 
   48000    126.34911   -7348.5661   -6665.7491   -816.62266     102002.7      46.7237      46.7237      46.7237 
   49000    126.98618   -7335.1021   -6648.8423   -756.82562     102002.7      46.7237      46.7237      46.7237 
   50000    127.91312   -7330.9575   -6639.6882    -611.6064     102002.7      46.7237      46.7237      46.7237 
   51000    130.24163   -7352.5242   -6648.6712   -780.32682     102002.7      46.7237      46.7237      46.7237 
   52000    129.66202   -7328.9552   -6628.2346   -820.09033     102002.7      46.7237      46.7237      46.7237 
   53000    129.82131   -7372.5696   -6670.9882   -351.42581     102002.7      46.7237      46.7237      46.7237 
   54000    133.95088   -7346.0919   -6622.1934   -740.09558     102002.7      46.7237      46.7237      46.7237 
   55000    131.12535   -7363.9738   -6655.3451   -784.71735     102002.7      46.7237      46.7237      46.7237 
   56000    132.64779   -7325.9304    -6609.074   -714.30898     102002.7      46.7237      46.7237      46.7237 
   57000    130.59729   -7331.6321   -6625.8571   -621.24951     102002.7      46.7237      46.7237      46.7237 
   58000    128.65428   -7354.7545   -6659.4799   -857.60264     102002.7      46.7237      46.7237      46.7237 
   59000    134.41479   -7336.8407   -6610.4352   -473.19811     102002.7      46.7237      46.7237      46.7237 
   60000    127.78372   -7334.7066   -6644.1367   -770.59998     102002.7      46.7237      46.7237      46.7237 
   61000    128.68609   -7331.1201   -6635.6736   -537.72388     102002.7      46.7237      46.7237      46.7237 
   62000    128.80667   -7361.4703   -6665.3722   -674.45328     102002.7      46.7237      46.7237      46.7237 
   63000    126.58689   -7343.4101   -6659.3081   -707.56351     102002.7      46.7237      46.7237      46.7237 
   64000    129.49609   -7344.4256   -6644.6016   -667.34984     102002.7      46.7237      46.7237      46.7237 
   65000      131.214   -7344.4481   -6635.3402   -684.95122     102002.7      46.7237      46.7237      46.7237 
   66000    125.74826   -7356.7432   -6677.1734   -618.48763     102002.7      46.7237      46.7237      46.7237 
   67000    127.40822    -7325.851   -6637.3103   -675.36856     102002.7      46.7237      46.7237      46.7237 
   68000    130.21704   -7328.6971   -6624.9771   -602.85781     102002.7      46.7237      46.7237      46.7237 
   69000    126.66746   -7343.4248   -6658.8874   -883.29332     102002.7      46.7237      46.7237      46.7237 
   70000    130.30423   -7353.2566   -6649.0654   -787.92414     102002.7      46.7237      46.7237      46.7237 
   71000    133.50758   -7338.7902   -6617.2875    -650.0762     102002.7      46.7237      46.7237      46.7237 
   72000    127.10629   -7326.2236   -6639.3147   -866.28222     102002.7      46.7237      46.7237      46.7237 
   73000    128.02464   -7368.0954   -6676.2235   -925.56057     102002.7      46.7237      46.7237      46.7237 
   74000    126.78843   -7339.7753   -6654.5842   -1063.5023     102002.7      46.7237      46.7237      46.7237 
   75000    129.79207    -7361.919   -6660.4956   -665.64785     102002.7      46.7237      46.7237      46.7237 
   76000     129.1667   -7336.9376   -6638.8938   -573.95263     102002.7      46.7237      46.7237      46.7237 
   77000    126.89086   -7338.3697    -6652.625   -778.53304     102002.7      46.7237      46.7237      46.7237 
   78000    132.20894    -7369.995   -6655.5103   -604.57059     102002.7      46.7237      46.7237      46.7237 
   79000    133.56046   -7342.3666    -6620.578   -422.47824     102002.7      46.7237      46.7237      46.7237 
   80000    131.59329   -7347.1606    -6636.003   -605.35745     102002.7      46.7237      46.7237      46.7237 
   81000    134.22023   -7347.9995   -6622.6454   -539.75501     102002.7      46.7237      46.7237      46.7237 
   82000    132.52985   -7325.5175   -6609.2986   -623.34967     102002.7      46.7237      46.7237      46.7237 
   83000    130.63224   -7340.3117   -6634.3478   -886.87217     102002.7      46.7237      46.7237      46.7237 
   84000    133.43215   -7336.3068   -6615.2117   -774.13879     102002.7      46.7237      46.7237      46.7237 
   85000    127.35059   -7328.6903   -6640.4612   -979.73445     102002.7      46.7237      46.7237      46.7237 
   86000    130.55026   -7321.8828    -6616.362   -1136.2838     102002.7      46.7237      46.7237      46.7237 
   87000    128.52051   -7330.5179   -6635.9663   -674.12467     102002.7      46.7237      46.7237      46.7237 
   88000     128.0803    -7355.198   -6663.0254   -684.44761     102002.7      46.7237      46.7237      46.7237 
   89000    130.60624   -7367.8752   -6662.0519   -842.40215     102002.7      46.7237      46.7237      46.7237 
   90000    133.02763   -7357.8575   -6638.9484   -568.82284     102002.7      46.7237      46.7237      46.7237 
   91000    128.99041   -7345.0067   -6647.9157   -865.52116     102002.7      46.7237      46.7237      46.7237 
   92000    131.24459   -7378.5481   -6669.2749   -894.54352     102002.7      46.7237      46.7237      46.7237 
   93000    129.46023   -7335.2986   -6635.6685   -783.04841     102002.7      46.7237      46.7237      46.7237 
   94000    134.99752   -7332.2756   -6602.7208   -407.09522     102002.7      46.7237      46.7237      46.7237 
   95000    132.95047   -7361.4017   -6642.9096   -847.60198     102002.7      46.7237      46.7237      46.7237 
   96000    131.88111   -7330.3795   -6617.6664   -451.45774     102002.7      46.7237      46.7237      46.7237 
   97000    127.75904   -7328.8306   -6638.3941    -745.3875     102002.7      46.7237      46.7237      46.7237 
   98000     129.2075   -7344.1025   -6645.8383   -716.07204     102002.7      46.7237      46.7237      46.7237 
   99000    130.85721   -7376.8623   -6669.6827   -625.07259     102002.7      46.7237      46.7237      46.7237 
  100000    131.38564   -7331.0993   -6621.0639   -553.56378     102002.7      46.7237      46.7237      46.7237 
  101000    129.51339   -7337.7779   -6637.8606    -482.6914     102002.7      46.7237      46.7237      46.7237 
  102000    133.92512   -7378.1766   -6654.4174   -663.88133     102002.7      46.7237      46.7237      46.7237 
  103000     129.7495   -7340.3609   -6639.1675     -773.942     102002.7      46.7237      46.7237      46.7237 
  104000    128.34917   -7336.8232   -6643.1975   -517.02788     102002.7      46.7237      46.7237      46.7237 
  105000     130.1025   -7351.3147   -6648.2137   -694.92774     102002.7      46.7237      46.7237      46.7237 
  106000    131.82856   -7326.5579   -6614.1289   -817.10909     102002.7      46.7237      46.7237      46.7237 
  107000    131.57485   -7344.9563   -6633.8983   -472.70883     102002.7      46.7237      46.7237      46.7237 
  108000     130.2714   -7358.5761   -6654.5622    -743.7323     102002.7      46.7237      46.7237      46.7237 
  109000    129.05864   -7348.3125   -6650.8527   -659.73339     102002.7      46.7237      46.7237      46.7237 
  110000    130.24979   -7348.4429   -6644.5459   -775.25357     102002.7      46.7237      46.7237      46.7237 
  111000    128.90702   -7328.7854   -6632.1449   -890.89333     102002.7      46.7237      46.7237      46.7237 
  112000    128.08135   -7325.4456   -6633.2673   -794.50134     102002.7      46.7237      46.7237      46.7237 
  113000    130.86164   -7328.1425   -6620.9389   -573.37599     102002.7      46.7237      46.7237      46.7237 
  114000    129.94906     -7333.94   -6631.6682   -974.99991     102002.7      46.7237      46.7237      46.7237 
  115000    124.49614   -7358.4801    -6685.677   -603.27202     102002.7      46.7237      46.7237      46.7237 
  116000    130.79863   -7349.4408   -6642.5777   -624.62488     102002.7      46.7237      46.7237      46.7237 
  117000    128.42187   -7320.8707   -6626.8521   -1104.8707     102002.7      46.7237      46.7237      46.7237 
  118000    131.66707   -7362.7822   -6651.2259   -572.51386     102002.7      46.7237      46.7237      46.7237 
  119000    129.68262   -7341.9306   -6641.0987   -803.15678     102002.7      46.7237      46.7237      46.7237 
  120000    133.58483   -7335.3769   -6613.4566   -423.96043     102002.7      46.7237      46.7237      46.7237 
  121000    131.78764   -7346.7405   -6634.5326   -537.20235     102002.7      46.7237      46.7237      46.7237 
  122000    127.15248   -7344.8774   -6657.7188    -692.6953     102002.7      46.7237      46.7237      46.7237 
  123000     131.9731   -7331.9922   -6618.7821   -758.14634     102002.7      46.7237      46.7237      46.7237 
  124000    129.05974   -7355.7329   -6658.2672   -956.16658     102002.7      46.7237      46.7237      46.7237 
  125000    130.16827   -7350.7605    -6647.304   -540.75489     102002.7      46.7237      46.7237      46.7237 
  126000    132.00072   -7336.6514   -6623.2919   -864.66632     102002.7      46.7237      46.7237      46.7237 
  127000    126.47799   -7348.8335     -6665.32   -684.19593     102002.7      46.7237      46.7237      46.7237 
  128000    131.99148   -7342.4496   -6629.1401   -664.12083     102002.7      46.7237      46.7237      46.7237 
  129000    128.69948   -7350.2365   -6654.7177   -692.01825     102002.7      46.7237      46.7237      46.7237 
  130000    131.97944   -7334.6386   -6621.3942    -620.9074     102002.7      46.7237      46.7237      46.7237 
  131000    129.13392   -7350.1369   -6652.2703   -1052.9486     102002.7      46.7237      46.7237      46.7237 
  132000    128.80096   -7349.6029   -6653.5356   -616.87133     102002.7      46.7237      46.7237      46.7237 
  133000    128.34224   -7356.3321   -6662.7439   -772.43392     102002.7      46.7237      46.7237      46.7237 
  134000    127.77478    -7326.813   -6636.2914    -858.8231     102002.7      46.7237      46.7237      46.7237 
  135000    132.28712   -7349.9998   -6635.0926   -677.98802     102002.7      46.7237      46.7237      46.7237 
  136000    125.26527   -7337.9161   -6660.9564   -823.85981     102002.7      46.7237      46.7237      46.7237 
  137000    131.36501    -7339.895   -6629.9711   -524.43387     102002.7      46.7237      46.7237      46.7237 
  138000    126.86698   -7331.7369   -6646.1213   -452.15346     102002.7      46.7237      46.7237      46.7237 
  139000    130.13542   -7344.8958   -6641.6168   -614.38464     102002.7      46.7237      46.7237      46.7237 
  140000     130.5538   -7339.8771   -6634.3372   -587.80751     102002.7      46.7237      46.7237      46.7237 
  141000     126.1964   -7346.6237   -6664.6321    -910.1571     102002.7      46.7237      46.7237      46.7237 
  142000    131.35526   -7348.1296   -6638.2584   -420.51956     102002.7      46.7237      46.7237      46.7237 
  143000    130.70383   -7356.2881   -6649.9373   -635.15571     102002.7      46.7237      46.7237      46.7237 
  144000    129.60742    -7321.038   -6620.6125   -534.38692     102002.7      46.7237      46.7237      46.7237 
  145000    131.16826   -7371.8954   -6663.0347   -517.25679     102002.7      46.7237      46.7237      46.7237 
  146000     129.3613   -7342.7326   -6643.6372   -562.29067     102002.7      46.7237      46.7237      46.7237 
  147000    130.80585   -7343.7478   -6636.8457   -681.77312     102002.7      46.7237      46.7237      46.7237 
  148000    131.84783   -7352.7726   -6640.2394   -361.81632     102002.7      46.7237      46.7237      46.7237 
  149000    132.25957    -7362.106   -6647.3477   -616.04198     102002.7      46.7237      46.7237      46.7237 
  150000    129.97053   -7326.8681   -6624.4802   -749.24187     102002.7      46.7237      46.7237      46.7237 
  151000    126.80131   -7333.2934   -6648.0326   -699.37574     102002.7      46.7237      46.7237      46.7237 
  152000    129.07431   -7335.8717   -6638.3272   -591.33936     102002.7      46.7237      46.7237      46.7237 
  153000    125.64486     -7336.76    -6657.749   -887.53192     102002.7      46.7237      46.7237      46.7237 
  154000    125.87215   -7307.4204   -6627.1811   -819.94101     102002.7      46.7237      46.7237      46.7237 
  155000    131.61954   -7355.2321   -6643.9327    -664.5215     102002.7      46.7237      46.7237      46.7237 
  156000    130.33987   -7319.6254   -6615.2415   -831.81276     102002.7      46.7237      46.7237      46.7237 
  157000    129.18478   -7333.8622   -6635.7207   -608.10979     102002.7      46.7237      46.7237      46.7237 
  158000    130.15763   -7331.0604   -6627.6614   -538.08073     102002.7      46.7237      46.7237      46.7237 
  159000    131.55169   -7328.5655   -6617.6327   -543.62687     102002.7      46.7237      46.7237      46.7237 
  160000    133.85328   -7338.8386   -6615.4676   -535.59572     102002.7      46.7237      46.7237      46.7237 
  161000    130.57856   -7351.1742   -6645.5004    -610.4689     102002.7      46.7237      46.7237      46.7237 
  162000     133.2597   -7360.2462    -6640.083   -457.50489     102002.7      46.7237      46.7237      46.7237 
  163000    131.95543   -7357.5063   -6644.3916   -400.86177     102002.7      46.7237      46.7237      46.7237 
  164000    127.04791    -7342.258   -6655.6646   -767.62966     102002.7      46.7237      46.7237      46.7237 
  165000     129.8957   -7334.5982   -6632.6147   -600.11045     102002.7      46.7237      46.7237      46.7237 
  166000    129.84389   -7318.1447   -6616.4412   -639.13553     102002.7      46.7237      46.7237      46.7237 
  167000    128.53368   -7339.3251   -6644.7023   -680.05921     102002.7      46.7237      46.7237      46.7237 
  168000     132.1885   -7343.2851   -6628.9108   -966.05086     102002.7      46.7237      46.7237      46.7237 
  169000    130.43794   -7353.1817   -6648.2679   -712.91873     102002.7      46.7237      46.7237      46.7237 
  170000    128.98621   -7352.5912   -6655.5229    -621.7225     102002.7      46.7237      46.7237      46.7237 
  171000     130.9078   -7354.8519   -6647.3988   -882.04263     102002.7      46.7237      46.7237      46.7237 
  172000    129.61727   -7320.2373   -6619.7585   -926.77332     102002.7      46.7237      46.7237      46.7237 
  173000     126.9382     -7334.07   -6648.0695   -848.49261     102002.7      46.7237      46.7237      46.7237 
  174000    132.76929   -7343.5023   -6625.9893   -1065.9517     102002.7      46.7237      46.7237      46.7237 
  175000    127.97357   -7357.7574   -6666.1615   -793.07259     102002.7      46.7237      46.7237      46.7237 
  176000    131.03723   -7335.5103   -6627.3577   -981.29784     102002.7      46.7237      46.7237      46.7237 
  177000    127.27027   -7366.9132   -6679.1181   -838.07572     102002.7      46.7237      46.7237      46.7237 
  178000    130.97524   -7362.2129   -6654.3954   -513.17133     102002.7      46.7237      46.7237      46.7237 
  179000    123.75431   -7314.9469   -6646.1528    -482.2691     102002.7      46.7237      46.7237      46.7237 
  180000    130.87239   -7336.3659   -6629.1042   -869.22275     102002.7      46.7237      46.7237      46.7237 
  181000     129.2413   -7348.2569   -6649.8099   -478.76796     102002.7      46.7237      46.7237      46.7237 
  182000    134.24616   -7358.6971   -6633.2028   -570.76649     102002.7      46.7237      46.7237      46.7237 
  183000    130.56414   -7354.3198    -6648.724    -929.5727     102002.7      46.7237      46.7237      46.7237 
  184000    134.46576   -7342.6621   -6615.9811   -594.72675     102002.7      46.7237      46.7237      46.7237 
  185000    126.20018   -7346.6261    -6664.614   -539.50468     102002.7      46.7237      46.7237      46.7237 
  186000    130.11882   -7374.3924   -6671.2032   -312.45865     102002.7      46.7237      46.7237      46.7237 
  187000    130.33984   -7318.9947    -6614.611   -739.62004     102002.7      46.7237      46.7237      46.7237 
  188000    129.84327   -7351.1667   -6649.4666   -433.22724     102002.7      46.7237      46.7237      46.7237 
  189000     132.9972   -7327.1956    -6608.451   -730.44942     102002.7      46.7237      46.7237      46.7237 
  190000    126.80466   -7348.7329    -6663.454   -711.48029     102002.7      46.7237      46.7237      46.7237 
  191000    126.39784   -7326.3097   -6643.2294   -734.75543     102002.7      46.7237      46.7237      46.7237 
  192000    130.33493   -7360.6676   -6656.3105    -717.2126     102002.7      46.7237      46.7237      46.7237 
  193000    126.51115   -7330.2098   -6646.5172   -803.88236     102002.7      46.7237      46.7237      46.7237 
  194000    128.40276   -7333.2799   -6639.3646   -742.37481     102002.7      46.7237      46.7237      46.7237 
  195000    127.84713   -7358.7705   -6667.8579   -255.59101     102002.7      46.7237      46.7237      46.7237 
  196000    129.37001    -7328.039   -6628.8965   -793.60764     102002.7      46.7237      46.7237      46.7237 
  197000    133.24813   -7347.7295   -6627.6288   -744.89882     102002.7      46.7237      46.7237      46.7237 
  198000    131.72815   -7377.3667   -6665.4803   -482.39529     102002.7      46.7237      46.7237      46.7237 
  199000    132.25016   -7338.1007   -6623.3933   -866.04928     102002.7      46.7237      46.7237      46.7237 
  200000    130.00852    -7335.646   -6633.0528   -440.64236     102002.7      46.7237      46.7237      46.7237 
  201000    128.71092   -7335.2853   -6639.7047   -565.66366     102002.7      46.7237      46.7237      46.7237 
  202000    129.46911   -7351.1697   -6651.4916   -648.27068     102002.7      46.7237      46.7237      46.7237 
  203000    129.32914   -7342.3184   -6643.3967   -411.13348     102002.7      46.7237      46.7237      46.7237 
  204000    132.90899   -7327.8731   -6609.6052     -738.338     102002.7      46.7237      46.7237      46.7237 
  205000    129.62798   -7344.1876    -6643.651   -877.69444     102002.7      46.7237      46.7237      46.7237 
  206000    131.20665   -7293.1617   -6584.0936   -1057.6209     102002.7      46.7237      46.7237      46.7237 
  207000    125.33865   -7323.4541   -6646.0979   -565.92077     102002.7      46.7237      46.7237      46.7237 
  208000    128.06624   -7354.5003   -6662.4037   -572.28593     102002.7      46.7237      46.7237      46.7237 
  209000    127.56526   -7323.1333    -6633.744   -498.40734     102002.7      46.7237      46.7237      46.7237 
  210000      127.975   -7335.5367   -6643.9331   -653.01188     102002.7      46.7237      46.7237      46.7237 
  211000    131.35233   -7346.9888   -6637.1334   -563.68994     102002.7      46.7237      46.7237      46.7237 
  212000    129.66227   -7343.3827   -6642.6607   -588.70492     102002.7      46.7237      46.7237      46.7237 
  213000    134.10657   -7336.3431   -6611.6033   -1065.8654     102002.7      46.7237      46.7237      46.7237 
  214000    126.39507   -7367.2531   -6684.1877   -602.06358     102002.7      46.7237      46.7237      46.7237 
  215000    129.19143   -7319.5895   -6621.4121   -645.74005     102002.7      46.7237      46.7237      46.7237 
  216000    125.14882   -7345.5717   -6669.2414    -866.9661     102002.7      46.7237      46.7237      46.7237 
  217000    133.80374   -7361.3909   -6638.2876   -660.39425     102002.7      46.7237      46.7237      46.7237 
  218000    130.11506   -7354.7638   -6651.5949   -779.64077     102002.7      46.7237      46.7237      46.7237 
  219000    128.89561   -7371.0293   -6674.4505   -964.88156     102002.7      46.7237      46.7237      46.7237 
  220000    130.72793   -7342.2386   -6635.7575   -1025.4562     102002.7      46.7237      46.7237      46.7237 
  221000     128.5731   -7353.1533   -6658.3175   -923.06361     102002.7      46.7237      46.7237      46.7237 
  222000    134.56572   -7332.2378   -6605.0166   -1179.4942     102002.7      46.7237      46.7237      46.7237 
  223000    124.33772   -7338.1119   -6666.1649   -755.60322     102002.7      46.7237      46.7237      46.7237 
  224000    127.31786   -7349.1401   -6661.0878   -748.84725     102002.7      46.7237      46.7237      46.7237 
  225000    130.23657    -7350.868   -6647.0424   -533.70976     102002.7      46.7237      46.7237      46.7237 
  226000    127.95059   -7349.3944   -6657.9227   -692.70138     102002.7      46.7237      46.7237      46.7237 
  227000    135.94502   -7325.3709   -6590.6957   -765.15985     102002.7      46.7237      46.7237      46.7237 
  228000     131.9333   -7355.7765   -6642.7814   -570.82529     102002.7      46.7237      46.7237      46.7237 
  229000    129.80848   -7366.7484   -6665.2362     -692.563     102002.7      46.7237      46.7237      46.7237 
  230000    128.64693   -7347.0775   -6651.8426   -537.12816     102002.7      46.7237      46.7237      46.7237 
  231000    126.77998   -7332.7598   -6647.6144   -793.76082     102002.7      46.7237      46.7237      46.7237 
  232000    131.56725    -7365.997   -6654.9802   -944.68492     102002.7      46.7237      46.7237      46.7237 
  233000     129.3201   -7331.7183   -6632.8456   -742.81453     102002.7      46.7237      46.7237      46.7237 
  234000    132.93693   -7347.9336   -6629.5147   -299.33013     102002.7      46.7237      46.7237      46.7237 
  235000     129.8271    -7358.573   -6656.9603   -879.53723     102002.7      46.7237      46.7237      46.7237 
  236000      131.302   -7321.9775   -6612.3941   -964.97319     102002.7      46.7237      46.7237      46.7237 
  237000     133.8345   -7352.3659   -6629.0963   -483.21436     102002.7      46.7237      46.7237      46.7237 
  238000    129.83345   -7359.9122   -6658.2651   -845.58209     102002.7      46.7237      46.7237      46.7237 
  239000    132.02314   -7332.9324   -6619.4518   -1052.3654     102002.7      46.7237      46.7237      46.7237 
  240000    133.61473   -7355.8923   -6633.8104    -990.8211     102002.7      46.7237      46.7237      46.7237 
  241000    129.04306   -7339.5194   -6642.1438   -568.69519     102002.7      46.7237      46.7237      46.7237 
  242000    129.69436   -7319.1521   -6618.2568   -594.29057     102002.7      46.7237      46.7237      46.7237 
  243000    127.62657   -7338.9867    -6649.266   -1079.8567     102002.7      46.7237      46.7237      46.7237 
  244000    134.78296   -7354.6743    -6626.279   -280.69357     102002.7      46.7237      46.7237      46.7237 
  245000    129.70398   -7342.2257   -6641.2783   -924.54854     102002.7      46.7237      46.7237      46.7237 
  246000     126.1487   -7359.4063   -6677.6724   -753.57394     102002.7      46.7237      46.7237      46.7237 
  247000    130.38161   -7343.3227   -6638.7133   -929.75384     102002.7      46.7237      46.7237      46.7237 
  248000    132.82385    -7329.203   -6611.3952   -546.30384     102002.7      46.7237      46.7237      46.7237 
  249000    128.11736   -7345.0553   -6652.6824   -695.43625     102002.7      46.7237      46.7237      46.7237 
  250000    128.36032    -7350.087   -6656.4011   -694.25596     102002.7      46.7237      46.7237      46.7237 
  251000    129.79117   -7345.5135   -6644.0949   -637.91727     102002.7      46.7237      46.7237      46.7237 
  252000    130.24065    -7347.633   -6643.7853   -1026.2481     102002.7      46.7237      46.7237      46.7237 
  253000    131.86616   -7360.2836   -6647.6514   -771.33271     102002.7      46.7237      46.7237      46.7237 
  254000    131.21576   -7335.8813   -6626.7639   -905.26415     102002.7      46.7237      46.7237      46.7237 
  255000     130.9349   -7331.2227   -6623.6231   -1187.2672     102002.7      46.7237      46.7237      46.7237 
  256000    127.62048   -7333.5776   -6643.8899   -453.33393     102002.7      46.7237      46.7237      46.7237 
  257000    134.54653   -7342.6034   -6615.4859   -739.01376     102002.7      46.7237      46.7237      46.7237 
  258000    127.86313   -7343.6608   -6652.6618   -496.79895     102002.7      46.7237      46.7237      46.7237 
  259000    127.62414   -7362.0547   -6672.3472   -964.58984     102002.7      46.7237      46.7237      46.7237 
  260000    130.66156   -7354.0904   -6647.9681   -670.75476     102002.7      46.7237      46.7237      46.7237 
  261000    129.41253   -7346.5957   -6647.2234   -893.60448     102002.7      46.7237      46.7237      46.7237 
  262000    132.17592   -7336.6589   -6622.3526   -1186.4775     102002.7      46.7237      46.7237      46.7237 
  263000    125.94528   -7347.3645     -6666.73   -652.32302     102002.7      46.7237      46.7237      46.7237 
  264000     127.4559   -7325.6433    -6636.845    -891.6355     102002.7      46.7237      46.7237      46.7237 
  265000     129.9967   -7338.5983   -6636.0691    -529.3506     102002.7      46.7237      46.7237      46.7237 
  266000    128.05618   -7334.2027   -6642.1604   -766.25634     102002.7      46.7237      46.7237      46.7237 
  267000     134.0881   -7345.1873   -6620.5472   -640.91664     102002.7      46.7237      46.7237      46.7237 
  268000     134.6456   -7361.9961   -6634.3431   -727.27577     102002.7      46.7237      46.7237      46.7237 
  269000    127.07924   -7364.8155   -6678.0527   -942.01931     102002.7      46.7237      46.7237      46.7237 
  270000    132.22721   -7347.1422   -6632.5587    -856.2488     102002.7      46.7237      46.7237      46.7237 
  271000    126.38962   -7358.0224   -6674.9865   -765.06743     102002.7      46.7237      46.7237      46.7237 
  272000    130.75539   -7341.9406   -6635.3112   -572.42819     102002.7      46.7237      46.7237      46.7237 
  273000    135.05911   -7351.4717   -6621.5841   -855.03969     102002.7      46.7237      46.7237      46.7237 
  274000    131.92739   -7368.4165   -6655.4534   -741.11968     102002.7      46.7237      46.7237      46.7237 
  275000    128.77011   -7345.5232   -6649.6227   -736.14897     102002.7      46.7237      46.7237      46.7237 
  276000    129.66205   -7332.7211   -6632.0003   -766.58873     102002.7      46.7237      46.7237      46.7237 
  277000    130.20204   -7380.5898   -6676.9508   -680.92656     102002.7      46.7237      46.7237      46.7237 
  278000    132.70933   -7345.2944   -6628.1055   -841.95779     102002.7      46.7237      46.7237      46.7237 
  279000    127.99642    -7349.849   -6658.1296   -599.66892     102002.7      46.7237      46.7237      46.7237 
  280000    127.80063   -7379.4673   -6688.8061   -756.80655     102002.7      46.7237      46.7237      46.7237 
  281000    130.06509   -7338.5363   -6635.6374   -694.61359     102002.7      46.7237      46.7237      46.7237 
  282000    129.90275   -7340.6862   -6638.6646   -866.96611     102002.7      46.7237      46.7237      46.7237 
  283000    128.98351   -7364.7047   -6667.6509   -957.21563     102002.7      46.7237      46.7237      46.7237 
  284000     133.1789   -7335.6784   -6615.9518   -827.17871     102002.7      46.7237      46.7237      46.7237 
  285000     127.9233   -7346.6606   -6655.3364   -613.10918     102002.7      46.7237      46.7237      46.7237 
  286000    131.02287   -7321.1547   -6613.0797   -634.18326     102002.7      46.7237      46.7237      46.7237 
  287000     130.6223   -7334.6665   -6628.7564   -568.44542     102002.7      46.7237      46.7237      46.7237 
  288000    127.09192   -7346.3133    -6659.482   -692.89509     102002.7      46.7237      46.7237      46.7237 
  289000    126.25063   -7335.8448   -6653.5601   -432.85739     102002.7      46.7237      46.7237      46.7237 
  290000    130.50457   -7345.2776   -6640.0036   -968.94978     102002.7      46.7237      46.7237      46.7237 
  291000    129.06663   -7377.3478   -6679.8448   -535.84274     102002.7      46.7237      46.7237      46.7237 
  292000    131.09346   -7328.0732   -6619.6168   -639.85622     102002.7      46.7237      46.7237      46.7237 
  293000    129.02944   -7375.4306   -6678.1287   -621.61269     102002.7      46.7237      46.7237      46.7237 
  294000    131.46666   -7336.6134   -6626.1402   -687.12222     102002.7      46.7237      46.7237      46.7237 
  295000    129.78904   -7333.9316   -6632.5246   -599.61373     102002.7      46.7237      46.7237      46.7237 
  296000    130.47396   -7355.4985     -6650.39   -587.29873     102002.7      46.7237      46.7237      46.7237 
  297000    132.68718   -7341.5193   -6624.4501   -879.86416     102002.7      46.7237      46.7237      46.7237 
  298000    126.12996   -7316.8651   -6635.2325   -528.29834     102002.7      46.7237      46.7237      46.7237 
  299000     125.0526   -7377.1224    -6701.312     -959.801     102002.7      46.7237      46.7237      46.7237 
  300000    131.94019   -7353.4361   -6640.4038   -339.99593     102002.7      46.7237      46.7237      46.7237 
  301000    125.89207   -7344.6451   -6664.2981   -735.95723     102002.7      46.7237      46.7237      46.7237 
  302000    131.40421   -7326.8949   -6616.7591   -577.30744     102002.7      46.7237      46.7237      46.7237 
  303000    127.22095   -7347.8044   -6660.2759   -263.29379     102002.7      46.7237      46.7237      46.7237 
  304000    132.01664   -7342.6555     -6629.21    -880.3719     102002.7      46.7237      46.7237      46.7237 
  305000    131.46245   -7334.1544   -6623.7039   -475.26517     102002.7      46.7237      46.7237      46.7237 
  306000    126.70792     -7367.86    -6683.104   -675.15881     102002.7      46.7237      46.7237      46.7237 
  307000    132.62966   -7347.3189   -6630.5606   -689.16069     102002.7      46.7237      46.7237      46.7237 
  308000    129.65195   -7349.8757   -6649.2095   -465.56916     102002.7      46.7237      46.7237      46.7237 
  309000    131.11069   -7328.3465    -6619.797   -663.85697     102002.7      46.7237      46.7237      46.7237 
  310000    128.59193   -7348.9679   -6654.0303   -545.72674     102002.7      46.7237      46.7237      46.7237 
  311000    134.07227   -7354.1751   -6629.6206   -583.51014     102002.7      46.7237      46.7237      46.7237 
  312000    135.27873   -7331.6769   -6600.6024   -1031.7684     102002.7      46.7237      46.7237      46.7237 
  313000    132.75714   -7353.6721   -6636.2249   -619.28675     102002.7      46.7237      46.7237      46.7237 
  314000    128.71034   -7366.4863   -6670.9088   -735.17558     102002.7      46.7237      46.7237      46.7237 
  315000    129.42812   -7347.7426   -6648.2861   -630.79221     102002.7      46.7237      46.7237      46.7237 
  316000    125.27733   -7353.7188    -6676.694   -794.09919     102002.7      46.7237      46.7237      46.7237 
  317000    132.24654   -7349.9094   -6635.2215   -598.20459     102002.7      46.7237      46.7237      46.7237 
  318000    127.44906   -7356.7458   -6667.9845    -876.4041     102002.7      46.7237      46.7237      46.7237 
  319000    125.82939   -7349.1452   -6669.1369   -703.94438     102002.7      46.7237      46.7237      46.7237 
  320000      129.517   -7354.0958   -6654.1589   -541.98828     102002.7      46.7237      46.7237      46.7237 
  321000    135.46655   -7339.3299   -6607.2404   -709.04235     102002.7      46.7237      46.7237      46.7237 
  322000    129.07371   -7337.2776   -6639.7363    -509.1342     102002.7      46.7237      46.7237      46.7237 
  323000     128.6747   -7357.6963   -6662.3114   -813.75742     102002.7      46.7237      46.7237      46.7237 
  324000    129.67016   -7337.6303   -6636.8657   -490.93168     102002.7      46.7237      46.7237      46.7237 
  325000    133.32701   -7365.7058   -6645.1788   -897.57519     102002.7      46.7237      46.7237      46.7237 
  326000    132.75639   -7333.4628   -6616.0195    -379.6987     102002.7      46.7237      46.7237      46.7237 
  327000    128.69657   -7360.1937   -6664.6905   -1038.7385     102002.7      46.7237      46.7237      46.7237 
  328000    129.44095   -7363.1677   -6663.6418   -1056.0571     102002.7      46.7237      46.7237      46.7237 
  329000    127.67731   -7330.6077   -6640.6129    -555.4395     102002.7      46.7237      46.7237      46.7237 
  330000     128.7066   -7356.3964   -6660.8391   -858.13082     102002.7      46.7237      46.7237      46.7237 
  331000    130.60514   -7338.0165   -6632.1991   -708.09907     102002.7      46.7237      46.7237      46.7237 
  332000    129.17742   -7351.3127    -6653.211   -598.67173     102002.7      46.7237      46.7237      46.7237 
  333000    130.55996   -7342.5376   -6636.9644   -786.28474     102002.7      46.7237      46.7237      46.7237 
  334000    126.05013   -7341.8078   -6660.6066   -876.83348     102002.7      46.7237      46.7237      46.7237 
  335000    128.73882   -7359.1696   -6663.4381   -526.97472     102002.7      46.7237      46.7237      46.7237 
  336000    127.95209   -7317.2383   -6625.7585   -600.35556     102002.7      46.7237      46.7237      46.7237 
  337000    135.36143   -7355.5106   -6623.9893   -499.70785     102002.7      46.7237      46.7237      46.7237 
  338000    128.57215   -7355.5831   -6660.7524   -918.32057     102002.7      46.7237      46.7237      46.7237 
  339000    127.84541   -7346.7307   -6655.8274   -601.49556     102002.7      46.7237      46.7237      46.7237 
  340000    127.35358   -7344.9329   -6656.6876   -561.20306     102002.7      46.7237      46.7237      46.7237 
  341000    130.38451   -7355.4489   -6650.8239   -488.81306     102002.7      46.7237      46.7237      46.7237 
  342000     133.2313   -7341.6856   -6621.6758   -303.20213     102002.7      46.7237      46.7237      46.7237 
  343000    129.75537    -7356.476   -6655.2509   -640.70284     102002.7      46.7237      46.7237      46.7237 
  344000    131.18408   -7337.8034   -6628.8572    -576.5908     102002.7      46.7237      46.7237      46.7237 
  345000    131.67171   -7381.8225   -6670.2411   -619.31954     102002.7      46.7237      46.7237      46.7237 
  346000    130.85811   -7330.4612   -6623.2767    -466.2652     102002.7      46.7237      46.7237      46.7237 
  347000    130.46122   -7341.8961   -6636.8565   -996.25587     102002.7      46.7237      46.7237      46.7237 
  348000    127.72578   -7354.2576   -6664.0009   -497.92388     102002.7      46.7237      46.7237      46.7237 
  349000    133.69271   -7314.1267   -6591.6234   -497.89472     102002.7      46.7237      46.7237      46.7237 
  350000    129.55829   -7338.9004   -6638.7404   -925.85362     102002.7      46.7237      46.7237      46.7237 
  351000    123.60652   -7350.0671   -6682.0717    -785.6116     102002.7      46.7237      46.7237      46.7237 
  352000    131.11625    -7346.102   -6637.5224   -668.92022     102002.7      46.7237      46.7237      46.7237 
  353000    127.99647   -7360.9811   -6669.2615   -718.80884     102002.7      46.7237      46.7237      46.7237 
  354000    130.19942   -7351.2576   -6647.6327   -740.66848     102002.7      46.7237      46.7237      46.7237 
  355000    131.74658   -7320.0603   -6608.0743   -584.78309     102002.7      46.7237      46.7237      46.7237 
  356000    133.82207   -7345.2075   -6622.0051   -574.36179     102002.7      46.7237      46.7237      46.7237 
  357000    127.85354   -7340.7125   -6649.7653   -323.43402     102002.7      46.7237      46.7237      46.7237 
  358000    133.13712   -7380.5006   -6660.9998   -570.31779     102002.7      46.7237      46.7237      46.7237 
  359000    133.74348   -7353.8199   -6631.0422   -302.15536     102002.7      46.7237      46.7237      46.7237 
  360000    132.85349   -7350.1258   -6632.1578   -707.88788     102002.7      46.7237      46.7237      46.7237 
  361000    130.71814   -7338.1197   -6631.6916   -321.05554     102002.7      46.7237      46.7237      46.7237 
  362000    127.68385   -7348.5092    -6658.479   -617.27679     102002.7      46.7237      46.7237      46.7237 
  363000    124.86955   -7345.9893   -6671.1682   -297.09879     102002.7      46.7237      46.7237      46.7237 
  364000    131.00438   -7349.9674   -6641.9924   -546.40633     102002.7      46.7237      46.7237      46.7237 
  365000    127.89168   -7326.9104    -6635.757   -420.91829     102002.7      46.7237      46.7237      46.7237 
  366000    129.38275   -7363.9001   -6664.6887   -598.02085     102002.7      46.7237      46.7237      46.7237 
  367000    129.68173   -7340.9437   -6640.1165   -505.77583     102002.7      46.7237      46.7237      46.7237 
  368000    133.32559   -7321.4542   -6600.9348   -399.05394     102002.7      46.7237      46.7237      46.7237 
  369000    131.37844   -7348.0432   -6638.0467   -425.94365     102002.7      46.7237      46.7237      46.7237 
  370000    129.60166   -7342.9532   -6642.5588   -579.33785     102002.7      46.7237      46.7237      46.7237 
  371000    123.89604   -7346.9116   -6677.3515   -735.77608     102002.7      46.7237      46.7237      46.7237 
  372000    133.22738   -7338.8583   -6618.8698   -473.14705     102002.7      46.7237      46.7237      46.7237 
  373000    129.57045   -7348.5571   -6648.3313   -660.08743     102002.7      46.7237      46.7237      46.7237 
  374000    128.34269   -7324.0381   -6630.4474   -830.27435     102002.7      46.7237      46.7237      46.7237 
  375000    126.38418   -7370.1155    -6687.109   -1026.7655     102002.7      46.7237      46.7237      46.7237 
  376000      129.566   -7339.6059   -6639.4042   -844.16526     102002.7      46.7237      46.7237      46.7237 
  377000    129.51527    -7321.844   -6621.9165   -646.94284     102002.7      46.7237      46.7237      46.7237 
  378000    125.99324    -7341.281   -6660.3873   -643.42358     102002.7      46.7237      46.7237      46.7237 
  379000    126.92314   -7331.5138   -6645.5946    -792.2231     102002.7      46.7237      46.7237      46.7237 
  380000    132.29765    -7341.637   -6626.6729    -734.1423     102002.7      46.7237      46.7237      46.7237 
  381000    131.27224   -7337.7908   -6628.3682   -775.76482     102002.7      46.7237      46.7237      46.7237 
  382000      128.463   -7342.2517   -6648.0108    -579.2939     102002.7      46.7237      46.7237      46.7237 
  383000    129.69045   -7325.3535   -6624.4793   -723.08167     102002.7      46.7237      46.7237      46.7237 
  384000    132.27411   -7335.2873   -6620.4504   -1221.8123     102002.7      46.7237      46.7237      46.7237 
  385000    128.79301   -7353.7045   -6657.6802   -613.72326     102002.7      46.7237      46.7237      46.7237 
  386000    125.89101    -7330.061   -6649.7197   -622.61197     102002.7      46.7237      46.7237      46.7237 
  387000    131.32389   -7349.0684   -6639.3667   -674.19405     102002.7      46.7237      46.7237      46.7237 
  388000    125.72159   -7373.7417    -6694.316   -874.40128     102002.7      46.7237      46.7237      46.7237 
  389000    131.90303   -7351.2292   -6638.3977   -846.28776     102002.7      46.7237      46.7237      46.7237 
  390000     134.0285   -7343.4955   -6619.1775   -670.37014     102002.7      46.7237      46.7237      46.7237 
  391000    128.67503   -7352.9836   -6657.5969     -906.013     102002.7      46.7237      46.7237      46.7237 
  392000    128.08589   -7373.4085   -6681.2056   -701.04748     102002.7      46.7237      46.7237      46.7237 
  393000    127.89536   -7326.5217   -6635.3485   -751.83446     102002.7      46.7237      46.7237      46.7237 
  394000    128.47962   -7362.6411   -6668.3104   -607.67555     102002.7      46.7237      46.7237      46.7237 
  395000    130.79954   -7329.1961   -6622.3281   -805.99832     102002.7      46.7237      46.7237      46.7237 
  396000    128.35089   -7367.1688   -6673.5339   -919.53763     102002.7      46.7237      46.7237      46.7237 
  397000    125.95927   -7324.1359   -6643.4257   -766.64846     102002.7      46.7237      46.7237      46.7237 
  398000    128.57279   -7332.4639   -6637.6297   -654.97119     102002.7      46.7237      46.7237      46.7237 
  399000     134.2524   -7320.5423   -6595.0143   -849.66518     102002.7      46.7237      46.7237      46.7237 
  400000    131.41006   -7333.6877   -6623.5203   -984.02178     102002.7      46.7237      46.7237      46.7237 
  401000    131.42063   -7368.1047   -6657.8802   -989.78343     102002.7      46.7237      46.7237      46.7237 
  402000    127.01623    -7357.542   -6671.1198   -441.50835     102002.7      46.7237      46.7237      46.7237 
  403000    126.47135   -7340.8005   -6657.3229   -824.24605     102002.7      46.7237      46.7237      46.7237 
  404000    130.92113   -7351.7379   -6644.2129   -1098.6594     102002.7      46.7237      46.7237      46.7237 
  405000    133.23907   -7324.9345   -6604.8828     -887.157     102002.7      46.7237      46.7237      46.7237 
  406000    125.23247   -7331.9953   -6655.2129   -717.77745     102002.7      46.7237      46.7237      46.7237 
  407000    130.71277   -7325.1614   -6618.7623   -820.99583     102002.7      46.7237      46.7237      46.7237 
  408000    130.56192   -7323.8277   -6618.2438   -388.83845     102002.7      46.7237      46.7237      46.7237 
  409000    131.05603   -7346.6689   -6638.4147   -669.77615     102002.7      46.7237      46.7237      46.7237 
  410000    130.18407   -7329.6238    -6626.082   -688.19965     102002.7      46.7237      46.7237      46.7237 
  411000    131.67973   -7311.1404   -6599.5157   -652.14541     102002.7      46.7237      46.7237      46.7237 
  412000    131.87365   -7351.0334   -6638.3607   -691.58397     102002.7      46.7237      46.7237      46.7237 
  413000    130.79075   -7357.7915    -6650.971    -833.6562     102002.7      46.7237      46.7237      46.7237 
  414000    132.93844   -7329.2447   -6610.8177   -595.01098     102002.7      46.7237      46.7237      46.7237 
  415000    129.02566   -7321.9287   -6624.6471   -799.05946     102002.7      46.7237      46.7237      46.7237 
  416000    128.28245   -7357.5686   -6664.3035    -761.6138     102002.7      46.7237      46.7237      46.7237 
  417000    128.86678   -7360.0107   -6663.5878   -694.34379     102002.7      46.7237      46.7237      46.7237 
  418000     128.3255   -7331.4608    -6637.963   -73.854715     102002.7      46.7237      46.7237      46.7237 
  419000    132.45255   -7366.8122   -6651.0109   -597.12489     102002.7      46.7237      46.7237      46.7237 
  420000    134.26794   -7348.0066   -6622.3946   -437.49918     102002.7      46.7237      46.7237      46.7237 
  421000    127.45607   -7347.9937   -6659.1945   -743.08339     102002.7      46.7237      46.7237      46.7237 
  422000    131.75166    -7326.248   -6614.2345   -709.51671     102002.7      46.7237      46.7237      46.7237 
  423000    130.55551   -7329.6126   -6624.0634     -681.691     102002.7      46.7237      46.7237      46.7237 
  424000    128.48895   -7368.4186   -6674.0375   -1036.5438     102002.7      46.7237      46.7237      46.7237 
  425000    131.54812   -7337.2952   -6626.3817    -946.8333     102002.7      46.7237      46.7237      46.7237 
  426000    131.65107   -7339.3344   -6627.8646   -818.99645     102002.7      46.7237      46.7237      46.7237 
  427000    127.70787   -7347.3822   -6657.2222   -744.46469     102002.7      46.7237      46.7237      46.7237 
  428000    131.37115   -7341.1595   -6631.2024   -914.86373     102002.7      46.7237      46.7237      46.7237 
  429000     132.0659   -7338.6267   -6624.9151   -727.22485     102002.7      46.7237      46.7237      46.7237 
  430000    128.15394   -7382.6367   -6690.0661   -754.95754     102002.7      46.7237      46.7237      46.7237 
  431000    124.67727   -7324.4247   -6650.6428   -240.52628     102002.7      46.7237      46.7237      46.7237 
  432000    134.17637   -7361.7931    -6636.676   -688.45058     102002.7      46.7237      46.7237      46.7237 
  433000    132.32559   -7335.1194   -6620.0043   -613.27828     102002.7      46.7237      46.7237      46.7237 
  434000    132.51786   -7344.3569   -6628.2027   -470.02659     102002.7      46.7237      46.7237      46.7237 
  435000     133.0038   -7361.8769   -6643.0967   -596.14896     102002.7      46.7237      46.7237      46.7237 
  436000    133.62836   -7360.9941   -6638.8386   -781.30256     102002.7      46.7237      46.7237      46.7237 
  437000    129.66134   -7336.7532   -6636.0363   -477.64921     102002.7      46.7237      46.7237      46.7237 
  438000    126.27033   -7347.4201   -6665.0289   -675.36037     102002.7      46.7237      46.7237      46.7237 
  439000    131.41401   -7339.0673   -6628.8786   -637.58284     102002.7      46.7237      46.7237      46.7237 
  440000    137.16535   -7367.6581   -6626.3879   -466.72031     102002.7      46.7237      46.7237      46.7237 
  441000    129.57015   -7353.1426   -6652.9185   -642.00229     102002.7      46.7237      46.7237      46.7237 
  442000    132.97504   -7343.8015   -6625.1766   -691.77672     102002.7      46.7237      46.7237      46.7237 
  443000    133.88342    -7325.813   -6602.2791   -591.74376     102002.7      46.7237      46.7237      46.7237 
  444000    129.11557   -7348.9762   -6651.2087   -768.43585     102002.7      46.7237      46.7237      46.7237 
  445000    127.44385   -7357.9459   -6669.2128   -708.05453     102002.7      46.7237      46.7237      46.7237 
  446000    131.26364   -7350.9885   -6641.6124   -633.18844     102002.7      46.7237      46.7237      46.7237 
  447000    131.21484   -7350.7501   -6641.6377   -624.87662     102002.7      46.7237      46.7237      46.7237 
  448000    128.46679    -7361.154   -6666.8927   -745.98083     102002.7      46.7237      46.7237      46.7237 
  449000    129.97324   -7357.0194   -6654.6169    -662.5529     102002.7      46.7237      46.7237      46.7237 
  450000     130.0202   -7349.6576   -6647.0013   -801.76236     102002.7      46.7237      46.7237      46.7237 
  451000    131.33004   -7356.2664   -6646.5315   -771.29454     102002.7      46.7237      46.7237      46.7237 
  452000    130.96112   -7332.0311   -6624.2899   -538.51774     102002.7      46.7237      46.7237      46.7237 
  453000    130.12971   -7338.8505   -6635.6024   -890.45381     102002.7      46.7237      46.7237      46.7237 
  454000    129.16609    -7353.439   -6655.3986   -796.33566     102002.7      46.7237      46.7237      46.7237 
  455000    132.00164   -7335.5036   -6622.1392   -555.36839     102002.7      46.7237      46.7237      46.7237 
  456000    129.60098   -7324.9103   -6624.5195   -404.83736     102002.7      46.7237      46.7237      46.7237 
  457000    129.17427    -7346.122   -6648.0373   -805.37709     102002.7      46.7237      46.7237      46.7237 
  458000    133.48357   -7332.0482   -6610.6751   -891.91871     102002.7      46.7237      46.7237      46.7237 
  459000    127.50452   -7335.6286   -6646.5675     -638.189     102002.7      46.7237      46.7237      46.7237 
  460000    129.33632   -7336.0912   -6637.1307   -823.69763     102002.7      46.7237      46.7237      46.7237 
  461000    127.70747   -7364.5707   -6674.4129   -361.61218     102002.7      46.7237      46.7237      46.7237 
  462000    129.49323   -7336.7397   -6636.9312   -943.87945     102002.7      46.7237      46.7237      46.7237 
  463000    133.34545   -7352.4635   -6631.8369   -890.65155     102002.7      46.7237      46.7237      46.7237 
  464000    128.50088   -7355.9978   -6661.5522   -566.58504     102002.7      46.7237      46.7237      46.7237 
  465000    128.34276   -7324.1144   -6630.5233   -958.36467     102002.7      46.7237      46.7237      46.7237 
  466000     131.8821   -7349.5871   -6636.8687   -773.51231     102002.7      46.7237      46.7237      46.7237 
  467000    130.30567   -7372.3695   -6668.1704   -702.74009     102002.7      46.7237      46.7237      46.7237 
  468000     131.1188   -7351.9064    -6643.313   -850.29394     102002.7      46.7237      46.7237      46.7237 
  469000    129.53881   -7363.5952   -6663.5405    -745.9949     102002.7      46.7237      46.7237      46.7237 
  470000    128.63642   -7341.0437   -6645.8657   -923.82251     102002.7      46.7237      46.7237      46.7237 
  471000    128.91075   -7339.8523   -6643.1917   -525.69471     102002.7      46.7237      46.7237      46.7237 
  472000    128.72565   -7363.9935   -6668.3332   -1004.2372     102002.7      46.7237      46.7237      46.7237 
  473000    126.50569   -7352.8448   -6669.1816   -1094.6482     102002.7      46.7237      46.7237      46.7237 
  474000     129.1442   -7342.9081   -6644.9859   -758.55344     102002.7      46.7237      46.7237      46.7237 
  475000    135.93034   -7350.9757   -6616.3798   -857.06279     102002.7      46.7237      46.7237      46.7237 
  476000    129.96694   -7354.6325   -6652.2641    -1079.264     102002.7      46.7237      46.7237      46.7237 
  477000    135.62224    -7341.149   -6608.2181   -635.53521     102002.7      46.7237      46.7237      46.7237 
  478000    128.27802    -7341.653   -6648.4118   -666.77753     102002.7      46.7237      46.7237      46.7237 
  479000    135.31891   -7353.2785   -6621.9869   -697.00251     102002.7      46.7237      46.7237      46.7237 
  480000    123.65997   -7360.4939   -6692.2097   -513.54319     102002.7      46.7237      46.7237      46.7237 
  481000    132.15197   -7350.2276   -6636.0508    -277.5106     102002.7      46.7237      46.7237      46.7237 
  482000    128.36018   -7342.2694   -6648.5842   -758.49688     102002.7      46.7237      46.7237      46.7237 
  483000    126.80465   -7350.8158    -6665.537   -379.23439     102002.7      46.7237      46.7237      46.7237 
  484000    134.41992   -7341.4772   -6615.0439   -703.87098     102002.7      46.7237      46.7237      46.7237 
  485000    133.27165   -7363.5169    -6643.289   -957.28654     102002.7      46.7237      46.7237      46.7237 
  486000    128.07423   -7350.9083   -6658.7684   -492.15536     102002.7      46.7237      46.7237      46.7237 
  487000    131.57434   -7372.4762    -6661.421   -723.94026     102002.7      46.7237      46.7237      46.7237 
  488000    129.34633   -7336.9249   -6637.9104   -522.55772     102002.7      46.7237      46.7237      46.7237 
  489000    129.88905   -7341.1458   -6639.1982   -504.59268     102002.7      46.7237      46.7237      46.7237 
  490000     129.5858   -7340.6658    -6640.357     -778.297     102002.7      46.7237      46.7237      46.7237 
  491000     133.0168   -7322.1053   -6603.2547   -611.40272     102002.7      46.7237      46.7237      46.7237 
  492000    131.84364   -7350.4002   -6637.8896   -768.36522     102002.7      46.7237      46.7237      46.7237 
  493000     130.4948   -7365.3207   -6660.0995   -615.14993     102002.7      46.7237      46.7237      46.7237 
  494000    130.09091   -7365.0383   -6661.9999   -668.89577     102002.7      46.7237      46.7237      46.7237 
  495000    131.31404   -7355.5301   -6645.8817   -582.60967     102002.7      46.7237      46.7237      46.7237 
  496000    133.12119   -7360.9624   -6641.5477   -821.91861     102002.7      46.7237      46.7237      46.7237 
  497000    132.61566   -7337.1848   -6620.5021    -733.0672     102002.7      46.7237      46.7237      46.7237 
  498000    124.34222   -7345.9613     -6673.99   -624.57655     102002.7      46.7237      46.7237      46.7237 
  499000    132.29725   -7361.9892   -6647.0272   -776.87463     102002.7      46.7237      46.7237      46.7237 
  500000    131.18307    -7318.858   -6609.9173   -386.50525     102002.7      46.7237      46.7237      46.7237 
  500502    129.43758   -7362.7115   -6663.2039   -732.89465     102002.7      46.7237      46.7237      46.7237 
Loop time of 1275.03 on 16 procs for 500000 steps with 1814 atoms

Performance: 33.881 ns/day, 0.708 hours/ns, 392.147 timesteps/s
99.8% CPU use with 16 MPI tasks x no OpenMP threads

MPI task timing breakdown:
Section |  min time  |  avg time  |  max time  |%varavg| %total
---------------------------------------------------------------
Pair    | 559.97     | 708.73     | 872.66     | 352.2 | 55.59
Bond    | 155.26     | 174.2      | 191.16     |  83.2 | 13.66
Neigh   | 5.689      | 5.7335     | 5.8002     |   1.6 |  0.45
Comm    | 208.62     | 372.99     | 505.75     | 447.9 | 29.25
Output  | 0.020469   | 0.020845   | 0.023588   |   0.5 |  0.00
Modify  | 7.1242     | 8.0953     | 8.9545     |  24.9 |  0.63
Other   |            | 5.272      |            |       |  0.41

Nlocal:    113.375 ave 152 max 72 min
Histogram: 1 0 2 2 3 1 3 1 2 1
Nghost:    2310 ave 2360 max 2272 min
Histogram: 2 2 2 1 2 1 4 1 0 1
Neighs:    11465.9 ave 15609 max 7975 min
Histogram: 2 3 2 1 0 3 0 2 2 1

Total # of neighbors = 183454
Ave neighs/atom = 101.132
Ave special neighs/atom = 6.35061
Neighbor list builds = 4459
Dangerous builds = 0
Neighbor list info ...
  update every 1 steps, delay 10 steps, check yes
  max neighbors/atom: 2000, page size: 100000
  master list distance cutoff = 16
  ghost atom cutoff = 16
  binsize = 8, bins = 6 6 6
  3 neighbor lists, perpetual/occasional/extra = 3 0 0
  (1) pair buck6d/coul/gauss/dsf, perpetual, skip from (3)
      attributes: half, newton on
      pair build: skip
      stencil: none
      bin: none
  (2) pair lj/cut, perpetual, skip from (3)
      attributes: half, newton on
      pair build: skip
      stencil: none
      bin: none
  (3) neighbor class addition, perpetual
      attributes: half, newton on
      pair build: half/bin/newton
      stencil: half/bin/3d/newton
      bin: standard
Setting up Verlet run ...
  Unit style    : real
  Current step  : 500502
  Time step     : 1
WARNING: Inconsistent image flags (../domain.cpp:786)
Per MPI rank memory allocation (min/avg/max) = 22.88 | 23.27 | 23.34 Mbytes
Step Time TotEng KinEng PotEng E_mol E_pair Temp Pxx Pyy Pzz Pxy Pxz Pyz Cella Cellb Cellc CellAlpha CellBeta CellGamma Volume Press 
  500502       500000   -6663.2039    699.50768   -7362.7115    4400.0871   -11762.799    129.43758   -795.49132   -1098.2719   -304.92073    74.920143    168.30685   -120.17446      46.7237      46.7237      46.7237           90           90           90     102002.7   -732.89465 
  501000       500498   -6627.8599    693.68521   -7321.5451    4428.2104   -11749.756    128.36018   -1132.0702   -983.62089   -927.27549   -26.549506    235.02361    192.76533      46.7237      46.7237      46.7237           90           90           90     102002.7   -1014.3222 
  502000       501498   -6651.7586    685.33844   -7337.0971     4412.428   -11749.525    126.81569   -632.30619   -637.43186   -318.39908    173.58614   -132.40815    403.58847      46.7237      46.7237      46.7237           90           90           90     102002.7   -529.37904 
  503000       502498   -6665.5961    697.94942   -7363.5455     4397.636   -11761.182    129.14924   -112.23215   -467.56049   -1192.6892    263.39373    15.715006    38.643239      46.7237      46.7237      46.7237           90           90           90     102002.7   -590.82729 
  504000       503498   -6632.3345    702.55764   -7334.8922    4431.1639   -11766.056    130.00195   -1023.0704    -901.2669   -597.71876    93.877439   -56.113465    16.134635      46.7237      46.7237      46.7237           90           90           90     102002.7   -840.68537 
  505000       504498   -6649.8037    689.46771   -7339.2714    4386.5813   -11725.853    127.57977    -1061.613   -501.71493   -706.51898    151.62687    106.39877    -50.13753      46.7237      46.7237      46.7237           90           90           90     102002.7   -756.61564 
  506000       505498   -6639.6106    700.90264   -7340.5132    4382.4353   -11722.949     129.6957   -561.13649   -895.53424   -128.31525    11.823345    59.710841   -92.957593      46.7237      46.7237      46.7237           90           90           90     102002.7   -528.32866 
  507000       506498   -6620.9239    721.93421   -7342.8581    4421.1325   -11763.991    133.58741   -842.73823   -937.15172   -754.06605   -4.7478864   -105.22266   -142.11432      46.7237      46.7237      46.7237           90           90           90     102002.7     -844.652 
  508000       507498   -6642.7275    691.89687   -7334.6244    4389.5598   -11724.184    128.02927   -882.38056    -509.7587   -605.48399   -131.09417   -62.213206    83.981524      46.7237      46.7237      46.7237           90           90           90     102002.7   -665.87442 
  509000       508498   -6626.6174    704.96231   -7331.5797    4405.9781   -11737.558    130.44691   -607.15042   -290.62754   -622.69385   -86.069584   -214.27769    223.13054      46.7237      46.7237      46.7237           90           90           90     102002.7   -506.82394 
  510000       509498   -6670.2658    696.56691   -7366.8327    4374.5385   -11741.371    128.89342   -894.48824   -1336.8832   -836.46977   -21.854305   -16.817045   -160.88376      46.7237      46.7237      46.7237           90           90           90     102002.7   -1022.6137 
  511000       510498   -6633.1158    714.16583   -7347.2817    4403.0377   -11750.319    132.14994   -1137.6137   -1020.9496   -781.51325    34.183379   -105.66906    180.99584      46.7237      46.7237      46.7237           90           90           90     102002.7   -980.02552 
  512000       511498   -6617.3872    696.58637   -7313.9736    4412.2111   -11726.185    128.89702   -579.40897   -1112.2728   -999.08455   -118.45387   -127.02693    56.956324      46.7237      46.7237      46.7237           90           90           90     102002.7   -896.92209 
  513000       512498   -6654.0427    686.39379   -7340.4365    4393.2507   -11733.687    127.01097   -518.85463    -669.6249   -730.41056   -71.181129    74.914939   -210.89489      46.7237      46.7237      46.7237           90           90           90     102002.7   -639.63003 
  514000       513498   -6634.6154    703.18787   -7337.8033    4400.3159   -11738.119    130.11856   -654.79333   -1492.5811   -776.61686   -185.74786    5.9792433   -12.215053      46.7237      46.7237      46.7237           90           90           90     102002.7   -974.66375 
  515000       514498    -6625.555    728.49562   -7354.0506    4379.9792    -11734.03    134.80154   -710.64909   -350.98739   -463.28898    164.29501    75.578024    15.063772      46.7237      46.7237      46.7237           90           90           90     102002.7   -508.30848 
  516000       515498   -6622.0126    706.21488   -7328.2275    4408.1729     -11736.4    130.67869   -634.18987   -475.93249   -466.83307    -69.43739     43.11679   -70.236834      46.7237      46.7237      46.7237           90           90           90     102002.7   -525.65181 
  517000       516498   -6659.3108     697.6815   -7356.9923    4376.9129   -11733.905    129.09966   -1142.9854   -480.06871   -863.23521   -69.181479   -91.356926    8.5173958      46.7237      46.7237      46.7237           90           90           90     102002.7   -828.76312 
  518000       517498   -6639.2099    704.36732   -7343.5772    4396.2407   -11739.818    130.33681   -751.99086    108.32728   -850.84012   -139.18855   -149.66118    192.36026      46.7237      46.7237      46.7237           90           90           90     102002.7    -498.1679 
  519000       518498   -6636.1218    701.00906   -7337.1309    4380.1832   -11717.314     129.7154   -414.36739   -817.40424   -880.98427   -171.48874   -65.633008   -27.963608      46.7237      46.7237      46.7237           90           90           90     102002.7   -704.25197 
  520000       519498   -6645.3941    698.81531   -7344.2094    4398.2411   -11742.451    129.30946   -1181.5378   -634.95755   -614.01776     -65.1822   -81.459316    30.174271      46.7237      46.7237      46.7237           90           90           90     102002.7   -810.17104 
  521000       520498   -6587.7871    733.60802   -7321.3952    4414.7298   -11736.125    135.74754   -617.57817   -522.74087   -319.52732   -337.49263   -92.889556    51.717598      46.7237      46.7237      46.7237           90           90           90     102002.7   -486.61545 
  522000       521498   -6656.2816    697.50256   -7353.7842    4385.1162     -11738.9    129.06655   -601.09273   -612.63784   -635.33815    149.71785   -261.14665    113.05622      46.7237      46.7237      46.7237           90           90           90     102002.7   -616.35624 
  523000       522498   -6682.2663    681.34049   -7363.6068    4383.4468   -11747.054     126.0759   -933.70411   -680.66415    -833.0313    50.801618    -62.41989    259.21498      46.7237      46.7237      46.7237           90           90           90     102002.7   -815.79985 
  524000       523498    -6641.531     706.2434   -7347.7744    4396.7526   -11744.527    130.68396   -555.41898   -660.32813   -132.34897    170.49656    -177.6613   -16.281038      46.7237      46.7237      46.7237           90           90           90     102002.7   -449.36536 
  525000       524498   -6670.6349    693.90761   -7364.5425    4391.1746   -11755.717    128.40134   -604.70492   -820.89806   -919.04934   -319.41582    265.74273   -99.476761      46.7237      46.7237      46.7237           90           90           90     102002.7   -781.55078 
  526000       525498   -6664.2353    683.06221   -7347.2975     4402.823    -11750.12    126.39449   -584.34413   -867.81285   -681.03281   -229.01261    60.080989    156.30607      46.7237      46.7237      46.7237           90           90           90     102002.7   -711.06326 
  527000       526498   -6648.3537    715.46511   -7363.8188     4379.445   -11743.264    132.39036   -805.46626   -929.82049   -1033.9848   -129.52872    71.818119    6.4426454      46.7237      46.7237      46.7237           90           90           90     102002.7   -923.09052 
  528000       527498    -6647.733    687.45287   -7335.1859    4414.9598   -11750.146    127.20695   -807.33792   -948.80769   -951.04863   -179.73402    68.978808    22.522945      46.7237      46.7237      46.7237           90           90           90     102002.7   -902.39808 
  529000       528498    -6596.548    743.10966   -7339.6577     4403.849   -11743.507    137.50573   -1074.8362   -819.45907   -1447.0479   -97.219464    315.30233   -4.7641975      46.7237      46.7237      46.7237           90           90           90     102002.7   -1113.7811 
  530000       529498   -6637.6829    696.93325   -7334.6162    4427.0847   -11761.701     128.9612   -786.90388    -992.5279   -961.55118    125.75093    368.35723    31.542291      46.7237      46.7237      46.7237           90           90           90     102002.7   -913.66099 
  531000       530498   -6650.4743    703.99745   -7354.4718    4381.8122   -11736.284    130.26837    -1272.644   -830.84134   -959.03237    150.57259    289.88032    199.99454      46.7237      46.7237      46.7237           90           90           90     102002.7   -1020.8392 
  532000       531498    -6655.188     697.2614   -7352.4494    4382.2852   -11734.735    129.02193   -976.60376   -761.26434   -473.34052     235.0064    92.807791   -82.488456      46.7237      46.7237      46.7237           90           90           90     102002.7   -737.06954 
  533000       532498   -6636.5151    708.10688    -7344.622    4410.6873   -11755.309    131.02878   -980.72793   -1036.7367   -738.98621   -75.553112    238.76295   -239.07411      46.7237      46.7237      46.7237           90           90           90     102002.7   -918.81694 
  534000       533498   -6650.0628    696.54432   -7346.6072    4399.5807   -11746.188    128.88924   -307.87827   -1127.9998   -1309.8762    192.87555   -96.837943    130.28686      46.7237      46.7237      46.7237           90           90           90     102002.7   -915.25142 
  535000       534498    -6681.406    675.72269   -7357.1287     4386.858   -11743.987    125.03638   -522.73187   -760.78242   -812.77329    45.706584    42.847076    34.654695      46.7237      46.7237      46.7237           90           90           90     102002.7   -698.76252 
  536000       535498   -6625.9259    715.81499   -7341.7409    4395.8474   -11737.588     132.4551   -1098.8735   -998.08795   -1008.7637   -140.49447   -103.23699    63.782683      46.7237      46.7237      46.7237           90           90           90     102002.7   -1035.2417 
  537000       536498    -6661.286    701.69254   -7362.9786    4372.3741   -11735.353    129.84187   -686.64223   -974.70054   -769.47006    29.551453    11.199492    27.878197      46.7237      46.7237      46.7237           90           90           90     102002.7   -810.27094 
  538000       537498   -6638.0942    683.48059   -7321.5748    4406.3704   -11727.945    126.47191   -613.15346   -997.71106   -1170.4764    367.16983   -158.64388    69.545497      46.7237      46.7237      46.7237           90           90           90     102002.7   -927.11363 
  539000       538498   -6648.2814     703.8715   -7352.1529    4372.9119   -11725.065    130.24507   -494.59389   -703.66264   -800.41248   -193.23379    150.40542    9.9243412      46.7237      46.7237      46.7237           90           90           90     102002.7     -666.223 
  540000       539498   -6584.4127    709.92546   -7294.3382    4446.7501   -11741.088     131.3653   -642.36542   -589.31387   -1046.9579   -32.727356    -179.1495   -110.52605      46.7237      46.7237      46.7237           90           90           90     102002.7   -759.54575 
  541000       540498   -6638.1425    691.39149    -7329.534    4397.4261    -11726.96    127.93575   -941.61145   -1448.1787   -1019.1352    75.531875    76.955897    24.655304      46.7237      46.7237      46.7237           90           90           90     102002.7   -1136.3084 
  542000       541498   -6660.9329    679.91333   -7340.8462    4389.8503   -11730.697    125.81182   -688.70124    -863.5385   -823.00999   -81.853994    82.498232   -64.689912      46.7237      46.7237      46.7237           90           90           90     102002.7   -791.74991 
  543000       542498   -6629.9034    698.27872   -7328.1821    4422.1776    -11750.36    129.21017   -941.55131   -1121.9752   -639.73612   -80.309025   -33.024508    270.69159      46.7237      46.7237      46.7237           90           90           90     102002.7   -901.08754 
  544000       543498   -6622.4865    711.74172   -7334.2282    4391.4814    -11725.71    131.70138   -759.31427   -855.56359   -1286.4628   -39.101267   -296.52776   -115.70032      46.7237      46.7237      46.7237           90           90           90     102002.7   -967.11355 
  545000       544498   -6629.3416       694.35   -7323.6916    4417.0004   -11740.692     128.4832   -1128.5254   -704.96588   -1143.0394    200.16624    107.20814   -13.606043      46.7237      46.7237      46.7237           90           90           90     102002.7    -992.1769 
  546000       545498   -6657.9697    687.80072   -7345.7704    4378.0794    -11723.85    127.27131   -868.30814   -527.23923   -580.25425   -141.92431    6.3875025    -134.8786      46.7237      46.7237      46.7237           90           90           90     102002.7   -658.60054 
  547000       546498   -6614.8271    703.55272   -7318.3798    4410.2591   -11728.639    130.18608   -454.69431   -1360.8072   -993.62821   -101.08982    5.2869822    -151.7311      46.7237      46.7237      46.7237           90           90           90     102002.7   -936.37657 
  548000       547498   -6641.0006    712.60891   -7353.6095    4381.2131   -11734.823    131.86184   -959.53301   -526.16204   -607.74093   -114.03272   -151.40508    139.54759      46.7237      46.7237      46.7237           90           90           90     102002.7   -697.81199 
  549000       548498   -6627.5473    693.71525   -7321.2625    4419.2161   -11740.479    128.36574   -864.33161    -1086.452   -583.52384   -45.346117   -84.597123    184.47229      46.7237      46.7237      46.7237           90           90           90     102002.7   -844.76914 
  550000       549498    -6621.055    706.37996    -7327.435    4416.7682   -11744.203    130.70923   -1209.9693   -1080.4544   -994.09991   -282.74105    77.391857    112.71403      46.7237      46.7237      46.7237           90           90           90     102002.7   -1094.8412 
  551000       550498   -6607.5778    722.41043   -7329.9883    4403.9416    -11733.93    133.67553   -517.69321   -429.90981   -303.12631    161.77193    167.65179    154.61283      46.7237      46.7237      46.7237           90           90           90     102002.7   -416.90977 
  552000       551498   -6653.7166    698.08391   -7351.8005     4382.765   -11734.566    129.17412   -1027.8399   -808.36588   -1037.1682    189.12972    7.3199392    317.57643      46.7237      46.7237      46.7237           90           90           90     102002.7   -957.79133 
  553000       552498   -6629.6081    715.87369   -7345.4818    4403.1827   -11748.664    132.46596   -1300.7875   -1020.1322   -731.25339   -10.480161   -62.979109   -54.994207      46.7237      46.7237      46.7237           90           90           90     102002.7    -1017.391 
  554000       553498   -6646.1348     686.3263   -7332.4611     4390.943   -11723.404    126.99848   -875.29664   -763.09549   -286.89454    113.94038   -417.47798   -136.17736      46.7237      46.7237      46.7237           90           90           90     102002.7   -641.76223 
  555000       554498   -6658.9042    697.94439   -7356.8486    4399.8285   -11756.677    129.14831   -969.24384   -1082.1758   -691.72581    249.45172    288.50323   -14.612007      46.7237      46.7237      46.7237           90           90           90     102002.7   -914.38183 
[...]
  936000       935498   -6660.6307    696.77493   -7357.4056    4377.2378   -11734.643    128.93191   -618.16606   -715.75289   -777.30989    -437.9784    356.56085    14.901968      46.7237      46.7237      46.7237           90           90           90     102002.7   -703.74295 
  937000       936498   -6617.9016    700.83422   -7318.7359    4412.4336   -11731.169    129.68304   -862.74858   -1054.1238   -1019.0157   -188.89248    104.05469   -14.575876      46.7237      46.7237      46.7237           90           90           90     102002.7   -978.62937 
  938000       937498   -6648.8842    692.89652   -7341.7807    4388.6869   -11730.468    128.21424   -954.24815   -1030.1607   -419.05195   -74.394087    -138.6957   -69.082925      46.7237      46.7237      46.7237           90           90           90     102002.7   -801.15362 
  939000       938498   -6653.2964    704.54192   -7357.8383    4377.8837   -11735.722    130.36912   -315.97247   -589.40586   -851.82165   0.65930435    55.489842   -98.834027      46.7237      46.7237      46.7237           90           90           90     102002.7   -585.73333 
  940000       939498    -6637.896    703.03524   -7340.9312    4429.9458   -11770.877    130.09032   -955.24022   -691.55991   -705.80905   -94.646647   -39.662478   -177.25234      46.7237      46.7237      46.7237           90           90           90     102002.7   -784.20306 
  941000       940498   -6683.8387    700.82748   -7384.6662    4358.3583   -11743.025     129.6818   -926.42739   -490.66372   -388.23555   -146.62404    298.57505    159.95146      46.7237      46.7237      46.7237           90           90           90     102002.7   -601.77555 
  942000       941498   -6649.9407    702.00008   -7351.9407    4399.6993    -11751.64    129.89878   -323.84036   -508.43366   -1128.5505   -473.66103    108.54692   -95.111666      46.7237      46.7237      46.7237           90           90           90     102002.7   -653.60818 
  943000       942498   -6630.1679    722.01313    -7352.181    4398.6783   -11750.859    133.60201   -443.59186   -1188.7664   -461.02037   -41.828345   -51.016803   -233.48303      46.7237      46.7237      46.7237           90           90           90     102002.7   -697.79288 
  944000       943498   -6649.8895    686.11024   -7335.9997    4410.5093   -11746.509     126.9585   -1277.2837   -743.31347    -668.2662    -287.1247    -5.265174    1.3799611      46.7237      46.7237      46.7237           90           90           90     102002.7   -896.28779 
  945000       944498   -6619.3403    736.55827   -7355.8986    4389.0577   -11744.956    136.29346    -287.8784   -433.99612   -797.30206     12.26386    230.55766    87.971898      46.7237      46.7237      46.7237           90           90           90     102002.7   -506.39219 
  946000       945498   -6648.5597    703.88579   -7352.4455    4384.2704   -11736.716    130.24771   -853.61885   -313.26697   -963.81865    178.34346   -105.73665    130.83651      46.7237      46.7237      46.7237           90           90           90     102002.7   -710.23482 
  947000       946498   -6634.7226    698.14812   -7332.8707    4420.2569   -11753.128      129.186   -554.25762   -1298.7532   -707.03244   -136.24439    213.63954   -13.827444      46.7237      46.7237      46.7237           90           90           90     102002.7   -853.34775 
  948000       947498    -6623.822    724.80641   -7348.6284    4393.2759   -11741.904    134.11888     -519.533   -585.27478   -345.45047   -130.41357    16.479372    95.487405      46.7237      46.7237      46.7237           90           90           90     102002.7   -483.41942 
  949000       948498   -6667.0078     690.1698   -7357.1776    4360.6153   -11717.793    127.70969   -1358.6404   -478.38148    -693.5278     128.4881   -214.81196   -124.95987      46.7237      46.7237      46.7237           90           90           90     102002.7   -843.51655 
  950000       949498    -6659.093    680.89603   -7339.9891    4400.2182   -11740.207    125.99366   -978.46499   -918.11092   -366.74491    268.22251    121.75757    149.20473      46.7237      46.7237      46.7237           90           90           90     102002.7   -754.44027 
  951000       950498   -6621.8291    715.05931   -7336.8885     4396.814   -11733.702    132.31527   -385.39874   -693.15073   -25.587961   -8.1547081     42.99151   -26.908253      46.7237      46.7237      46.7237           90           90           90     102002.7   -368.04581 
  952000       951498   -6636.4336    720.82896   -7357.2626    4384.4847   -11741.747    133.38289   -571.67347   -695.93951   -822.58365   -113.76647   -162.98217   -142.03399      46.7237      46.7237      46.7237           90           90           90     102002.7   -696.73221 
  953000       952498   -6643.4041    691.94965   -7335.3537    4404.1355   -11739.489    128.03903   -1040.4569   -904.76261   -864.53626    111.65393   -26.084364    45.114284      46.7237      46.7237      46.7237           90           90           90     102002.7   -936.58524 
  954000       953498   -6617.9079    701.33498   -7319.2428    4410.1659   -11729.409     129.7757    -403.3524   -1240.5307    -1004.772   -288.86322   -132.84424   -155.15618      46.7237      46.7237      46.7237           90           90           90     102002.7   -882.88503 
  955000       954498   -6645.1635    690.73156    -7335.895    4378.6634   -11714.558    127.81364   -643.36074   -1012.1738   -851.96573   -214.92012    80.462446    68.652446      46.7237      46.7237      46.7237           90           90           90     102002.7   -835.83343 
  956000       955498    -6643.495    703.99482   -7347.4898    4388.8788   -11736.369    130.26788   -642.76332   -282.73512   -224.18328    295.12394   -13.225301    121.92897      46.7237      46.7237      46.7237           90           90           90     102002.7   -383.22724 
  957000       956498   -6651.2821    701.61309   -7352.8952    4378.3784   -11731.274    129.82717     -990.405    -692.9209   -858.46553   -58.321386   -34.151728    101.76476      46.7237      46.7237      46.7237           90           90           90     102002.7   -847.26381 
  958000       957498   -6650.9533    691.03903   -7341.9923    4398.1884   -11740.181    127.87053    -883.7635   -865.50337   -932.43066   -275.45784    -43.34989   -127.30647      46.7237      46.7237      46.7237           90           90           90     102002.7   -893.89918 
  959000       958498   -6647.3143    692.06824   -7339.3825     4406.477   -11745.859    128.06098   -686.75421   -751.34647   -922.12775   -41.561695    24.782547   -9.6192675      46.7237      46.7237      46.7237           90           90           90     102002.7   -786.74281 
  960000       959498   -6643.5732    718.04319   -7361.6164    4365.2721   -11726.888    132.86741   -402.59448   -432.39182   -377.12205    77.943237    86.611704    115.84009      46.7237      46.7237      46.7237           90           90           90     102002.7   -404.03612 
  961000       960498   -6637.0526    696.08948    -7333.142    4386.5187   -11719.661    128.80507   -322.12648   -539.92524   -461.84073   -126.50014   -77.589779    31.022026      46.7237      46.7237      46.7237           90           90           90     102002.7   -441.29748 
  962000       961498   -6618.3582    728.39194   -7346.7502    4402.9831   -11749.733    134.78235   -778.71909   -1121.4464   -695.59554   -3.8249909    198.00457    20.701916      46.7237      46.7237      46.7237           90           90           90     102002.7   -865.25367 
  963000       962498   -6643.7557    704.39662   -7348.1523    4400.7947   -11748.947    130.34223   -647.01873   -785.93364   -399.48595   -167.70743     11.46054    -28.61776      46.7237      46.7237      46.7237           90           90           90     102002.7   -610.81277 
  964000       963498   -6636.9811    710.08745   -7347.0685    4397.5502   -11744.619    131.39527   -279.30841   -804.20485   -681.83923   -152.55038    102.31075    4.2415443      46.7237      46.7237      46.7237           90           90           90     102002.7   -588.45083 
  965000       964498   -6677.9022    679.49904   -7357.4013     4386.245   -11743.646    125.73516   -528.63415   -648.60396   -896.94693   -43.946739   -82.749868    -176.1402      46.7237      46.7237      46.7237           90           90           90     102002.7   -691.39501 
  966000       965498   -6629.0344    701.98965   -7331.0241    4421.4826   -11752.507    129.89685   -778.31199   -480.48282   -575.69646   -100.28753     172.0068    228.09081      46.7237      46.7237      46.7237           90           90           90     102002.7   -611.49709 
  967000       966498   -6664.6882    701.97815   -7366.6664     4355.294    -11721.96    129.89472   -231.95099   -692.31391   -694.77553    20.332386    182.30478    44.315341      46.7237      46.7237      46.7237           90           90           90     102002.7   -539.68014 
  968000       967498    -6647.069    700.99546   -7348.0644    4394.6348   -11742.699    129.71288   -303.97698   -821.10878   -36.646347   -43.947251    216.80409   -191.59412      46.7237      46.7237      46.7237           90           90           90     102002.7   -387.24404 
  969000       968498   -6617.2683    717.28412   -7334.5524    4412.1994   -11746.752    132.72695   -414.59897   -616.07783   -1076.7508    51.170829   -12.620498   -207.17122      46.7237      46.7237      46.7237           90           90           90     102002.7   -702.47586 
  970000       969498   -6644.2474    684.81476   -7329.0622     4410.594   -11739.656    126.71879   -427.20311   -1099.1411   -715.03416    101.99759    189.22404   -60.542358      46.7237      46.7237      46.7237           90           90           90     102002.7   -747.12612 
  971000       970498   -6636.4006      709.642   -7346.0426    4385.6585   -11731.701    131.31284   -746.17444   -741.27321   -748.14927    76.502179   -172.34039    307.75144      46.7237      46.7237      46.7237           90           90           90     102002.7   -745.19897 
  972000       971498   -6639.6204    709.68776   -7349.3081    4387.2383   -11736.546    131.32131   -262.20729   -425.52982    -678.3694    60.969956   -70.098007   -64.866844      46.7237      46.7237      46.7237           90           90           90     102002.7   -455.36884 
  973000       972498   -6614.2311    707.31976   -7321.5508    4424.8258   -11746.377    130.88313   -1243.6246    -461.4701   -686.69834    100.96532   -5.5684392    117.88798      46.7237      46.7237      46.7237           90           90           90     102002.7   -797.26435 
  974000       973498   -6655.3625    709.09844   -7364.4609    4384.0249   -11748.486    131.21226   -966.80267   -465.42649   -364.46146    338.19031   -268.55416    295.25737      46.7237      46.7237      46.7237           90           90           90     102002.7   -598.89687 
  975000       974498   -6637.9851    714.22195    -7352.207    4386.2128    -11738.42    132.16032   -793.77465   -1050.9829   -742.92465    12.161821    219.48288    79.931587      46.7237      46.7237      46.7237           90           90           90     102002.7   -862.56072 
  976000       975498   -6639.2995    703.48822   -7342.7877    4391.7171   -11734.505    130.17414   -991.76866   -157.26713   -763.05308   -165.62281    -17.47247   -85.015787      46.7237      46.7237      46.7237           90           90           90     102002.7   -637.36296 
  977000       976498   -6672.7005    682.19236   -7354.8929    4405.9632   -11760.856    126.23354   -263.58495   -838.51845   -675.07033    296.99586   -29.003967   -20.809621      46.7237      46.7237      46.7237           90           90           90     102002.7   -592.39124 
  978000       977498   -6642.2474    689.99631   -7332.2437    4389.1701   -11721.414    127.67759   -846.54169   -1099.0467   -460.59618   -52.374208     15.77796    47.404624      46.7237      46.7237      46.7237           90           90           90     102002.7   -802.06153 
  979000       978498   -6666.0195     684.9908   -7351.0103    4383.5604   -11734.571    126.75136   -721.64436   -658.44868   -489.65572    -21.58832    26.485854   -243.89409      46.7237      46.7237      46.7237           90           90           90     102002.7   -623.24959 
  980000       979498   -6618.6372    718.36432   -7337.0015    4418.1661   -11755.168    132.92683   -351.26313   -576.57242    -991.9364    106.81915   -88.521378     228.9668      46.7237      46.7237      46.7237           90           90           90     102002.7   -639.92398 
  981000       980498     -6662.48    696.34146   -7358.8215    4399.6728   -11758.494     128.8517   -745.13833   -1201.0339   -948.26714   -24.533718    99.502843    192.31084      46.7237      46.7237      46.7237           90           90           90     102002.7   -964.81313 
  982000       981498   -6646.7347    701.44254   -7348.1773    4401.9196   -11750.097    129.79561    -892.8936   -1267.5633   -639.67667    81.128325   -28.951163   -107.48385      46.7237      46.7237      46.7237           90           90           90     102002.7   -933.37785 
  983000       982498   -6655.6176    702.64544    -7358.263    4384.5997   -11742.863    130.01819   -973.18432   -1022.9938   -1079.3789    241.82496    34.883283    145.90853      46.7237      46.7237      46.7237           90           90           90     102002.7   -1025.1857 
  984000       983498   -6627.2707     701.9437   -7329.2144    4438.3587   -11767.573    129.88834   -854.29142   -915.92851   -871.77379    118.39851    257.47651    -239.0291      46.7237      46.7237      46.7237           90           90           90     102002.7   -880.66458 
  985000       984498   -6667.0506    688.97284   -7356.0234    4390.0195   -11746.043     127.4882   -603.20481   -712.39074    -905.5481   -36.820026    54.249046    110.87109      46.7237      46.7237      46.7237           90           90           90     102002.7   -740.38122 
  986000       985498   -6643.5084    686.51292   -7330.0213      4410.73   -11740.751    127.03302   -661.12456   -847.29356   -697.90954    91.533292   -213.05847    -104.2211      46.7237      46.7237      46.7237           90           90           90     102002.7   -735.44256 
  987000       986498    -6602.962    710.37371   -7313.3357    4429.7964   -11743.132    131.44824   -633.58415   -1125.3962   -777.93143   -72.200459   -158.10148   -108.80235      46.7237      46.7237      46.7237           90           90           90     102002.7   -845.63726 
  988000       987498   -6643.4668    724.03795   -7367.5047    4402.8439   -11770.349    133.97668   -922.59909   -711.52694   -1004.4976    8.5903412    85.071214    116.36149      46.7237      46.7237      46.7237           90           90           90     102002.7    -879.5412 
  989000       988498   -6640.9052    688.93576   -7329.8409    4406.7763   -11736.617    127.48134   -523.28324   -1155.4097   -772.38772    -235.2841    184.11002   -159.45222      46.7237      46.7237      46.7237           90           90           90     102002.7    -817.0269 
  990000       989498   -6675.1264    690.33568   -7365.4621    4386.3256   -11751.788    127.74038   -1102.3016   -1791.2901   -691.12458    187.29243   -103.82267   -65.078687      46.7237      46.7237      46.7237           90           90           90     102002.7   -1194.9054 
  991000       990498   -6638.6511     693.8396   -7332.4907     4427.131   -11759.622    128.38875    -912.8435   -700.51216   -756.58466   -112.86036   -44.316155    112.95854      46.7237      46.7237      46.7237           90           90           90     102002.7    -789.9801 
  992000       991498   -6625.1579    712.80888   -7337.9668    4417.0217   -11754.988    131.89885   -1078.1598   -612.07261   -1196.1244   -189.48876    191.55623    73.821675      46.7237      46.7237      46.7237           90           90           90     102002.7   -962.11891 
  993000       992498   -6645.3914     706.1505   -7351.5419    4394.2717   -11745.814    130.66677   -495.81167   -764.65639   -992.75263    12.355472   -371.67481    17.412616      46.7237      46.7237      46.7237           90           90           90     102002.7   -751.07356 
  994000       993498   -6607.9677    730.66349   -7338.6312    4398.1042   -11736.735    135.20268   -1079.5979   -901.50112   -758.61966    158.46408   -145.91091    38.364839      46.7237      46.7237      46.7237           90           90           90     102002.7   -913.23955 
  995000       994498   -6631.7574     702.1282   -7333.8856    4417.3445    -11751.23    129.92248   -820.92969   -439.68552   -1039.2018    -69.46524   -138.25368    72.737106      46.7237      46.7237      46.7237           90           90           90     102002.7   -766.60566 
  996000       995498   -6691.4461    660.01845   -7351.4646    4392.4167   -11743.881    122.13045   -410.13998   -1405.5502   -411.12956    363.62098    243.38464    18.425106      46.7237      46.7237      46.7237           90           90           90     102002.7   -742.27325 
  997000       996498    -6632.455    711.41376   -7343.8687    4429.5034   -11773.372    131.64069   -864.80256   -1105.5226   -767.75799    232.35168   -129.41022   -118.31335      46.7237      46.7237      46.7237           90           90           90     102002.7   -912.69439 
  998000       997498    -6663.628    680.75343   -7344.3814    4401.3142   -11745.696    125.96727   -452.10612   -1248.3654   -87.068606    -11.39216    108.82904    36.559844      46.7237      46.7237      46.7237           90           90           90     102002.7   -595.84672 
  999000       998498   -6642.4443    707.06076   -7349.5051    4402.8256   -11752.331    130.83521   -579.56299   -505.80289   -975.64185    35.952922   -360.57053   -9.8254048      46.7237      46.7237      46.7237           90           90           90     102002.7   -687.00257 
 1000000       999498   -6638.2255    705.72444   -7343.9499    4389.5566   -11733.506    130.58793   -863.57544   -692.12824   -716.01129   -11.464336   -41.577228    75.220516      46.7237      46.7237      46.7237           90           90           90     102002.7   -757.23832 
 1000502      1000000   -6631.1675     711.0545    -7342.222     4406.215   -11748.437    131.57421   -749.46624   -917.38951   -1167.9256   -194.72738     232.3341    41.824616      46.7237      46.7237      46.7237           90           90           90     102002.7   -944.92713 
Loop time of 1450.92 on 16 procs for 500000 steps with 1814 atoms

Performance: 29.774 ns/day, 0.806 hours/ns, 344.609 timesteps/s
99.8% CPU use with 16 MPI tasks x no OpenMP threads

MPI task timing breakdown:
Section |  min time  |  avg time  |  max time  |%varavg| %total
---------------------------------------------------------------
Pair    | 605.94     | 804.04     | 1000.6     | 432.0 | 55.42
Bond    | 172.61     | 183.5      | 193.51     |  49.7 | 12.65
Neigh   | 5.6659     | 5.7139     | 5.7816     |   1.6 |  0.39
Comm    | 231.09     | 429.93     | 618.66     | 575.1 | 29.63
Output  | 0.098463   | 0.10333    | 0.10369    |   0.4 |  0.01
Modify  | 21.52      | 22.342     | 23.246     |  11.9 |  1.54
Other   |            | 5.293      |            |       |  0.36

Nlocal:    113.375 ave 155 max 72 min
Histogram: 1 0 1 3 4 2 3 1 0 1
Nghost:    2298.12 ave 2338 max 2254 min
Histogram: 1 1 0 1 2 5 4 1 0 1
Neighs:    11467.5 ave 18764 max 6010 min
Histogram: 1 2 2 3 2 3 1 0 1 1

Total # of neighbors = 183480
Ave neighs/atom = 101.147
Ave special neighs/atom = 6.35061
Neighbor list builds = 4475
Dangerous builds = 0
Total wall time: 0:45:29
