LAMMPS (30 Mar 2018)
Reading data file ...
  orthogonal box = (0 0 0) to (46.7237 46.7237 46.7237)
  2 by 3 by 4 MPI processor grid
  reading atoms ...
  1902 atoms
  scanning bonds ...
  5 = max bonds/atom
  scanning angles ...
  10 = max angles/atom
  scanning dihedrals ...
  32 = max dihedrals/atom
  scanning impropers ...
  3 = max impropers/atom
  reading bonds ...
  2064 bonds
  reading angles ...
  3696 angles
  reading dihedrals ...
  6240 dihedrals
  reading impropers ...
  1008 impropers
Finding 1-2 1-3 1-4 neighbors ...
  special bond factors lj:   0          0          0         
  special bond factors coul: 0          0          0         
  5 = max # of 1-2 neighbors
  8 = max # of 1-3 neighbors
  20 = max # of 1-4 neighbors
  19 = max # of special neighbors
Finding 1-2 1-3 1-4 neighbors ...
  special bond factors lj:   0          0          1         
  special bond factors coul: 1          1          1         
  5 = max # of 1-2 neighbors
  8 = max # of 1-3 neighbors
  19 = max # of special neighbors
WARNING: Using 'neigh_modify every 1 delay 0 check yes' setting during minimization (../min.cpp:168)
Neighbor list info ...
  update every 1 steps, delay 0 steps, check yes
  max neighbors/atom: 2000, page size: 100000
  master list distance cutoff = 16
  ghost atom cutoff = 16
  binsize = 8, bins = 6 6 6
  3 neighbor lists, perpetual/occasional/extra = 3 0 0
  (1) pair buck6d/coul/gauss/dsf, perpetual, skip from (3)
      attributes: half, newton on
      pair build: skip
      stencil: none
      bin: none
  (2) pair lj/cut, perpetual, skip from (3)
      attributes: half, newton on
      pair build: skip
      stencil: none
      bin: none
  (3) neighbor class addition, perpetual
      attributes: half, newton on
      pair build: half/bin/newton
      stencil: half/bin/3d/newton
      bin: standard
Setting up cg style minimization ...
  Unit style    : real
  Current step  : 0
WARNING: Inconsistent image flags (../domain.cpp:786)
Per MPI rank memory allocation (min/avg/max) = 22.88 | 23.29 | 24.43 Mbytes
Step Temp E_pair E_mol TotEng Press 
       0            0   -12038.352    6482.8914   -5555.4609    6090.1658 
     502            0   -12107.764    3729.9709   -8377.7926   -630.21856 
Loop time of 1.2675 on 24 procs for 502 steps with 1902 atoms

99.8% CPU use with 24 MPI tasks x no OpenMP threads

Minimization stats:
  Stopping criterion = max force evaluations
  Energy initial, next-to-last, final = 
        -5555.46094622     -8377.76609207     -8377.79264122
  Force two-norm initial, final = 2576.28 7.74264
  Force max component initial, final = 152.034 0.933688
  Final line search alpha, max atom move = 0.0101045 0.0094345
  Iterations, force evaluations = 502 1000

MPI task timing breakdown:
Section |  min time  |  avg time  |  max time  |%varavg| %total
---------------------------------------------------------------
Pair    | 0.45058    | 0.6513     | 0.83651    |  13.8 | 51.39
Bond    | 0.11732    | 0.15729    | 0.18841    |   4.1 | 12.41
Neigh   | 0.0079472  | 0.0081795  | 0.0085001  |   0.2 |  0.65
Comm    | 0.24414    | 0.42912    | 0.63154    |  17.4 | 33.86
Output  | 0          | 0          | 0          |   0.0 |  0.00
Modify  | 0          | 0          | 0          |   0.0 |  0.00
Other   |            | 0.0216     |            |       |  1.70

Nlocal:    79.25 ave 93 max 62 min
Histogram: 3 1 0 1 2 4 6 3 2 2
Nghost:    2131.71 ave 2307 max 2037 min
Histogram: 14 2 0 0 0 0 0 0 2 6
Neighs:    7632.38 ave 10969 max 3630 min
Histogram: 1 1 1 6 2 3 2 2 3 3

Total # of neighbors = 183177
Ave neighs/atom = 96.3076
Ave special neighs/atom = 6.05678
Neighbor list builds = 12
Dangerous builds = 0
Neighbor list info ...
  update every 1 steps, delay 10 steps, check yes
  max neighbors/atom: 2000, page size: 100000
  master list distance cutoff = 16
  ghost atom cutoff = 16
  binsize = 8, bins = 6 6 6
  3 neighbor lists, perpetual/occasional/extra = 3 0 0
  (1) pair buck6d/coul/gauss/dsf, perpetual, skip from (3)
      attributes: half, newton on
      pair build: skip
      stencil: none
      bin: none
  (2) pair lj/cut, perpetual, skip from (3)
      attributes: half, newton on
      pair build: skip
      stencil: none
      bin: none
  (3) neighbor class addition, perpetual
      attributes: half, newton on
      pair build: half/bin/newton
      stencil: half/bin/3d/newton
      bin: standard
Setting up Verlet run ...
  Unit style    : real
  Current step  : 502
  Time step     : 1
WARNING: Inconsistent image flags (../domain.cpp:786)
Per MPI rank memory allocation (min/avg/max) = 22.53 | 22.73 | 23.3 Mbytes
Step Temp PotEng TotEng Press Volume Lx Ly Lz 
     502          110   -8377.7926   -7754.4755   -350.88039     102002.7      46.7237      46.7237      46.7237 
    1000    96.320332   -7827.6694   -7281.8683   -664.00277     102002.7      46.7237      46.7237      46.7237 
    2000     115.6605   -7730.8534   -7075.4609   -790.95051     102002.7      46.7237      46.7237      46.7237 
    3000    105.65824   -7704.0749   -7105.3604   -983.34137     102002.7      46.7237      46.7237      46.7237 
    4000    106.11162   -7726.2785   -7124.9949   -559.44808     102002.7      46.7237      46.7237      46.7237 
    5000    109.74212   -7728.6507   -7106.7948   -812.68787     102002.7      46.7237      46.7237      46.7237 
    6000    109.91566   -7708.4067   -7085.5674   -871.19942     102002.7      46.7237      46.7237      46.7237 
    7000    113.33373   -7748.6166   -7106.4087   -456.81374     102002.7      46.7237      46.7237      46.7237 
    8000     110.8571   -7703.7729    -7075.599   -874.25418     102002.7      46.7237      46.7237      46.7237 
    9000    112.14359   -7721.0921   -7085.6282   -758.05503     102002.7      46.7237      46.7237      46.7237 
   10000    110.16714   -7719.6761   -7095.4118   -1117.7987     102002.7      46.7237      46.7237      46.7237 
   11000    108.87747   -7715.3811   -7098.4247    -842.9572     102002.7      46.7237      46.7237      46.7237 
   12000    108.75772    -7712.006   -7095.7282   -718.07856     102002.7      46.7237      46.7237      46.7237 
   13000    107.00871     -7728.55    -7122.183   -665.53936     102002.7      46.7237      46.7237      46.7237 
   14000    109.94935     -7742.93   -7119.8998   -881.26562     102002.7      46.7237      46.7237      46.7237 
   15000    111.53157    -7723.352   -7091.3561   -662.25543     102002.7      46.7237      46.7237      46.7237 
   16000    107.44444   -7731.0473   -7122.2113   -858.07363     102002.7      46.7237      46.7237      46.7237 
   17000     107.6922   -7721.7181   -7111.4781   -1035.2903     102002.7      46.7237      46.7237      46.7237 
   18000    108.71437   -7724.0918   -7108.0596   -996.49846     102002.7      46.7237      46.7237      46.7237 
   19000    108.60647   -7718.7188   -7103.2981   -845.61787     102002.7      46.7237      46.7237      46.7237 
   20000    108.84323   -7732.5628   -7115.8004   -981.96978     102002.7      46.7237      46.7237      46.7237 
   21000    107.33636   -7722.3112   -7114.0876   -1004.4824     102002.7      46.7237      46.7237      46.7237 
   22000    107.50054   -7727.9213   -7118.7673   -1086.6545     102002.7      46.7237      46.7237      46.7237 
   23000    109.42688   -7719.1211   -7099.0515   -804.71802     102002.7      46.7237      46.7237      46.7237 
   24000    114.02784    -7706.287    -7060.146   -667.58034     102002.7      46.7237      46.7237      46.7237 
   25000    112.47695   -7725.1758   -7087.8229   -810.98398     102002.7      46.7237      46.7237      46.7237 
   26000    110.07712   -7722.9194   -7099.1652   -685.65183     102002.7      46.7237      46.7237      46.7237 
   27000    112.79714   -7721.1159   -7081.9486   -952.44757     102002.7      46.7237      46.7237      46.7237 
   28000    109.83108   -7709.4468   -7087.0868   -995.38252     102002.7      46.7237      46.7237      46.7237 
   29000    112.40315   -7741.8695   -7104.9348   -962.39407     102002.7      46.7237      46.7237      46.7237 
   30000    109.46933   -7727.7297   -7107.4196   -1084.9199     102002.7      46.7237      46.7237      46.7237 
   31000    112.00888   -7727.9423   -7093.2418   -825.76297     102002.7      46.7237      46.7237      46.7237 
   32000    108.05119   -7728.6321   -7116.3579   -849.39976     102002.7      46.7237      46.7237      46.7237 
   33000    112.11683    -7707.271   -7071.9587   -555.66274     102002.7      46.7237      46.7237      46.7237 
   34000    111.02236   -7728.0588   -7098.9484   -789.43189     102002.7      46.7237      46.7237      46.7237 
   35000    106.68808   -7700.9144   -7096.3643   -893.49902     102002.7      46.7237      46.7237      46.7237 
   36000    112.00445   -7710.5224   -7075.8469   -693.71227     102002.7      46.7237      46.7237      46.7237 
   37000    111.29627   -7715.1161   -7084.4536   -821.03203     102002.7      46.7237      46.7237      46.7237 
   38000    107.70311   -7740.7647   -7130.4629   -865.08894     102002.7      46.7237      46.7237      46.7237 
   39000    109.70521    -7704.737   -7083.0903   -880.97873     102002.7      46.7237      46.7237      46.7237 
   40000    110.09231   -7725.5434   -7101.7032    -409.0842     102002.7      46.7237      46.7237      46.7237 
   41000    109.62037   -7719.6482   -7098.4822   -536.15158     102002.7      46.7237      46.7237      46.7237 
   42000    112.21747   -7714.8703   -7078.9878   -466.93533     102002.7      46.7237      46.7237      46.7237 
   43000    105.30391   -7710.5255   -7113.8188   -787.71958     102002.7      46.7237      46.7237      46.7237 
   44000    109.17632   -7700.3076   -7081.6578   -696.87536     102002.7      46.7237      46.7237      46.7237 
   45000    108.69471   -7719.1721   -7103.2513    -673.8015     102002.7      46.7237      46.7237      46.7237 
   46000     105.2678   -7722.8688   -7126.3667   -600.28333     102002.7      46.7237      46.7237      46.7237 
   47000    110.46794   -7710.2589   -7084.2902    -844.3904     102002.7      46.7237      46.7237      46.7237 
   48000    113.99759   -7707.8323   -7061.8627   -894.50339     102002.7      46.7237      46.7237      46.7237 
   49000    109.33668   -7735.3662   -7115.8077   -837.47706     102002.7      46.7237      46.7237      46.7237 
   50000    109.96924     -7704.87   -7081.7272   -923.84302     102002.7      46.7237      46.7237      46.7237 
   51000    109.46901   -7701.8523   -7081.5439   -719.17151     102002.7      46.7237      46.7237      46.7237 
   52000    109.03745   -7726.3045   -7108.4417   -868.45561     102002.7      46.7237      46.7237      46.7237 
   53000    109.03328   -7698.6725   -7080.8332   -919.20486     102002.7      46.7237      46.7237      46.7237 
   54000    113.18445   -7703.7093   -7062.3474   -636.08041     102002.7      46.7237      46.7237      46.7237 
   55000    113.44238   -7716.4101   -7073.5866   -855.11813     102002.7      46.7237      46.7237      46.7237 
   56000    111.35374   -7723.1995   -7092.2113    -1003.605     102002.7      46.7237      46.7237      46.7237 
   57000    109.39179    -7699.629   -7079.7583   -924.10251     102002.7      46.7237      46.7237      46.7237 
   58000    111.74845   -7725.7325   -7092.5077   -798.48717     102002.7      46.7237      46.7237      46.7237 
   59000    106.51257   -7715.1435   -7111.5879   -618.73217     102002.7      46.7237      46.7237      46.7237 
   60000    111.64364   -7719.7346   -7087.1037   -877.71806     102002.7      46.7237      46.7237      46.7237 
   61000    114.70805   -7705.5053   -7055.5099    -1066.747     102002.7      46.7237      46.7237      46.7237 
   62000    107.17746    -7711.731   -7104.4078   -754.45033     102002.7      46.7237      46.7237      46.7237 
   63000    108.54759    -7707.145   -7092.0579   -875.51939     102002.7      46.7237      46.7237      46.7237 
   64000    108.25179    -7709.566    -7096.155   -831.67843     102002.7      46.7237      46.7237      46.7237 
   65000    107.85374   -7727.7027   -7116.5474   -940.99533     102002.7      46.7237      46.7237      46.7237 
   66000    109.29532   -7737.5155   -7118.1914   -885.71958     102002.7      46.7237      46.7237      46.7237 
   67000    109.86123   -7728.1866   -7105.6557   -819.12534     102002.7      46.7237      46.7237      46.7237 
   68000    110.09407   -7710.3536   -7086.5033   -848.68587     102002.7      46.7237      46.7237      46.7237 
   69000    112.25133   -7724.2965   -7088.2221   -669.00169     102002.7      46.7237      46.7237      46.7237 
   70000    110.60066   -7709.0825   -7082.3616   -673.37929     102002.7      46.7237      46.7237      46.7237 
   71000    108.83307    -7708.308   -7091.6033   -451.94969     102002.7      46.7237      46.7237      46.7237 
   72000    108.01584   -7720.1234   -7108.0495    -720.2774     102002.7      46.7237      46.7237      46.7237 
   73000    107.09765   -7720.4184   -7113.5474   -715.34742     102002.7      46.7237      46.7237      46.7237 
   74000    112.82883   -7724.7237   -7085.3768   -676.37443     102002.7      46.7237      46.7237      46.7237 
   75000    107.08281   -7718.6168   -7111.8299   -785.23755     102002.7      46.7237      46.7237      46.7237 
   76000       109.76   -7718.6797   -7096.7225   -473.36655     102002.7      46.7237      46.7237      46.7237 
   77000    108.93322   -7711.5142    -7094.242   -653.37039     102002.7      46.7237      46.7237      46.7237 
   78000    107.26725    -7718.786    -7110.954   -890.24251     102002.7      46.7237      46.7237      46.7237 
   79000    115.01336    -7715.453   -7063.7275   -865.53406     102002.7      46.7237      46.7237      46.7237 
   80000    107.60708   -7712.5582   -7102.8006   -977.68029     102002.7      46.7237      46.7237      46.7237 
   81000    112.01428   -7718.2908   -7083.5597   -555.11154     102002.7      46.7237      46.7237      46.7237 
   82000    109.09198   -7718.4754   -7100.3035    -472.6154     102002.7      46.7237      46.7237      46.7237 
   83000    108.51912   -7718.6325   -7103.7068   -749.95394     102002.7      46.7237      46.7237      46.7237 
   84000    109.17625   -7689.1658   -7070.5164   -801.42591     102002.7      46.7237      46.7237      46.7237 
   85000    109.17928   -7723.5879   -7104.9214   -588.99161     102002.7      46.7237      46.7237      46.7237 
   86000    110.16506   -7732.2658   -7108.0133   -788.19262     102002.7      46.7237      46.7237      46.7237 
   87000    111.69451     -7720.32   -7087.4008   -844.56541     102002.7      46.7237      46.7237      46.7237 
   88000    106.20961      -7732.6   -7130.7611   -518.01547     102002.7      46.7237      46.7237      46.7237 
   89000    111.80184   -7718.2808   -7084.7535   -858.23166     102002.7      46.7237      46.7237      46.7237 
   90000    107.52009    -7685.763   -7076.4982   -1066.5826     102002.7      46.7237      46.7237      46.7237 
   91000    110.62947   -7710.9817   -7084.0976   -1208.4961     102002.7      46.7237      46.7237      46.7237 
   92000    109.15119   -7713.3724    -7094.865   -1077.6594     102002.7      46.7237      46.7237      46.7237 
   93000    107.99286   -7695.1629   -7083.2193   -1079.8245     102002.7      46.7237      46.7237      46.7237 
   94000    110.82447   -7717.9938   -7090.0047   -864.35916     102002.7      46.7237      46.7237      46.7237 
   95000    111.05787   -7705.3054   -7075.9938   -1020.2055     102002.7      46.7237      46.7237      46.7237 
   96000    107.50515   -7702.7892   -7093.6091   -1020.0876     102002.7      46.7237      46.7237      46.7237 
   97000    107.85393   -7721.5664     -7110.41   -667.00663     102002.7      46.7237      46.7237      46.7237 
   98000    112.65122   -7737.4578   -7099.1174   -849.37618     102002.7      46.7237      46.7237      46.7237 
   99000    111.48872   -7730.0491   -7098.2961   -766.75156     102002.7      46.7237      46.7237      46.7237 
  100000    111.14579   -7737.6063   -7107.7965   -673.05121     102002.7      46.7237      46.7237      46.7237 
  101000    109.27269   -7739.5554   -7120.3595   -841.32254     102002.7      46.7237      46.7237      46.7237 
  102000    110.72917   -7730.6655   -7103.2165   -1064.5576     102002.7      46.7237      46.7237      46.7237 
  103000    113.57485   -7719.2057   -7075.6315   -790.70958     102002.7      46.7237      46.7237      46.7237 
  104000    108.60405   -7727.9414   -7112.5343   -926.19192     102002.7      46.7237      46.7237      46.7237 
  105000    110.44944   -7712.8458   -7086.9819   -539.17459     102002.7      46.7237      46.7237      46.7237 
  106000    111.22909   -7703.5539    -7073.272   -627.91353     102002.7      46.7237      46.7237      46.7237 
  107000     107.2252   -7720.9688    -7113.375   -751.06506     102002.7      46.7237      46.7237      46.7237 
  108000    111.65943   -7721.5339   -7088.8135   -481.24346     102002.7      46.7237      46.7237      46.7237 
  109000    112.21715   -7689.2865   -7053.4058   -1069.9022     102002.7      46.7237      46.7237      46.7237 
  110000     108.5691   -7718.8031   -7103.5941   -713.24985     102002.7      46.7237      46.7237      46.7237 
  111000    107.21435   -7730.8348   -7123.3025   -612.00694     102002.7      46.7237      46.7237      46.7237 
  112000    112.09811   -7720.3993   -7085.1932    -965.2867     102002.7      46.7237      46.7237      46.7237 
  113000    108.02412   -7706.4358    -7094.315   -716.90513     102002.7      46.7237      46.7237      46.7237 
  114000    111.25832    -7717.419   -7086.9715   -733.65774     102002.7      46.7237      46.7237      46.7237 
  115000    112.10884   -7733.5771   -7098.3101   -582.57371     102002.7      46.7237      46.7237      46.7237 
  116000    109.89116   -7724.6503   -7101.9498   -547.62996     102002.7      46.7237      46.7237      46.7237 
  117000    112.00808   -7719.2621    -7084.566   -810.27315     102002.7      46.7237      46.7237      46.7237 
  118000    112.29035   -7706.1352   -7069.8397   -1093.7926     102002.7      46.7237      46.7237      46.7237 
  119000    110.45385   -7734.3482   -7108.4592   -832.04952     102002.7      46.7237      46.7237      46.7237 
  120000    107.36275   -7694.1337   -7085.7606   -819.13647     102002.7      46.7237      46.7237      46.7237 
  121000    109.05502    -7729.248   -7111.2856   -861.87217     102002.7      46.7237      46.7237      46.7237 
  122000    111.69058   -7664.8616   -7031.9647   -794.67755     102002.7      46.7237      46.7237      46.7237 
  123000     110.2841   -7714.7065   -7089.7795   -1229.0058     102002.7      46.7237      46.7237      46.7237 
  124000    108.51637   -7714.6738   -7099.7636   -1041.2633     102002.7      46.7237      46.7237      46.7237 
  125000    110.24081     -7711.19   -7086.5083   -904.97778     102002.7      46.7237      46.7237      46.7237 
  126000    111.90506   -7723.9821   -7089.8699   -788.46732     102002.7      46.7237      46.7237      46.7237 
  127000    109.14955   -7720.2207   -7101.7226   -685.19053     102002.7      46.7237      46.7237      46.7237 
  128000    110.50938   -7717.4799   -7091.2763   -754.01481     102002.7      46.7237      46.7237      46.7237 
  129000    112.53303   -7721.8751   -7084.2044    -340.1045     102002.7      46.7237      46.7237      46.7237 
  130000    110.50226   -7691.7689   -7065.6057   -713.96623     102002.7      46.7237      46.7237      46.7237 
  131000    108.96053   -7728.6941   -7111.2671   -730.60705     102002.7      46.7237      46.7237      46.7237 
  132000    112.17669   -7717.5316   -7081.8801   -515.36976     102002.7      46.7237      46.7237      46.7237 
  133000    111.43568   -7708.7816   -7077.3291   -617.10732     102002.7      46.7237      46.7237      46.7237 
  134000    109.64021   -7713.9235    -7092.645   -702.81275     102002.7      46.7237      46.7237      46.7237 
  135000      113.573   -7725.3077    -7081.744   -683.24257     102002.7      46.7237      46.7237      46.7237 
  136000    109.79078   -7715.0924   -7092.9607   -633.12612     102002.7      46.7237      46.7237      46.7237 
  137000    110.23561   -7701.0256   -7076.3733   -761.08058     102002.7      46.7237      46.7237      46.7237 
  138000    110.95121   -7696.1792    -7067.472   -694.15475     102002.7      46.7237      46.7237      46.7237 
  139000    110.62707   -7715.9889   -7089.1185   -416.32839     102002.7      46.7237      46.7237      46.7237 
  140000    108.22252    -7728.616   -7115.3709   -558.76366     102002.7      46.7237      46.7237      46.7237 
  141000    107.71069   -7722.8238    -7112.479    -854.3033     102002.7      46.7237      46.7237      46.7237 
  142000    111.59836   -7729.0136   -7096.6392   -741.14463     102002.7      46.7237      46.7237      46.7237 
  143000    109.32622   -7705.0524   -7085.5532   -703.74933     102002.7      46.7237      46.7237      46.7237 
  144000    108.61497   -7695.2755   -7079.8066   -749.07528     102002.7      46.7237      46.7237      46.7237 
  145000    111.98089   -7742.1128   -7107.5709   -323.34246     102002.7      46.7237      46.7237      46.7237 
  146000    111.70419   -7709.4672   -7076.4932   -574.98764     102002.7      46.7237      46.7237      46.7237 
  147000    106.57846   -7706.7128   -7102.7838   -854.15668     102002.7      46.7237      46.7237      46.7237 
  148000    111.00556   -7725.2478   -7096.2326   -914.01681     102002.7      46.7237      46.7237      46.7237 
  149000    110.47776   -7705.9796   -7079.9552    -837.6019     102002.7      46.7237      46.7237      46.7237 
  150000    107.56172   -7708.3285   -7098.8278   -744.70184     102002.7      46.7237      46.7237      46.7237 
  151000    109.93721   -7732.3553   -7109.3939   -754.49422     102002.7      46.7237      46.7237      46.7237 
  152000    110.27617   -7734.3537   -7109.4716   -761.71268     102002.7      46.7237      46.7237      46.7237 
  153000    111.27138   -7700.2744   -7069.7528   -256.03092     102002.7      46.7237      46.7237      46.7237 
  154000    113.36011   -7727.2301   -7084.8728   -876.02096     102002.7      46.7237      46.7237      46.7237 
  155000    108.93296    -7729.667   -7112.3962   -590.44059     102002.7      46.7237      46.7237      46.7237 
  156000    109.52612   -7710.9135   -7090.2816   -985.81097     102002.7      46.7237      46.7237      46.7237 
  157000    110.26762   -7690.0528   -7065.2191    -643.5172     102002.7      46.7237      46.7237      46.7237 
  158000    109.59472   -7723.1596   -7102.1389   -533.33184     102002.7      46.7237      46.7237      46.7237 
  159000    111.17905    -7679.656   -7049.6577   -635.49676     102002.7      46.7237      46.7237      46.7237 
  160000    107.34141   -7727.5812   -7119.3289   -485.85111     102002.7      46.7237      46.7237      46.7237 
  161000    108.35856   -7709.9199    -7095.904   -942.00562     102002.7      46.7237      46.7237      46.7237 
  162000    112.15146   -7730.2315    -7094.723   -874.12446     102002.7      46.7237      46.7237      46.7237 
  163000    109.21461   -7730.5597   -7111.6929    -760.3278     102002.7      46.7237      46.7237      46.7237 
  164000    109.86575   -7725.2115   -7102.6551   -708.57688     102002.7      46.7237      46.7237      46.7237 
  165000    110.20564   -7714.8535    -7090.371   -836.72122     102002.7      46.7237      46.7237      46.7237 
  166000    111.87482   -7725.8117   -7091.8708   -934.82236     102002.7      46.7237      46.7237      46.7237 
  167000    107.63281   -7704.8316   -7094.9281   -729.20492     102002.7      46.7237      46.7237      46.7237 
  168000    111.89328   -7718.6052   -7084.5597   -861.39271     102002.7      46.7237      46.7237      46.7237 
  169000     111.2932   -7720.8172   -7090.1721   -610.93816     102002.7      46.7237      46.7237      46.7237 
  170000    110.32447   -7733.4349   -7108.2791   -721.55448     102002.7      46.7237      46.7237      46.7237 
  171000    108.57916   -7713.2409    -7097.975   -1079.5993     102002.7      46.7237      46.7237      46.7237 
  172000    106.13729   -7704.1182   -7102.6891   -831.49688     102002.7      46.7237      46.7237      46.7237 
  173000    109.47474   -7720.4294   -7100.0885    -1035.284     102002.7      46.7237      46.7237      46.7237 
  174000    106.26758   -7726.8661   -7124.6987   -497.24898     102002.7      46.7237      46.7237      46.7237 
  175000     107.4632     -7689.55   -7080.6077   -949.06147     102002.7      46.7237      46.7237      46.7237 
  176000    106.95716   -7708.4146   -7102.3398   -925.21355     102002.7      46.7237      46.7237      46.7237 
  177000    112.13985   -7727.4807    -7092.038   -582.26604     102002.7      46.7237      46.7237      46.7237 
  178000    110.81044   -7729.5496   -7101.6401   -720.24105     102002.7      46.7237      46.7237      46.7237 
  179000     105.4133   -7715.1035   -7117.7769    -420.2093     102002.7      46.7237      46.7237      46.7237 
  180000    109.45098   -7702.2518   -7082.0456   -775.53808     102002.7      46.7237      46.7237      46.7237 
  181000    103.46922   -7718.8485   -7132.5381   -666.88249     102002.7      46.7237      46.7237      46.7237 
  182000    111.29535   -7722.6636   -7092.0062   -993.32887     102002.7      46.7237      46.7237      46.7237 
  183000     110.7603   -7707.9048   -7080.2793   -738.93544     102002.7      46.7237      46.7237      46.7237 
  184000    113.13191   -7716.0988   -7075.0346   -798.02945     102002.7      46.7237      46.7237      46.7237 
  185000    108.44563   -7725.3904    -7110.881    -722.7262     102002.7      46.7237      46.7237      46.7237 
  186000    108.86649   -7705.0781    -7088.184   -883.26411     102002.7      46.7237      46.7237      46.7237 
  187000    106.05641   -7717.2008     -7116.23   -711.51772     102002.7      46.7237      46.7237      46.7237 
  188000    109.08624    -7731.073   -7112.9336   -646.45266     102002.7      46.7237      46.7237      46.7237 
  189000    110.81323   -7712.7227   -7084.7974   -791.42845     102002.7      46.7237      46.7237      46.7237 
  190000    106.40914   -7711.1199   -7108.1504   -702.08836     102002.7      46.7237      46.7237      46.7237 
  191000    110.88582   -7706.9856   -7078.6489   -591.96378     102002.7      46.7237      46.7237      46.7237 
  192000    107.54982   -7720.6339   -7111.2007   -828.90366     102002.7      46.7237      46.7237      46.7237 
  193000    109.24252   -7715.8149     -7096.79   -569.58791     102002.7      46.7237      46.7237      46.7237 
  194000    106.02249   -7712.5167   -7111.7382   -781.85767     102002.7      46.7237      46.7237      46.7237 
  195000    110.94323   -7698.9994   -7070.3374   -928.06283     102002.7      46.7237      46.7237      46.7237 
  196000    112.19462   -7720.7713   -7085.0182   -645.68596     102002.7      46.7237      46.7237      46.7237 
  197000    110.20917   -7725.1297   -7100.6272   -805.65834     102002.7      46.7237      46.7237      46.7237 
  198000    110.32759   -7706.5833   -7081.4099   -436.12701     102002.7      46.7237      46.7237      46.7237 
  199000    112.02113   -7726.5141   -7091.7441    -661.0321     102002.7      46.7237      46.7237      46.7237 
  200000    110.69913   -7712.3642   -7085.0853   -596.39333     102002.7      46.7237      46.7237      46.7237 
  201000    108.65888    -7722.685   -7106.9673    -585.3353     102002.7      46.7237      46.7237      46.7237 
  202000    108.87322     -7730.34   -7113.4077   -840.71509     102002.7      46.7237      46.7237      46.7237 
  203000     111.5522   -7721.6998    -7089.587   -600.80449     102002.7      46.7237      46.7237      46.7237 
  204000    110.88756   -7703.0523   -7074.7058   -820.80344     102002.7      46.7237      46.7237      46.7237 
  205000    111.85558     -7712.12   -7078.2881   -706.48208     102002.7      46.7237      46.7237      46.7237 
  206000    111.28807   -7723.2994   -7092.6833   -735.93874     102002.7      46.7237      46.7237      46.7237 
  207000    109.52878   -7725.9089   -7105.2619   -747.84947     102002.7      46.7237      46.7237      46.7237 
  208000    111.63115    -7700.525   -7067.9649   -661.11226     102002.7      46.7237      46.7237      46.7237 
  209000    108.74888   -7716.5803   -7100.3527   -808.42753     102002.7      46.7237      46.7237      46.7237 
  210000    114.25893   -7716.8335    -7069.383    -682.1341     102002.7      46.7237      46.7237      46.7237 
  211000    110.47753   -7724.8609   -7098.8378   -916.29114     102002.7      46.7237      46.7237      46.7237 
  212000     111.4924   -7719.9555   -7088.1816   -708.40249     102002.7      46.7237      46.7237      46.7237 
  213000    112.78495   -7711.7732   -7072.6751   -893.20246     102002.7      46.7237      46.7237      46.7237 
  214000    111.72036   -7705.6878   -7072.6221   -785.94988     102002.7      46.7237      46.7237      46.7237 
  215000    107.48596    -7709.382   -7100.3107   -664.49296     102002.7      46.7237      46.7237      46.7237 
  216000    109.85113   -7697.0316    -7074.558   -1010.2056     102002.7      46.7237      46.7237      46.7237 
  217000    109.34185   -7728.8912   -7109.3034   -690.30259     102002.7      46.7237      46.7237      46.7237 
  218000    108.74524   -7686.2401    -7070.033   -911.49644     102002.7      46.7237      46.7237      46.7237 
  219000    106.48705   -7707.6552   -7104.2442   -795.13841     102002.7      46.7237      46.7237      46.7237 
  220000    112.27324   -7702.5848   -7066.3862   -702.13152     102002.7      46.7237      46.7237      46.7237 
  221000    107.96895   -7720.4563    -7108.648   -506.27072     102002.7      46.7237      46.7237      46.7237 
  222000    110.54098   -7715.1541   -7088.7715   -758.68396     102002.7      46.7237      46.7237      46.7237 
  223000    110.49805   -7723.6834    -7097.544   -640.29076     102002.7      46.7237      46.7237      46.7237 
  224000    112.32845   -7718.2784    -7081.767   -1001.4206     102002.7      46.7237      46.7237      46.7237 
  225000    106.45549   -7717.2712    -7114.039   -863.10607     102002.7      46.7237      46.7237      46.7237 
  226000     107.5729   -7695.0075   -7085.4436   -666.85722     102002.7      46.7237      46.7237      46.7237 
  227000     106.5418   -7734.1502   -7130.4289   -912.05672     102002.7      46.7237      46.7237      46.7237 
  228000    109.95583   -7711.8129    -7088.746   -808.79654     102002.7      46.7237      46.7237      46.7237 
  229000    112.30302   -7715.1719   -7078.8046   -872.06697     102002.7      46.7237      46.7237      46.7237 
  230000    110.17146   -7682.6268   -7058.3381   -1023.9707     102002.7      46.7237      46.7237      46.7237 
  231000    112.35799   -7721.8945   -7085.2157   -912.39375     102002.7      46.7237      46.7237      46.7237 
  232000    106.77332    -7711.991   -7106.9578    -872.5062     102002.7      46.7237      46.7237      46.7237 
  233000    109.60511   -7734.2534   -7113.1739   -731.53056     102002.7      46.7237      46.7237      46.7237 
  234000    109.84031   -7697.1783   -7074.7661   -919.26928     102002.7      46.7237      46.7237      46.7237 
  235000    110.99648   -7714.2855   -7085.3217   -811.37172     102002.7      46.7237      46.7237      46.7237 
  236000    105.53569   -7698.7008   -7100.6806   -904.71385     102002.7      46.7237      46.7237      46.7237 
  237000     106.8169   -7696.5415   -7091.2614   -826.86858     102002.7      46.7237      46.7237      46.7237 
  238000    111.04144   -7703.8017   -7074.5831   -395.84578     102002.7      46.7237      46.7237      46.7237 
  239000    110.22871   -7695.9293   -7071.3161   -748.79485     102002.7      46.7237      46.7237      46.7237 
  240000     107.7021   -7703.6641    -7093.368   -716.65072     102002.7      46.7237      46.7237      46.7237 
  241000    110.30166   -7706.8988   -7081.8722   -850.25207     102002.7      46.7237      46.7237      46.7237 
  242000    106.88397   -7732.7316   -7127.0714   -1001.5766     102002.7      46.7237      46.7237      46.7237 
  243000    110.16505   -7698.2237   -7073.9713   -865.92225     102002.7      46.7237      46.7237      46.7237 
  244000    106.56373   -7699.2839   -7095.4384   -961.82132     102002.7      46.7237      46.7237      46.7237 
  245000     110.1126   -7704.3612   -7080.4059   -674.16471     102002.7      46.7237      46.7237      46.7237 
  246000     109.0906    -7716.965    -7098.801   -862.07985     102002.7      46.7237      46.7237      46.7237 
  247000    110.18967   -7734.2994   -7109.9075   -931.67147     102002.7      46.7237      46.7237      46.7237 
  248000    109.78062   -7722.9399   -7100.8658   -713.05033     102002.7      46.7237      46.7237      46.7237 
  249000    106.83608    -7729.703   -7124.3142   -716.77685     102002.7      46.7237      46.7237      46.7237 
  250000    113.14124   -7720.6391    -7079.522   -925.59561     102002.7      46.7237      46.7237      46.7237 
  251000    110.20833   -7723.7881   -7099.2905   -752.15032     102002.7      46.7237      46.7237      46.7237 
  252000    110.99134   -7716.5256    -7087.591    -765.7154     102002.7      46.7237      46.7237      46.7237 
  253000    112.39156   -7702.2161   -7065.3471   -873.75887     102002.7      46.7237      46.7237      46.7237 
  254000    111.81347   -7717.0804   -7083.4871   -993.71926     102002.7      46.7237      46.7237      46.7237 
  255000    108.73186    -7717.855   -7101.7238   -876.38459     102002.7      46.7237      46.7237      46.7237 
  256000     106.5493   -7706.6907    -7102.927   -785.18697     102002.7      46.7237      46.7237      46.7237 
  257000    111.43078   -7737.2347   -7105.8099   -826.20052     102002.7      46.7237      46.7237      46.7237 
  258000     109.6034    -7723.223   -7102.1531   -1046.0324     102002.7      46.7237      46.7237      46.7237 
  259000     109.7864   -7711.7485   -7089.6416   -804.46387     102002.7      46.7237      46.7237      46.7237 
  260000    109.27898   -7732.9877   -7113.7562   -463.86898     102002.7      46.7237      46.7237      46.7237 
  261000    104.92178   -7727.7016   -7133.1603    -917.8322     102002.7      46.7237      46.7237      46.7237 
  262000    110.71709    -7731.919   -7104.5384   -866.46202     102002.7      46.7237      46.7237      46.7237 
  263000    109.52709   -7741.8967   -7121.2592   -782.44273     102002.7      46.7237      46.7237      46.7237 
  264000    112.11661   -7719.6201   -7084.3091   -667.33956     102002.7      46.7237      46.7237      46.7237 
  265000    110.54849    -7724.068   -7097.6428   -924.20718     102002.7      46.7237      46.7237      46.7237 
  266000    108.80815   -7739.9526   -7123.3891   -864.56657     102002.7      46.7237      46.7237      46.7237 
  267000    109.23108   -7728.1924   -7109.2324   -752.74852     102002.7      46.7237      46.7237      46.7237 
  268000    109.85749    -7720.733   -7098.2233    -1009.457     102002.7      46.7237      46.7237      46.7237 
  269000    107.98185    -7713.662   -7101.7806   -709.33465     102002.7      46.7237      46.7237      46.7237 
  270000    110.93698   -7705.2247   -7076.5981   -876.33382     102002.7      46.7237      46.7237      46.7237 
  271000    108.47256   -7737.1554   -7122.4935    -684.1381     102002.7      46.7237      46.7237      46.7237 
  272000    109.03937   -7719.7944   -7101.9206   -913.74177     102002.7      46.7237      46.7237      46.7237 
  273000    114.32952   -7712.5356   -7064.6851   -522.87221     102002.7      46.7237      46.7237      46.7237 
  274000    110.35555   -7727.8334   -7102.5015   -557.50179     102002.7      46.7237      46.7237      46.7237 
  275000     108.8302    -7716.102   -7099.4135   -923.53784     102002.7      46.7237      46.7237      46.7237 
  276000    109.47907   -7719.9734   -7099.6081   -740.67228     102002.7      46.7237      46.7237      46.7237 
  277000    109.07584   -7715.2923   -7097.2119   -774.89389     102002.7      46.7237      46.7237      46.7237 
  278000    104.78622   -7721.1408   -7127.3676   -621.11852     102002.7      46.7237      46.7237      46.7237 
  279000    109.25358   -7713.8666   -7094.7789   -995.43995     102002.7      46.7237      46.7237      46.7237 
  280000    113.76664   -7713.0165   -7068.3556   -1006.1565     102002.7      46.7237      46.7237      46.7237 
  281000    106.40167   -7709.7717   -7106.8445   -687.11353     102002.7      46.7237      46.7237      46.7237 
  282000    111.97739    -7708.822   -7074.2999   -1079.7458     102002.7      46.7237      46.7237      46.7237 
  283000     109.8489   -7725.5498   -7103.0888   -779.75713     102002.7      46.7237      46.7237      46.7237 
  284000    112.77153   -7697.2247   -7058.2025   -802.45706     102002.7      46.7237      46.7237      46.7237 
  285000     113.1304   -7711.9907   -7070.9351   -780.43826     102002.7      46.7237      46.7237      46.7237 
  286000    107.55879   -7707.6845   -7098.2005   -413.20554     102002.7      46.7237      46.7237      46.7237 
  287000    108.14591   -7730.9813   -7118.1703   -900.51089     102002.7      46.7237      46.7237      46.7237 
  288000     109.8802   -7720.5086   -7097.8703   -826.02922     102002.7      46.7237      46.7237      46.7237 
  289000    108.54369   -7709.4786   -7094.4136   -758.33039     102002.7      46.7237      46.7237      46.7237 
  290000    108.88154   -7712.8234    -7095.844   -811.82015     102002.7      46.7237      46.7237      46.7237 
  291000     107.4049   -7713.5016   -7104.8897   -761.50349     102002.7      46.7237      46.7237      46.7237 
  292000     110.4879   -7699.7916   -7073.7097   -827.53012     102002.7      46.7237      46.7237      46.7237 
  293000    108.79096   -7719.3928   -7102.9267   -708.26903     102002.7      46.7237      46.7237      46.7237 
  294000    110.90226   -7724.0709   -7095.6411   -658.85358     102002.7      46.7237      46.7237      46.7237 
  295000    113.53243   -7710.9025   -7067.5688   -697.21465     102002.7      46.7237      46.7237      46.7237 
  296000    108.58301   -7704.1125   -7088.8247   -728.87673     102002.7      46.7237      46.7237      46.7237 
  297000    111.37278   -7723.1014   -7092.0053   -486.20921     102002.7      46.7237      46.7237      46.7237 
  298000    108.82873   -7739.2306   -7122.5504   -765.39035     102002.7      46.7237      46.7237      46.7237 
  299000    108.06242   -7718.7099    -7106.372   -612.78183     102002.7      46.7237      46.7237      46.7237 
  300000    116.77558   -7699.1614   -7037.4503   -518.98624     102002.7      46.7237      46.7237      46.7237 
  301000    110.43092   -7729.7125   -7103.9535   -782.91734     102002.7      46.7237      46.7237      46.7237 
  302000    107.04734   -7728.0266   -7121.4408    -699.3622     102002.7      46.7237      46.7237      46.7237 
  303000    111.69522   -7715.1678   -7082.2446   -729.07002     102002.7      46.7237      46.7237      46.7237 
  304000    109.94204   -7708.6837    -7085.695   -518.64859     102002.7      46.7237      46.7237      46.7237 
  305000    108.72531   -7725.9131    -7109.819   -798.13256     102002.7      46.7237      46.7237      46.7237 
  306000    113.80165   -7713.0175   -7068.1582   -816.07812     102002.7      46.7237      46.7237      46.7237 
  307000    109.25889   -7714.3393   -7095.2216   -668.33904     102002.7      46.7237      46.7237      46.7237 
  308000    107.48958   -7734.3406   -7125.2488   -943.54732     102002.7      46.7237      46.7237      46.7237 
  309000    112.32044   -7713.5311    -7077.065   -933.54616     102002.7      46.7237      46.7237      46.7237 
  310000    108.87854   -7707.0835   -7090.1211   -994.16403     102002.7      46.7237      46.7237      46.7237 
  311000    105.52072   -7740.0178   -7142.0825   -1135.7414     102002.7      46.7237      46.7237      46.7237 
  312000    110.91858   -7713.9602   -7085.4379   -590.02858     102002.7      46.7237      46.7237      46.7237 
  313000    110.45926   -7754.0086    -7128.089    -616.9947     102002.7      46.7237      46.7237      46.7237 
  314000     107.6119   -7705.4043   -7095.6193   -936.69194     102002.7      46.7237      46.7237      46.7237 
  315000    112.28888   -7706.5642    -7070.277   -647.34545     102002.7      46.7237      46.7237      46.7237 
  316000    109.22051   -7723.7983   -7104.8981    -936.2226     102002.7      46.7237      46.7237      46.7237 
  317000    111.31278   -7693.7511    -7062.995   -840.14358     102002.7      46.7237      46.7237      46.7237 
  318000    110.63394   -7727.9408   -7101.0314   -680.83251     102002.7      46.7237      46.7237      46.7237 
  319000    109.31189   -7706.5289   -7087.1109   -593.93239     102002.7      46.7237      46.7237      46.7237 
  320000    113.11319   -7721.4394   -7080.4812   -650.74007     102002.7      46.7237      46.7237      46.7237 
  321000    107.91258   -7712.5794   -7101.0906   -968.03077     102002.7      46.7237      46.7237      46.7237 
  322000    109.32337   -7723.6072   -7104.1242   -775.40253     102002.7      46.7237      46.7237      46.7237 
  323000    109.98749   -7700.2737   -7077.0274   -719.08858     102002.7      46.7237      46.7237      46.7237 
  324000    109.60684   -7715.5429   -7094.4535   -712.34167     102002.7      46.7237      46.7237      46.7237 
  325000    107.23152    -7722.845   -7115.2155   -994.57583     102002.7      46.7237      46.7237      46.7237 
  326000    108.13629   -7707.8416   -7095.0852   -633.14038     102002.7      46.7237      46.7237      46.7237 
  327000    110.43684   -7734.2526   -7108.4601   -712.63948     102002.7      46.7237      46.7237      46.7237 
  328000    111.13155   -7742.7448   -7113.0157   -626.83842     102002.7      46.7237      46.7237      46.7237 
  329000    113.16972   -7717.8537   -7076.5753    -1032.322     102002.7      46.7237      46.7237      46.7237 
  330000    108.87795    -7740.158   -7123.1989   -821.52537     102002.7      46.7237      46.7237      46.7237 
  331000    112.09122   -7741.1592   -7105.9921   -838.05379     102002.7      46.7237      46.7237      46.7237 
  332000    110.31915   -7715.8391   -7090.7135    -970.3579     102002.7      46.7237      46.7237      46.7237 
  333000      109.148   -7729.4518   -7110.9625    -759.3058     102002.7      46.7237      46.7237      46.7237 
  334000      108.203   -7735.5101   -7122.3756   -979.93505     102002.7      46.7237      46.7237      46.7237 
  335000     113.8699   -7727.9947   -7082.7487   -613.32239     102002.7      46.7237      46.7237      46.7237 
  336000    111.47166   -7740.6689   -7109.0125   -838.18965     102002.7      46.7237      46.7237      46.7237 
  337000    108.05447   -7738.7535   -7126.4607   -829.01803     102002.7      46.7237      46.7237      46.7237 
  338000    115.26254   -7700.7572   -7047.6198   -694.00254     102002.7      46.7237      46.7237      46.7237 
  339000    108.90975   -7717.0829   -7099.9436   -928.42724     102002.7      46.7237      46.7237      46.7237 
  340000    109.34771     -7724.49    -7104.869   -705.97015     102002.7      46.7237      46.7237      46.7237 
  341000    108.80059   -7737.1229   -7120.6022   -577.45763     102002.7      46.7237      46.7237      46.7237 
  342000    107.94138    -7696.916   -7085.2641   -809.64664     102002.7      46.7237      46.7237      46.7237 
  343000     108.3203   -7733.7787   -7119.9795   -738.21347     102002.7      46.7237      46.7237      46.7237 
  344000    111.90654    -7723.747   -7089.6263   -937.21538     102002.7      46.7237      46.7237      46.7237 
  345000    104.75991   -7710.7002   -7117.0762   -973.45783     102002.7      46.7237      46.7237      46.7237 
  346000    108.08256   -7708.7612   -7096.3093   -701.91426     102002.7      46.7237      46.7237      46.7237 
  347000    108.42514   -7723.3085   -7108.9153   -828.96197     102002.7      46.7237      46.7237      46.7237 
  348000    109.21785   -7714.3479   -7095.4627    -767.8068     102002.7      46.7237      46.7237      46.7237 
  349000    111.49852   -7732.9656    -7101.157   -738.12245     102002.7      46.7237      46.7237      46.7237 
  350000    110.53429   -7714.6888    -7088.344   -944.47087     102002.7      46.7237      46.7237      46.7237 
  351000    107.24818   -7716.1098   -7108.3858   -984.19785     102002.7      46.7237      46.7237      46.7237 
  352000    115.26422    -7716.448    -7063.301   -950.15241     102002.7      46.7237      46.7237      46.7237 
  353000    109.68325   -7719.6615   -7098.1391   -511.29542     102002.7      46.7237      46.7237      46.7237 
  354000    110.73477   -7744.4853   -7117.0046   -729.57491     102002.7      46.7237      46.7237      46.7237 
  355000    107.41902   -7699.6559   -7090.9639   -569.62716     102002.7      46.7237      46.7237      46.7237 
  356000    112.30525   -7727.9461   -7091.5662   -646.67089     102002.7      46.7237      46.7237      46.7237 
  357000    106.96889   -7735.7189   -7129.5775    -635.7291     102002.7      46.7237      46.7237      46.7237 
  358000    108.02835   -7702.4812   -7090.3364   -595.13129     102002.7      46.7237      46.7237      46.7237 
  359000    110.61179   -7714.5365   -7087.7526   -617.55058     102002.7      46.7237      46.7237      46.7237 
  360000     111.0434   -7722.4115   -7093.1818   -525.13362     102002.7      46.7237      46.7237      46.7237 
  361000    110.27225   -7730.3576   -7105.4977   -732.33167     102002.7      46.7237      46.7237      46.7237 
  362000    107.11234   -7707.8976   -7100.9434   -864.53551     102002.7      46.7237      46.7237      46.7237 
  363000    112.27987   -7733.3047   -7097.0686   -564.79569     102002.7      46.7237      46.7237      46.7237 
  364000    108.49486   -7721.8109   -7107.0226   -796.93096     102002.7      46.7237      46.7237      46.7237 
  365000    107.98867   -7728.6851   -7116.7651   -763.70705     102002.7      46.7237      46.7237      46.7237 
  366000     110.4043   -7706.6786   -7081.0704   -584.67293     102002.7      46.7237      46.7237      46.7237 
  367000    105.81354   -7719.0219   -7119.4273   -871.74258     102002.7      46.7237      46.7237      46.7237 
  368000    109.07093   -7733.1548   -7115.1022   -753.42121     102002.7      46.7237      46.7237      46.7237 
  369000    111.28897   -7723.2832    -7092.662   -600.92738     102002.7      46.7237      46.7237      46.7237 
  370000    108.28865   -7712.3879   -7098.7681   -777.07511     102002.7      46.7237      46.7237      46.7237 
  371000    113.72684   -7717.5586   -7073.1232   -780.83565     102002.7      46.7237      46.7237      46.7237 
  372000    108.51341   -7735.2235   -7120.3301   -694.93865     102002.7      46.7237      46.7237      46.7237 
  373000    111.51256   -7703.2363   -7071.3481   -709.68218     102002.7      46.7237      46.7237      46.7237 
  374000    109.02163   -7720.0324   -7102.2591   -769.01823     102002.7      46.7237      46.7237      46.7237 
  375000    105.41038   -7714.8287   -7117.5187   -683.50045     102002.7      46.7237      46.7237      46.7237 
  376000    109.76649   -7726.3144   -7104.3204   -890.10433     102002.7      46.7237      46.7237      46.7237 
  377000    111.93434   -7706.2369   -7071.9587   -724.36368     102002.7      46.7237      46.7237      46.7237 
  378000    110.91749   -7715.2453   -7086.7291   -475.10065     102002.7      46.7237      46.7237      46.7237 
  379000    113.02528   -7747.9163   -7107.4563   -901.39414     102002.7      46.7237      46.7237      46.7237 
  380000    108.07277   -7730.9888   -7118.5923   -786.05069     102002.7      46.7237      46.7237      46.7237 
  381000    108.87921   -7715.8941   -7098.9279   -887.18552     102002.7      46.7237      46.7237      46.7237 
  382000    109.52116   -7721.1028    -7100.499   -606.57615     102002.7      46.7237      46.7237      46.7237 
  383000    108.61713   -7744.7557   -7129.2746   -552.08179     102002.7      46.7237      46.7237      46.7237 
  384000    109.08676   -7716.3199   -7098.1776   -618.27441     102002.7      46.7237      46.7237      46.7237 
  385000    111.20527   -7719.8459   -7089.6991   -464.36584     102002.7      46.7237      46.7237      46.7237 
  386000    107.89443   -7719.3422   -7107.9563   -746.72188     102002.7      46.7237      46.7237      46.7237 
  387000    113.33164   -7723.3527   -7081.1568    -846.6972     102002.7      46.7237      46.7237      46.7237 
  388000    109.64869   -7719.3325    -7098.006   -585.04347     102002.7      46.7237      46.7237      46.7237 
  389000    107.44593   -7722.0032   -7113.1587   -521.07639     102002.7      46.7237      46.7237      46.7237 
  390000    110.09608    -7746.702   -7122.8404     -755.952     102002.7      46.7237      46.7237      46.7237 
  391000    108.20649   -7673.6961   -7060.5418   -705.00808     102002.7      46.7237      46.7237      46.7237 
  392000    109.28261   -7747.5773   -7128.3253    -571.6044     102002.7      46.7237      46.7237      46.7237 
  393000     107.6495   -7717.2023   -7107.2043   -660.62243     102002.7      46.7237      46.7237      46.7237 
  394000    112.14111   -7725.0568   -7089.6069   -1161.7066     102002.7      46.7237      46.7237      46.7237 
  395000    111.28356   -7716.1338   -7085.5432   -675.76276     102002.7      46.7237      46.7237      46.7237 
  396000    111.12062   -7723.7725   -7094.1053   -703.83504     102002.7      46.7237      46.7237      46.7237 
  397000    114.16255   -7722.2393   -7075.3349   -792.28659     102002.7      46.7237      46.7237      46.7237 
  398000    106.38427   -7711.4933   -7108.6647   -655.77255     102002.7      46.7237      46.7237      46.7237 
  399000    108.74554   -7726.3935   -7110.1847   -900.44702     102002.7      46.7237      46.7237      46.7237 
  400000     113.3671   -7733.8207   -7091.4238   -597.84882     102002.7      46.7237      46.7237      46.7237 
  401000    107.55677   -7717.9738   -7108.5012   -749.71815     102002.7      46.7237      46.7237      46.7237 
  402000    109.33939   -7712.9456   -7093.3718   -714.88348     102002.7      46.7237      46.7237      46.7237 
  403000    105.69186   -7694.3976   -7095.4926   -569.55385     102002.7      46.7237      46.7237      46.7237 
  404000    109.30278   -7715.8998   -7096.5334   -832.95299     102002.7      46.7237      46.7237      46.7237 
  405000    108.57078   -7708.1776   -7092.9591   -727.12349     102002.7      46.7237      46.7237      46.7237 
  406000    110.57609   -7733.3693   -7106.7877   -708.11198     102002.7      46.7237      46.7237      46.7237 
  407000    112.86857   -7714.7051   -7075.1331   -842.99591     102002.7      46.7237      46.7237      46.7237 
  408000    106.96891   -7727.6873   -7121.5458   -1021.1525     102002.7      46.7237      46.7237      46.7237 
  409000    109.31818   -7709.8675   -7090.4138   -667.52127     102002.7      46.7237      46.7237      46.7237 
  410000    113.04336   -7720.3972   -7079.8348   -769.29412     102002.7      46.7237      46.7237      46.7237 
  411000    106.49717   -7717.8474   -7114.3791   -837.44333     102002.7      46.7237      46.7237      46.7237 
  412000    108.67866     -7716.78   -7100.9502   -912.57342     102002.7      46.7237      46.7237      46.7237 
  413000    110.14455   -7715.5811   -7091.4449   -759.51822     102002.7      46.7237      46.7237      46.7237 
  414000    108.23515   -7726.6715   -7113.3549   -1298.0682     102002.7      46.7237      46.7237      46.7237 
  415000     106.6339   -7725.1927   -7120.9496   -927.48801     102002.7      46.7237      46.7237      46.7237 
  416000    109.09226   -7721.1641   -7102.9906    -746.7642     102002.7      46.7237      46.7237      46.7237 
  417000    110.00089   -7698.8107   -7075.4884   -854.13685     102002.7      46.7237      46.7237      46.7237 
  418000    105.10468   -7744.8861   -7149.3084   -988.85197     102002.7      46.7237      46.7237      46.7237 
  419000    109.14248   -7704.3497   -7085.8916   -972.20977     102002.7      46.7237      46.7237      46.7237 
  420000    113.27643     -7708.82   -7066.9369   -1081.0266     102002.7      46.7237      46.7237      46.7237 
  421000    110.99436   -7734.2683   -7105.3166   -690.16705     102002.7      46.7237      46.7237      46.7237 
  422000     109.6678   -7679.9817   -7058.5469   -697.75822     102002.7      46.7237      46.7237      46.7237 
  423000    107.87265   -7722.8499   -7111.5874   -720.05354     102002.7      46.7237      46.7237      46.7237 
  424000    110.40583    -7695.323   -7069.7062   -621.80926     102002.7      46.7237      46.7237      46.7237 
  425000    111.75526   -7719.2871   -7086.0237    -890.2272     102002.7      46.7237      46.7237      46.7237 
  426000    113.00336   -7710.3442   -7070.0084   -851.45101     102002.7      46.7237      46.7237      46.7237 
  427000    108.53848   -7722.2955   -7107.2601   -571.01461     102002.7      46.7237      46.7237      46.7237 
  428000    108.58257   -7705.4398   -7090.1546   -778.99946     102002.7      46.7237      46.7237      46.7237 
  429000    112.11796   -7706.4571   -7071.1385   -520.71557     102002.7      46.7237      46.7237      46.7237 
  430000    110.19245   -7728.1294   -7103.7217   -865.88123     102002.7      46.7237      46.7237      46.7237 
  431000    108.31792   -7710.8444   -7097.0588   -658.92367     102002.7      46.7237      46.7237      46.7237 
  432000    111.37881   -7703.1224   -7071.9922   -995.63997     102002.7      46.7237      46.7237      46.7237 
  433000    107.83398   -7729.7562   -7118.7128   -659.06946     102002.7      46.7237      46.7237      46.7237 
  434000    108.99635    -7708.676    -7091.046   -452.49532     102002.7      46.7237      46.7237      46.7237 
  435000    113.37517   -7701.1049   -7058.6622   -743.41754     102002.7      46.7237      46.7237      46.7237 
  436000    110.75728   -7732.0673    -7104.459   -662.66767     102002.7      46.7237      46.7237      46.7237 
  437000    113.29015    -7735.234   -7093.2731   -744.22974     102002.7      46.7237      46.7237      46.7237 
  438000    111.16386   -7724.3227   -7094.4105   -286.43041     102002.7      46.7237      46.7237      46.7237 
  439000    108.92022   -7709.2862   -7092.0876   -663.47007     102002.7      46.7237      46.7237      46.7237 
  440000     109.9278   -7728.6914   -7105.7834   -682.46285     102002.7      46.7237      46.7237      46.7237 
  441000    112.53308   -7707.2571   -7069.5862   -662.82967     102002.7      46.7237      46.7237      46.7237 
  442000    109.66152    -7731.516   -7110.1169   -664.42333     102002.7      46.7237      46.7237      46.7237 
  443000    109.89608   -7714.4408   -7091.7124    -687.7991     102002.7      46.7237      46.7237      46.7237 
  444000    110.08662   -7730.5045   -7106.6965   -750.98832     102002.7      46.7237      46.7237      46.7237 
  445000    108.71454   -7711.8955   -7095.8624   -800.35539     102002.7      46.7237      46.7237      46.7237 
  446000    111.90378   -7708.7878   -7074.6829   -274.42439     102002.7      46.7237      46.7237      46.7237 
  447000    109.86978   -7729.3578   -7106.7785   -615.68237     102002.7      46.7237      46.7237      46.7237 
  448000    111.13126   -7723.0714   -7093.3439   -658.12116     102002.7      46.7237      46.7237      46.7237 
  449000    110.48826   -7680.2107   -7054.1267   -935.63417     102002.7      46.7237      46.7237      46.7237 
  450000    110.27101   -7719.9622   -7095.1094   -537.43679     102002.7      46.7237      46.7237      46.7237 
  451000    109.77706   -7696.8547   -7074.8008   -675.36259     102002.7      46.7237      46.7237      46.7237 
  452000    108.22031   -7714.5087   -7101.2761   -768.66897     102002.7      46.7237      46.7237      46.7237 
  453000    113.44211    -7706.665   -7063.8431   -662.89867     102002.7      46.7237      46.7237      46.7237 
  454000    111.27261   -7714.2456   -7083.7172   -838.60574     102002.7      46.7237      46.7237      46.7237 
  455000    112.07623   -7721.3387   -7086.2566    -782.9665     102002.7      46.7237      46.7237      46.7237 
  456000     107.3602   -7720.9934   -7112.6347   -1084.7898     102002.7      46.7237      46.7237      46.7237 
  457000    109.15912   -7708.8194   -7090.2671   -691.85267     102002.7      46.7237      46.7237      46.7237 
  458000    110.68039   -7698.1581   -7070.9855   -645.27413     102002.7      46.7237      46.7237      46.7237 
  459000    110.04132   -7711.5552   -7088.0038    -611.4732     102002.7      46.7237      46.7237      46.7237 
  460000    107.07845   -7712.0725   -7105.3104   -1026.7692     102002.7      46.7237      46.7237      46.7237 
  461000    109.70456   -7715.6546   -7094.0116   -686.34954     102002.7      46.7237      46.7237      46.7237 
  462000    109.91595   -7734.5204   -7111.6795   -858.67078     102002.7      46.7237      46.7237      46.7237 
  463000    109.58978    -7710.588   -7089.5953    -521.9313     102002.7      46.7237      46.7237      46.7237 
  464000    108.81234   -7701.0319   -7084.4447   -464.46623     102002.7      46.7237      46.7237      46.7237 
  465000    110.00308   -7726.9308   -7103.5962   -902.11415     102002.7      46.7237      46.7237      46.7237 
  466000    108.19226   -7710.5269   -7097.4533   -817.92497     102002.7      46.7237      46.7237      46.7237 
  467000    110.49433   -7715.6036   -7089.4853   -1093.6825     102002.7      46.7237      46.7237      46.7237 
  468000    109.19686   -7717.4048   -7098.6386   -688.56997     102002.7      46.7237      46.7237      46.7237 
  469000     111.4849   -7703.5627   -7071.8312   -732.61561     102002.7      46.7237      46.7237      46.7237 
  470000    108.91582   -7707.2887   -7090.1151   -692.47079     102002.7      46.7237      46.7237      46.7237 
  471000    105.61028    -7729.121   -7130.6783   -1355.8872     102002.7      46.7237      46.7237      46.7237 
  472000    110.10647   -7708.9829   -7085.0624   -1050.9744     102002.7      46.7237      46.7237      46.7237 
  473000    110.76899   -7740.2401   -7112.5655   -1009.8223     102002.7      46.7237      46.7237      46.7237 
  474000    111.19459   -7734.1568   -7104.0704   -767.56712     102002.7      46.7237      46.7237      46.7237 
  475000    113.54955   -7711.3836   -7067.9528   -843.65881     102002.7      46.7237      46.7237      46.7237 
  476000    110.87833   -7714.3205   -7086.0263   -833.95243     102002.7      46.7237      46.7237      46.7237 
  477000    110.01496   -7706.4869   -7083.0849    -683.0185     102002.7      46.7237      46.7237      46.7237 
  478000    108.12538   -7692.0675   -7079.3729   -607.60885     102002.7      46.7237      46.7237      46.7237 
  479000    107.02627   -7724.6898   -7118.2233   -579.51927     102002.7      46.7237      46.7237      46.7237 
  480000     108.2649    -7733.092   -7119.6068   -848.86634     102002.7      46.7237      46.7237      46.7237 
  481000    109.74189   -7700.3416    -7078.487   -555.07951     102002.7      46.7237      46.7237      46.7237 
  482000    108.95728   -7725.1016    -7107.693   -569.23351     102002.7      46.7237      46.7237      46.7237 
  483000    110.48256   -7710.9858   -7084.9342   -792.22807     102002.7      46.7237      46.7237      46.7237 
  484000    114.06913   -7704.5855   -7058.2105   -552.82933     102002.7      46.7237      46.7237      46.7237 
  485000    107.98211   -7714.6902   -7102.8075   -749.38497     102002.7      46.7237      46.7237      46.7237 
  486000    106.26932   -7715.1107   -7112.9335   -778.85066     102002.7      46.7237      46.7237      46.7237 
  487000    109.69634   -7713.9352   -7092.3387   -840.07005     102002.7      46.7237      46.7237      46.7237 
  488000    110.65089   -7750.9106   -7123.9051   -667.52669     102002.7      46.7237      46.7237      46.7237 
  489000    112.07293   -7723.6293   -7088.5659    -940.6908     102002.7      46.7237      46.7237      46.7237 
  490000    110.44726   -7733.7547    -7107.903    -824.3261     102002.7      46.7237      46.7237      46.7237 
  491000    109.41259   -7720.0719   -7100.0833   -895.39817     102002.7      46.7237      46.7237      46.7237 
  492000    112.18488   -7702.7365   -7067.0386   -804.03857     102002.7      46.7237      46.7237      46.7237 
  493000    108.12761   -7701.4628   -7088.7555    -998.2115     102002.7      46.7237      46.7237      46.7237 
  494000    109.59414    -7716.266   -7095.2486   -747.11525     102002.7      46.7237      46.7237      46.7237 
  495000    111.94355   -7710.1468   -7075.8165   -941.01795     102002.7      46.7237      46.7237      46.7237 
  496000    112.85013   -7730.7567   -7091.2892   -780.68932     102002.7      46.7237      46.7237      46.7237 
  497000    111.24071   -7717.2083   -7086.8606   -865.02454     102002.7      46.7237      46.7237      46.7237 
  498000    108.81918   -7708.0044   -7091.3783   -892.89244     102002.7      46.7237      46.7237      46.7237 
  499000    105.24994   -7711.7482   -7115.3473   -876.37585     102002.7      46.7237      46.7237      46.7237 
  500000    111.17332   -7700.6654   -7070.6996   -819.50119     102002.7      46.7237      46.7237      46.7237 
  500502    109.83679   -7693.5993    -7071.207   -722.32692     102002.7      46.7237      46.7237      46.7237 
Loop time of 627.206 on 24 procs for 500000 steps with 1902 atoms

Performance: 68.877 ns/day, 0.348 hours/ns, 797.186 timesteps/s
99.7% CPU use with 24 MPI tasks x no OpenMP threads

MPI task timing breakdown:
Section |  min time  |  avg time  |  max time  |%varavg| %total
---------------------------------------------------------------
Pair    | 165.43     | 291.7      | 417.09     | 478.3 | 46.51
Bond    | 57.872     | 78.319     | 100.97     | 150.1 | 12.49
Neigh   | 2.9138     | 2.9391     | 2.9571     |   0.8 |  0.47
Comm    | 102.29     | 246.61     | 383.01     | 591.4 | 39.32
Output  | 0.37377    | 0.37433    | 0.38325    |   0.3 |  0.06
Modify  | 3.4416     | 4.0973     | 4.7084     |  19.6 |  0.65
Other   |            | 3.174      |            |       |  0.51

Nlocal:    79.25 ave 106 max 56 min
Histogram: 2 0 2 6 5 2 2 3 0 2
Nghost:    2149.58 ave 2289 max 2053 min
Histogram: 4 10 2 0 0 0 0 0 0 8
Neighs:    7636.58 ave 12360 max 3988 min
Histogram: 2 4 5 0 4 2 1 3 1 2

Total # of neighbors = 183278
Ave neighs/atom = 96.3607
Ave special neighs/atom = 6.05678
Neighbor list builds = 4237
Dangerous builds = 0
Neighbor list info ...
  update every 1 steps, delay 10 steps, check yes
  max neighbors/atom: 2000, page size: 100000
  master list distance cutoff = 16
  ghost atom cutoff = 16
  binsize = 8, bins = 6 6 6
  3 neighbor lists, perpetual/occasional/extra = 3 0 0
  (1) pair buck6d/coul/gauss/dsf, perpetual, skip from (3)
      attributes: half, newton on
      pair build: skip
      stencil: none
      bin: none
  (2) pair lj/cut, perpetual, skip from (3)
      attributes: half, newton on
      pair build: skip
      stencil: none
      bin: none
  (3) neighbor class addition, perpetual
      attributes: half, newton on
      pair build: half/bin/newton
      stencil: half/bin/3d/newton
      bin: standard
Setting up Verlet run ...
  Unit style    : real
  Current step  : 500502
  Time step     : 1
WARNING: Inconsistent image flags (../domain.cpp:786)
Per MPI rank memory allocation (min/avg/max) = 24.14 | 24.48 | 24.58 Mbytes
Step Time TotEng KinEng PotEng E_mol E_pair Temp Pxx Pyy Pzz Pxy Pxz Pyz Cella Cellb Cellc CellAlpha CellBeta CellGamma Volume Press 
  500502       500000    -7071.207    622.39233   -7693.5993    4316.9321   -12010.531    109.83679   -543.60366   -727.77269   -895.60441    74.909716    -4.219682   -34.957413      46.7237      46.7237      46.7237           90           90           90     102002.7   -722.32692 
  501000       500498   -7078.5874    627.14813   -7705.7356    4314.8213   -12020.557    110.67607   -687.06746   -711.12577   -801.86088    45.963557    128.78243    77.179068      46.7237      46.7237      46.7237           90           90           90     102002.7   -733.35137 
  502000       501498    -7102.761    612.38307   -7715.1441    4320.2462    -12035.39     108.0704   -711.98604   -910.16928   -868.85667   -39.869858    79.103367    59.078371      46.7237      46.7237      46.7237           90           90           90     102002.7   -830.33733 
  503000       502498    -7111.535    609.33966   -7720.8747    4291.3884   -12012.263    107.53331   -524.86039   -586.21958    -915.2552    225.88839    10.906586    54.123002      46.7237      46.7237      46.7237           90           90           90     102002.7   -675.44506 
  504000       503498   -7071.0549    637.20626   -7708.2612    4308.6921   -12016.953    112.45108   -1133.4631   -1282.0858   -991.50558     269.8372    51.774484    15.479702      46.7237      46.7237      46.7237           90           90           90     102002.7   -1135.6848 
  505000       504498   -7088.8455    631.19006   -7720.0356    4301.6886   -12021.724    111.38937   -506.31165   -1311.3799   -726.65575     -129.927   -199.82879    446.95003      46.7237      46.7237      46.7237           90           90           90     102002.7   -848.11578 
  506000       505498   -7123.7741     615.6943   -7739.4684    4290.9095   -12030.378    108.65475   -988.50991   -386.79867   -731.17438    98.951116   -36.652181   -1.2136928      46.7237      46.7237      46.7237           90           90           90     102002.7   -702.16099 
  507000       506498   -7104.6219    608.92971   -7713.5516    4324.5081    -12038.06    107.46097     -1013.79   -1007.6418   -760.56641   -29.401337    101.05875    54.800127      46.7237      46.7237      46.7237           90           90           90     102002.7   -927.33276 
  508000       507498   -7070.9972    629.68044   -7700.6777    4294.5759   -11995.254    111.12295    -461.4089   -940.84027   -653.40419   -122.84228    8.8124775   -14.918395      46.7237      46.7237      46.7237           90           90           90     102002.7   -685.21779 
  509000       508498   -7105.2237    616.40486   -7721.6286    4296.3122   -12017.941    108.78015   -939.29669   -630.16718   -1084.9703    -56.91213    50.247858   -48.863672      46.7237      46.7237      46.7237           90           90           90     102002.7   -884.81139 
  510000       509498   -7121.4433    622.79988   -7744.2432    4264.9646   -12009.208    109.90871   -418.59168   -586.43501   -510.83832   -266.28513    55.688511   -61.119069      46.7237      46.7237      46.7237           90           90           90     102002.7   -505.28834 
  511000       510498   -7070.4643    653.59069    -7724.055    4299.0543   -12023.109    115.34252   -799.25016   -464.60336   -652.04177   -264.46816    267.06846   -68.809776      46.7237      46.7237      46.7237           90           90           90     102002.7   -638.63176 
  512000       511498   -7113.6931    617.69297   -7731.3861    4279.6393   -12011.025    109.00746   -1043.9032   -133.17018   -731.48756    113.27531    -161.1955   -114.03177      46.7237      46.7237      46.7237           90           90           90     102002.7   -636.18699 
  513000       512498   -7114.2261    615.79248   -7730.0186    4274.6864   -12004.705    108.67208   -872.64366   -718.64544   -283.95129    90.341616   -106.06332   -152.60207      46.7237      46.7237      46.7237           90           90           90     102002.7   -625.08013 
  514000       513498   -7103.9639     619.9098   -7723.8737    4300.9601   -12024.834    109.39868   -917.99062   -922.23586   -1037.7176    270.11477    30.355866    90.224821      46.7237      46.7237      46.7237           90           90           90     102002.7    -959.3147 
  515000       514498   -7112.9071    616.61568   -7729.5228    4291.4148   -12020.938    108.81735   -485.92009   -753.72521   -873.58104    120.88596   -301.69188    91.628667      46.7237      46.7237      46.7237           90           90           90     102002.7   -704.40878 
  516000       515498   -7082.2641    620.77013   -7703.0342    4305.5605   -12008.595    109.55051   -1177.1546   -685.46838   -1101.8065     61.64269   -331.77395   -110.46359      46.7237      46.7237      46.7237           90           90           90     102002.7   -988.14314 
  517000       516498   -7078.1153    624.53296   -7702.6483    4307.3332   -12009.981    110.21455   -1000.4632   -555.23547   -957.99227   -165.23895    95.512089   -128.71512      46.7237      46.7237      46.7237           90           90           90     102002.7   -837.89698 
  518000       517498   -7113.8123    621.30751   -7735.1198    4284.3118   -12019.432    109.64534   -635.02038   -754.45881   -251.93599   -191.74712    134.33921   -45.573425      46.7237      46.7237      46.7237           90           90           90     102002.7   -547.13839 
  519000       518498   -7089.1578    624.18311   -7713.3409    4297.1557   -12010.497    110.15281   -796.52788   -918.62893   -805.49209    89.003593    108.45769   -205.80641      46.7237      46.7237      46.7237           90           90           90     102002.7    -840.2163 
  520000       519498   -7151.7242    596.74645   -7748.4706    4290.3818   -12038.852    105.31092   -869.19907   -895.91849   -686.35359    155.80198   -80.928041    152.68801      46.7237      46.7237      46.7237           90           90           90     102002.7   -817.15705 
  521000       520498   -7072.0046    644.21796   -7716.2225    4298.9313   -12015.154    113.68847   -840.28726   -730.66205   -727.83168   -181.76446    106.75731   -79.309493      46.7237      46.7237      46.7237           90           90           90     102002.7   -766.26033 
  522000       521498   -7085.5222    623.60616   -7709.1283     4315.388   -12024.516      110.051   -1003.4605   -935.32089   -420.42011    52.658486    3.2757444   -22.166695      46.7237      46.7237      46.7237           90           90           90     102002.7   -786.40051 
  523000       522498   -7108.6245    612.81578   -7721.4403    4304.9403   -12026.381    108.14676   -1243.7458   -892.91788   -954.25409   -4.0994974   -227.79217     157.0278      46.7237      46.7237      46.7237           90           90           90     102002.7   -1030.3059 
  524000       523498   -7090.5875    625.72659   -7716.3141    4312.0288   -12028.343     110.4252   -942.88866   -481.55664   -675.97342   -44.219172    241.20383    195.93362      46.7237      46.7237      46.7237           90           90           90     102002.7   -700.13957 
  525000       524498   -7078.8315    625.61656   -7704.4481    4311.4187   -12015.867    110.40578   -799.16249   -937.01453   -476.19361    148.19618    177.57428   -252.34313      46.7237      46.7237      46.7237           90           90           90     102002.7   -737.45688 
  526000       525498   -7095.3522    624.18235   -7719.5346    4299.0434   -12018.578    110.15268   -574.14135   -993.45226   -499.07802    79.036095    101.14408   -139.03762      46.7237      46.7237      46.7237           90           90           90     102002.7   -688.89054 
  527000       526498   -7101.1129    625.08239   -7726.1953    4288.8491   -12015.044    110.31151   -1384.4596   -689.58582   -873.52853   -230.65542    15.586914   -23.706472      46.7237      46.7237      46.7237           90           90           90     102002.7   -982.52465 
  528000       527498   -7104.4137    626.75041   -7731.1641    4285.7954    -12016.96    110.60588   -592.76234   -884.24635   -188.50161   -78.915452   -346.08629    183.01883      46.7237      46.7237      46.7237           90           90           90     102002.7    -555.1701 
  529000       528498    -7067.818    625.31601   -7693.1341    4308.2968   -12001.431    110.35274   -339.44005   -863.79664   -773.70195   -45.030205   -46.819285   -20.234698      46.7237      46.7237      46.7237           90           90           90     102002.7   -658.97955 
  530000       529498   -7096.9491    624.27453   -7721.2236    4296.8359    -12018.06    110.16895   -826.16587   -933.86437   -699.44695    129.72065   -90.264295   -237.37048      46.7237      46.7237      46.7237           90           90           90     102002.7   -819.82573 
  531000       530498   -7071.9216     623.2718   -7695.1934    4327.4251   -12022.619    109.99199   -672.89898   -849.06224   -971.17903    75.171501   -267.58679   -83.653889      46.7237      46.7237      46.7237           90           90           90     102002.7   -831.04675 
  532000       531498   -7083.4896    638.71015   -7722.1998    4288.1296   -12010.329    112.71647   -1022.0358   -846.36454   -859.52472     116.3168    333.63419    84.787423      46.7237      46.7237      46.7237           90           90           90     102002.7   -909.30835 
  533000       532498   -7087.0689    627.84533   -7714.9142    4310.4756    -12025.39     110.7991   -702.95822   -767.10724   -673.16861   -54.015574     27.34308    17.610589      46.7237      46.7237      46.7237           90           90           90     102002.7   -714.41135 
  534000       533498   -7093.7631    617.63258   -7711.3956    4315.2588   -12026.654    108.99681   -802.32266   -942.52488   -1140.8924    153.85209    9.2223584   -63.694118      46.7237      46.7237      46.7237           90           90           90     102002.7   -961.91333 
  535000       534498   -7127.4623    596.36314   -7723.8255    4292.2862   -12016.112    105.24328   -1026.7804   -944.78231   -905.67317    89.093809    -61.85611   -178.25845      46.7237      46.7237      46.7237           90           90           90     102002.7   -959.07862 
  536000       535498   -7099.5005    614.28082   -7713.7813    4301.9673   -12015.749    108.40531   -1101.4021   -1099.2979     -752.968   -143.81126   -62.958801   -147.24849      46.7237      46.7237      46.7237           90           90           90     102002.7   -984.55601 
  537000       536498   -7087.9739    627.10479   -7715.0787    4310.9457   -12026.024    110.66842   -985.69826   -1128.7232    -503.2732    184.49157    183.03325   -81.350838      46.7237      46.7237      46.7237           90           90           90     102002.7    -872.5649 
  538000       537498    -7098.928    618.48013   -7717.4081    4308.8287   -12026.237    109.14638   -879.03332   -950.38744   -838.02344   -88.869515    25.825256    300.83179      46.7237      46.7237      46.7237           90           90           90     102002.7   -889.14806 
  539000       538498   -7118.6346     616.5315   -7735.1661    4275.5249   -12010.691    108.80249   -393.56933    -815.9299   -399.33216   -328.19267    84.747595    138.67034      46.7237      46.7237      46.7237           90           90           90     102002.7   -536.27713 
  540000       539498   -7095.6035    617.87661   -7713.4801    4318.8172   -12032.297    109.03987   -1156.1171   -1020.3236   -1242.9171    256.46574   -193.67245   -67.231643      46.7237      46.7237      46.7237           90           90           90     102002.7   -1139.7859 
  541000       540498    -7067.202     642.9366   -7710.1386    4310.1821   -12020.321    113.46234   -865.37087   -721.86351   -528.02347      -128.21   -166.94199    172.68531      46.7237      46.7237      46.7237           90           90           90     102002.7   -705.08595 
  542000       541498   -7086.0976    631.97294   -7718.0706    4308.3553   -12026.426    111.52752    -827.3544   -995.99237   -420.58418   -45.345063    21.116007   -124.20198      46.7237      46.7237      46.7237           90           90           90     102002.7   -747.97698 
  543000       542498   -7097.2022    607.55265   -7704.7549     4303.649   -12008.404    107.21795   -863.76154    -600.9815   -689.86154    102.54936    24.793695   -22.441271      46.7237      46.7237      46.7237           90           90           90     102002.7   -718.20153 
  544000       543498   -7113.5948    599.48556   -7713.0804    4306.3923   -12019.473    105.79431   -881.67931   -373.49839   -753.48858    20.043491   -60.631439   -12.593904      46.7237      46.7237      46.7237           90           90           90     102002.7   -669.55543 
  545000       544498   -7095.5201    616.07361   -7711.5937     4318.866    -12030.46    108.72169   -997.08355   -992.98375   -758.59315   -75.891786   -71.830938   -49.446428      46.7237      46.7237      46.7237           90           90           90     102002.7   -916.22015 
  546000       545498   -7091.4207    616.47491   -7707.8956    4298.3768   -12006.272    108.79251   -1274.4618   -827.29501   -454.84768    23.904289   -23.524529   -23.928419      46.7237      46.7237      46.7237           90           90           90     102002.7    -852.2015 
  547000       546498   -7093.5332    622.85529   -7716.3885    4303.2857   -12019.674    109.91849   -790.58693   -654.72727   -1149.1441    6.0815831    85.198464    206.78501      46.7237      46.7237      46.7237           90           90           90     102002.7   -864.81942 
  548000       547498    -7068.423    621.89355   -7690.3165    4349.5844   -12039.901    109.74876   -1215.7518   -567.28607   -645.05931   -31.640842    97.219265    46.691288      46.7237      46.7237      46.7237           90           90           90     102002.7   -809.36571 
  549000       548498   -7098.8447     625.4868   -7724.3315    4285.8774   -12010.209    110.38288   -468.35897   -935.48364   -631.08259   -170.96017   -51.635811   -7.9375166      46.7237      46.7237      46.7237           90           90           90     102002.7    -678.3084 
  550000       549498   -7109.1164    611.58038   -7720.6968    4283.0098   -12003.707    107.92874   -705.94477   -753.89336   -502.86903   -3.0429493   -305.89216    231.50218      46.7237      46.7237      46.7237           90           90           90     102002.7   -654.23572 
  551000       550498    -7099.799    617.79034   -7717.5894    4293.5395   -12011.129    109.02465   -632.71834   -534.44805   -234.48274    254.59512   -73.013039    185.13098      46.7237      46.7237      46.7237           90           90           90     102002.7   -467.21638 
  552000       551498   -7069.3322    632.54645   -7701.8787    4309.8986   -12011.777    111.62873   -446.09013   -646.94343   -541.17896   -20.314851    34.122981     36.23647      46.7237      46.7237      46.7237           90           90           90     102002.7    -544.7375 
  553000       552498   -7100.1421    628.38257   -7728.5247     4287.205    -12015.73    110.89391   -166.60289   -691.56738   -475.33047   -186.97896   -255.68695    117.40484      46.7237      46.7237      46.7237           90           90           90     102002.7   -444.50025 
  554000       553498   -7151.9167    587.01615   -7738.9328    4268.7594   -12007.692    103.59377   -688.42713   -820.78731   -95.072847    268.22938    38.157107   -178.84926      46.7237      46.7237      46.7237           90           90           90     102002.7   -534.76243 
  555000       554498   -7095.4175    624.70324   -7720.1207     4287.395   -12007.516     110.2446    -744.8318    -993.8657   -354.93466   -39.659029   -8.8605391    6.2258191      46.7237      46.7237      46.7237           90           90           90     102002.7   -697.87739 
[...]
  936000       935498     -7079.56    632.07733   -7711.6373    4312.5861   -12024.223    111.54595   -820.86854   -909.40904   -1013.8284   -2.0897412   -153.53127    86.037801      46.7237      46.7237      46.7237           90           90           90     102002.7   -914.70198 
  937000       936498   -7079.0549    626.00562   -7705.0605    4286.2088   -11991.269    110.47444   -1012.9102    -816.7422   -696.43959   -144.51934    187.76116   -90.388293      46.7237      46.7237      46.7237           90           90           90     102002.7   -842.03065 
  938000       937498   -7120.3268    610.04398   -7730.3708    4272.6837   -12003.054    107.65761   -797.61308   -653.39551   -1035.3777    193.35957    163.28623   -102.79216      46.7237      46.7237      46.7237           90           90           90     102002.7   -828.79541 
  939000       938498   -7080.7053    632.60246   -7713.3078    4300.1037   -12013.412    111.63862     -868.008   -553.26701   -934.34223   -59.561581   -55.903962    73.128235      46.7237      46.7237      46.7237           90           90           90     102002.7   -785.20574 
  940000       939498   -7113.4605    616.02186   -7729.4824    4278.6377    -12008.12    108.71255    -701.0011   -681.49869   -707.87962    360.70043   -29.529565    151.25283      46.7237      46.7237      46.7237           90           90           90     102002.7   -696.79314 
  941000       940498   -7076.7755    635.24055    -7712.016    4298.2879   -12010.304    112.10418   -541.95575   -668.11957    -932.7491   -229.82754   -94.658436    40.700109      46.7237      46.7237      46.7237           90           90           90     102002.7   -714.27481 
  942000       941498   -7095.6334    642.86927   -7738.5026    4282.1676    -12020.67    113.45046   -551.51051   -410.24159   -536.79222   -299.63617    17.810915   -233.13195      46.7237      46.7237      46.7237           90           90           90     102002.7   -499.51478 
  943000       942498   -7123.3192    602.90241   -7726.2216    4298.0839   -12024.305     106.3973   -848.39375   -319.74346   -968.72923    3.7178407   -200.51033   -183.47511      46.7237      46.7237      46.7237           90           90           90     102002.7   -712.28881 
  944000       943498   -7076.4898    634.02859   -7710.5184    4292.6369   -12003.155     111.8903   -459.45919   -821.15405   -349.11222   -91.273012    -7.814015    307.04697      46.7237      46.7237      46.7237           90           90           90     102002.7   -543.24182 
  945000       944498   -7100.6572    631.74184    -7732.399    4293.4947   -12025.894    111.48674   -468.93719    -684.4616   -440.64126   -110.20619   -180.62988    88.197548      46.7237      46.7237      46.7237           90           90           90     102002.7   -531.34668 
  946000       945498   -7109.6732    625.99258   -7735.6658    4299.8488   -12035.515    110.47214   -1224.8695   -685.71048   -752.96484    80.668751   -50.259178   -150.72141      46.7237      46.7237      46.7237           90           90           90     102002.7   -887.84828 
  947000       946498   -7091.1459    627.13637   -7718.2823     4308.299   -12026.581    110.67399   -731.17258   -978.58418   -1437.5966    96.156949   -48.164913    93.303642      46.7237      46.7237      46.7237           90           90           90     102002.7   -1049.1178 
  948000       947498   -7096.2076    613.73732   -7709.9449    4306.0784   -12016.023    108.30939   -559.94294   -840.71726   -973.70038    182.26273    178.82066   -178.34004      46.7237      46.7237      46.7237           90           90           90     102002.7   -791.45353 
  949000       948498   -7076.4675    610.63423   -7687.1018    4326.1014   -12013.203    107.76177   -468.75122   -594.99801   -1327.2047    35.926955    111.62558   -184.36229      46.7237      46.7237      46.7237           90           90           90     102002.7   -796.98465 
  950000       949498   -7110.8371    613.08433   -7723.9214    4275.3347   -11999.256    108.19415   -693.42864   -536.99931   -725.75282    146.95922    30.088185   -10.889491      46.7237      46.7237      46.7237           90           90           90     102002.7   -652.06026 
  951000       950498   -7087.3228    617.66408   -7704.9869    4307.1506   -12012.137    109.00237   -568.69774   -988.87609   -1273.8631    15.925416     46.09938   -79.676314      46.7237      46.7237      46.7237           90           90           90     102002.7   -943.81232 
  952000       951498   -7100.4223    630.43479   -7730.8571    4274.8261   -12005.683    111.25608   -361.05368    -944.5699   -623.32318    248.59589    75.407092   -129.43155      46.7237      46.7237      46.7237           90           90           90     102002.7   -642.98225 
  953000       952498    -7113.515    612.48301    -7725.998    4284.5699   -12010.568    108.08804   -331.38711   -95.756063   -519.82285    2.2772831    163.50814    27.177818      46.7237      46.7237      46.7237           90           90           90     102002.7   -315.65534 
  954000       953498   -7099.7387    621.37061   -7721.1093    4294.8576   -12015.967    109.65648   -717.96455   -1201.9544   -900.65235   -59.229307   -96.213312    28.169135      46.7237      46.7237      46.7237           90           90           90     102002.7   -940.19045 
  955000       954498   -7122.9145    615.47997   -7738.3945    4278.3124   -12016.707    108.61693   -570.21612   -742.18814   -656.61898    77.271952    65.449556    204.78549      46.7237      46.7237      46.7237           90           90           90     102002.7   -656.34108 
  956000       955498   -7062.6553     632.4578   -7695.1131    4332.2546   -12027.368    111.61309   -1173.8089   -451.43045   -786.37829    -127.7198   -7.4157904    151.13923      46.7237      46.7237      46.7237           90           90           90     102002.7   -803.87255 
  957000       956498   -7097.1405    635.93934   -7733.0798    4292.5268   -12025.607     112.2275   -546.59373   -238.78573   -649.33577    110.15375     42.18639   -55.042486      46.7237      46.7237      46.7237           90           90           90     102002.7   -478.23841 
  958000       957498   -7105.6914    616.65712   -7722.3485    4312.1971   -12034.546    108.82466   -735.49902   -784.36612   -789.64813   -50.852952   -10.619314      -232.41      46.7237      46.7237      46.7237           90           90           90     102002.7   -769.83776 
  959000       958498    -7065.172    647.81974   -7712.9917    4311.5534   -12024.545    114.32409   -915.79733   -530.58225   -560.36266    -6.313564  -0.68853462    219.11789      46.7237      46.7237      46.7237           90           90           90     102002.7   -668.91408 
  960000       959498   -7101.9649    637.18346   -7739.1484    4282.7513     -12021.9    112.44705   -1004.9854   -1126.2991   -571.38581   -414.75944   -9.9083391    166.98794      46.7237      46.7237      46.7237           90           90           90     102002.7   -900.89009 
  961000       960498   -7078.5799    642.16706    -7720.747    4301.6432    -12022.39    113.32653   -994.19422   -1301.0792   -765.98377   -137.65058    61.316144    24.483522      46.7237      46.7237      46.7237           90           90           90     102002.7   -1020.4191 
  962000       961498   -7095.8893    627.45966    -7723.349    4292.1004   -12015.449    110.73104   -726.01069   -826.59879    -448.3852    92.051929    362.23389     271.1055      46.7237      46.7237      46.7237           90           90           90     102002.7   -666.99822 
  963000       962498   -7117.3531      614.437   -7731.7901    4282.6353   -12014.425    108.43287   -285.34877   -713.69045   -585.16828    -10.65521     335.1909   -63.554588      46.7237      46.7237      46.7237           90           90           90     102002.7   -528.06917 
  964000       963498    -7122.206     628.2111   -7750.4171    4279.8245   -12030.242    110.86365   -968.16935   -476.09096   -755.76286    132.12245   -310.31367   -48.656007      46.7237      46.7237      46.7237           90           90           90     102002.7   -733.34106 
  965000       964498   -7094.7239     625.1478   -7719.8717    4291.3646   -12011.236    110.32306   -610.49578   -742.01428    -458.6456   -122.99738   -26.061505   -86.251673      46.7237      46.7237      46.7237           90           90           90     102002.7   -603.71855 
  966000       965498   -7120.1885     604.0742   -7724.2627    4293.8812   -12018.144    106.60409   -260.21331   -984.19346   -360.55696    24.600697    64.001891   -114.21031      46.7237      46.7237      46.7237           90           90           90     102002.7   -534.98791 
  967000       966498   -7078.8959    630.55649   -7709.4524     4302.557   -12012.009    111.27756   -907.75274   -512.65122   -923.49573    97.150231   -1.9186752   -26.544178      46.7237      46.7237      46.7237           90           90           90     102002.7   -781.29989 
  968000       967498   -7071.6005    650.06804   -7721.6686    4302.6439   -12024.312    114.72086   -780.23202   -1228.3449   -924.65276   -167.28256    147.03476    184.88496      46.7237      46.7237      46.7237           90           90           90     102002.7   -977.74321 
  969000       968498   -7097.5123    625.90601   -7723.4184    4282.4382   -12005.857    110.45686   -490.06133   -693.87078   -584.95066    274.59465   -42.476329    8.9541327      46.7237      46.7237      46.7237           90           90           90     102002.7   -589.62759 
  970000       969498   -7095.7016    619.45178   -7715.1534    4300.0517   -12015.205    109.31785   -844.26525    -591.1636    -909.5509   -85.898875   -74.054531     32.11744      46.7237      46.7237      46.7237           90           90           90     102002.7   -781.65992 
  971000       970498   -7092.5672    617.85395   -7710.4211    4303.6566   -12014.078    109.03587   -506.32064   -1180.6694   -884.55846    12.520638   -74.735959   -21.555866      46.7237      46.7237      46.7237           90           90           90     102002.7   -857.18285 
  972000       971498   -7092.7331    624.15442   -7716.8875    4319.0927    -12035.98    110.14775   -1114.5184   -838.86457   -651.34363   -75.116868    -25.45798      193.947      46.7237      46.7237      46.7237           90           90           90     102002.7    -868.2422 
  973000       972498   -7101.5785    626.82561   -7728.4042     4291.521   -12019.925    110.61915    -459.0638   -545.24763   -948.03693   -7.6143115   -36.016516     -85.3448      46.7237      46.7237      46.7237           90           90           90     102002.7   -650.78279 
  974000       973498    -7079.722    631.25785   -7710.9798    4302.2057   -12013.186    111.40133   -698.55586   -1077.7698   -517.39683   -1.3052542   -160.59095   -69.150869      46.7237      46.7237      46.7237           90           90           90     102002.7   -764.57417 
  975000       974498   -7120.6317    617.20328   -7737.8349    4292.3333   -12030.168    108.92105   -775.20889   -802.91964   -724.32161    279.74227    408.99229    208.39242      46.7237      46.7237      46.7237           90           90           90     102002.7   -767.48338 
  976000       975498   -7109.5271    634.90551   -7744.4326    4277.3831   -12021.816    112.04505   -687.15265   -856.48914   -823.97203    46.490651   -96.369693    170.11341      46.7237      46.7237      46.7237           90           90           90     102002.7   -789.20461 
  977000       976498   -7093.2107    617.25049   -7710.4612    4314.3737   -12024.835    108.92938   -978.50593   -1172.5219    -856.5543    47.774973    -101.2221   -61.422135      46.7237      46.7237      46.7237           90           90           90     102002.7   -1002.5274 
  978000       977498   -7114.5604    615.66881   -7730.2292    4294.2844   -12024.514    108.65025   -900.62729   -371.57089   -1099.0325    256.96424   -66.486767   -98.052087      46.7237      46.7237      46.7237           90           90           90     102002.7   -790.41023 
  979000       978498   -7136.3211    595.24967   -7731.5707    4272.7156   -12004.286    105.04678   -820.34022   -602.33082   -1145.4837    -28.05215   -51.645623   -84.515703      46.7237      46.7237      46.7237           90           90           90     102002.7   -856.05158 
  980000       979498   -7093.7357    609.36557   -7703.1013    4315.3199   -12018.421    107.53789   -1221.8299   -1138.1995   -1263.7212   -161.14318     117.6278     266.9511      46.7237      46.7237      46.7237           90           90           90     102002.7   -1207.9169 
  981000       980498   -7068.2275     642.6468   -7710.8743    4322.8588   -12033.733     113.4112   -477.44871   -684.97122   -932.61287    63.630392   -415.76859   -124.30144      46.7237      46.7237      46.7237           90           90           90     102002.7   -698.34427 
  982000       981498   -7103.9216    621.03262   -7724.9542    4293.4728   -12018.427    109.59683    -930.3906   -417.84893   -839.76561   -127.70092   -61.067118   -42.827947      46.7237      46.7237      46.7237           90           90           90     102002.7   -729.33505 
  983000       982498   -7086.3904    615.88688   -7702.2773     4317.784   -12020.061    108.68874   -1229.7222   -1005.4317   -1074.3347   -74.990229    -19.87747    56.434384      46.7237      46.7237      46.7237           90           90           90     102002.7   -1103.1629 
  984000       983498   -7138.2678    616.80301   -7755.0708    4276.6271   -12031.698    108.85041   -768.15517   -1189.1319   -789.67432    33.194342   -106.54648   -149.90122      46.7237      46.7237      46.7237           90           90           90     102002.7   -915.65379 
  985000       984498   -7106.2385    622.59236   -7728.8309    4281.3611   -12010.192    109.87208   -641.37497   -957.11921   -860.76573   -65.333512   -231.17797    15.807851      46.7237      46.7237      46.7237           90           90           90     102002.7    -819.7533 
  986000       985498   -7069.4724    647.87578   -7717.3482    4311.5343   -12028.882    114.33398   -1090.0872   -787.23717   -98.449602    82.932889    72.716028    96.520862      46.7237      46.7237      46.7237           90           90           90     102002.7   -658.59133 
  987000       986498   -7102.2768    617.97652   -7720.2533    4299.4536   -12019.707     109.0575   -242.35841   -397.00031   -1326.3562   -103.73804    95.802301   -229.94533      46.7237      46.7237      46.7237           90           90           90     102002.7   -655.23832 
  988000       987498   -7092.8057    624.59998   -7717.4057    4312.5407   -12029.946    110.22638   -1096.5815   -796.43995   -820.41532   -271.53611   -43.885932    174.34875      46.7237      46.7237      46.7237           90           90           90     102002.7   -904.47894 
  989000       988498    -7106.809    616.55263   -7723.3616    4280.9975   -12004.359    108.80622   -1059.7197   -1077.6479   -104.37619    86.764057   -286.30175    168.14547      46.7237      46.7237      46.7237           90           90           90     102002.7   -747.24794 
  990000       989498   -7100.0284    617.89853   -7717.9269    4301.1351   -12019.062    109.04374   -1116.2293    -296.9832   -659.44736   -122.35783    99.093078    108.10152      46.7237      46.7237      46.7237           90           90           90     102002.7   -690.88663 
  991000       990498   -7099.6274    618.29451   -7717.9219    4313.5673   -12031.489    109.11362   -1146.5808   -755.34775    -458.7142   -200.84517    341.19521   -207.08612      46.7237      46.7237      46.7237           90           90           90     102002.7    -786.8809 
  992000       991498   -7100.8831    613.77777   -7714.6609      4319.19   -12033.851    108.31653   -914.21407   -1003.0203   -535.79117   -23.159521    207.93171    43.218145      46.7237      46.7237      46.7237           90           90           90     102002.7   -817.67517 
  993000       992498   -7098.2178    611.46957   -7709.6873    4306.0566   -12015.744    107.90919   -323.80259   -441.33284   -743.75224    64.122601   -181.81353   -58.896629      46.7237      46.7237      46.7237           90           90           90     102002.7   -502.96255 
  994000       993498    -7086.688    615.24514   -7701.9331    4317.3493   -12019.282    108.57548   -498.55861   -626.94714   -635.87046    74.517583    17.435775   -193.51132      46.7237      46.7237      46.7237           90           90           90     102002.7    -587.1254 
  995000       994498   -7115.4499    616.34215   -7731.7921    4280.0134   -12011.806    108.76908   -1125.4813   -705.94449   -602.33813    138.22729     19.56839    -303.1339      46.7237      46.7237      46.7237           90           90           90     102002.7   -811.25464 
  996000       995498    -7105.906    617.32986   -7723.2359    4294.9905   -12018.226    108.94339   -468.14112   -1143.1164   -265.63054    38.575274    243.11035    71.098898      46.7237      46.7237      46.7237           90           90           90     102002.7   -625.62936 
  997000       996498   -7095.8783    620.26265    -7716.141    4287.2126   -12003.354    109.46095    -770.7221   -507.97264   -907.08085   -198.60224   -30.821659    39.878099      46.7237      46.7237      46.7237           90           90           90     102002.7   -728.59186 
  998000       997498   -7071.1278    618.26564   -7689.3935    4315.5454   -12004.939    109.10853   -346.82547   -458.66284   -745.45953   -13.361377    13.599239   -9.8305682      46.7237      46.7237      46.7237           90           90           90     102002.7   -516.98261 
  999000       998498   -7087.3638    621.95447   -7709.3183    4309.4564   -12018.775    109.75951   -421.29046   -1036.8289   -1021.1967     253.1834    273.63616   -122.67697      46.7237      46.7237      46.7237           90           90           90     102002.7    -826.4387 
 1000000       999498   -7092.3079    621.03605   -7713.3439    4295.8533   -12009.197    109.59743   -883.47794   -909.57793   -490.14072   -221.40613   -17.759831    336.37538      46.7237      46.7237      46.7237           90           90           90     102002.7   -761.06553 
 1000502      1000000   -7111.3174    604.34224   -7715.6597    4300.9891   -12016.649    106.65139   -1259.1507   -443.86351   -692.11085   -237.64932   -39.723191    92.221339      46.7237      46.7237      46.7237           90           90           90     102002.7   -798.37504 
Loop time of 674.902 on 24 procs for 500000 steps with 1902 atoms

Performance: 64.009 ns/day, 0.375 hours/ns, 740.848 timesteps/s
99.9% CPU use with 24 MPI tasks x no OpenMP threads

MPI task timing breakdown:
Section |  min time  |  avg time  |  max time  |%varavg| %total
---------------------------------------------------------------
Pair    | 228.74     | 329.77     | 456.15     | 357.6 | 48.86
Bond    | 59.01      | 82.363     | 101.49     | 148.2 | 12.20
Neigh   | 2.8432     | 2.8701     | 2.8894     |   0.9 |  0.43
Comm    | 99.024     | 244.17     | 359.2      | 463.6 | 36.18
Output  | 0.36659    | 0.41026    | 0.41231    |   1.4 |  0.06
Modify  | 11.671     | 12.196     | 12.603     |   7.5 |  1.81
Other   |            | 3.131      |            |       |  0.46

Nlocal:    79.25 ave 102 max 58 min
Histogram: 3 3 2 3 0 3 3 2 4 1
Nghost:    2156.67 ave 2323 max 2071 min
Histogram: 11 5 0 0 0 0 0 1 4 3
Neighs:    7639.25 ave 11089 max 4137 min
Histogram: 2 0 2 4 5 3 3 1 2 2

Total # of neighbors = 183342
Ave neighs/atom = 96.3943
Ave special neighs/atom = 6.05678
Neighbor list builds = 4237
Dangerous builds = 0
Total wall time: 0:21:43
