LAMMPS (30 Mar 2018)
Reading data file ...
  orthogonal box = (0 0 0) to (46.7237 46.7237 46.7237)
  2 by 3 by 4 MPI processor grid
  reading atoms ...
  3123 atoms
  scanning bonds ...
  5 = max bonds/atom
  scanning angles ...
  10 = max angles/atom
  scanning dihedrals ...
  32 = max dihedrals/atom
  scanning impropers ...
  3 = max impropers/atom
  reading bonds ...
  2064 bonds
  reading angles ...
  3696 angles
  reading dihedrals ...
  6240 dihedrals
  reading impropers ...
  1008 impropers
Finding 1-2 1-3 1-4 neighbors ...
  special bond factors lj:   0          0          0         
  special bond factors coul: 0          0          0         
  5 = max # of 1-2 neighbors
  8 = max # of 1-3 neighbors
  20 = max # of 1-4 neighbors
  19 = max # of special neighbors
Finding 1-2 1-3 1-4 neighbors ...
  special bond factors lj:   0          0          1         
  special bond factors coul: 1          1          1         
  5 = max # of 1-2 neighbors
  8 = max # of 1-3 neighbors
  19 = max # of special neighbors
WARNING: Using 'neigh_modify every 1 delay 0 check yes' setting during minimization (../min.cpp:168)
Neighbor list info ...
  update every 1 steps, delay 0 steps, check yes
  max neighbors/atom: 2000, page size: 100000
  master list distance cutoff = 16
  ghost atom cutoff = 16
  binsize = 8, bins = 6 6 6
  3 neighbor lists, perpetual/occasional/extra = 3 0 0
  (1) pair buck6d/coul/gauss/dsf, perpetual, skip from (3)
      attributes: half, newton on
      pair build: skip
      stencil: none
      bin: none
  (2) pair lj/cut, perpetual, skip from (3)
      attributes: half, newton on
      pair build: skip
      stencil: none
      bin: none
  (3) neighbor class addition, perpetual
      attributes: half, newton on
      pair build: half/bin/newton
      stencil: half/bin/3d/newton
      bin: standard
Setting up cg style minimization ...
  Unit style    : real
  Current step  : 0
WARNING: Inconsistent image flags (../domain.cpp:786)
Per MPI rank memory allocation (min/avg/max) = 22.97 | 23.31 | 24.52 Mbytes
Step Temp E_pair E_mol TotEng Press 
       0            0   -15202.447    6482.8914   -8719.5559    5876.4065 
     500            0   -15603.627    3744.7894   -11858.837   -2098.7691 
Loop time of 1.86479 on 24 procs for 500 steps with 3123 atoms

98.0% CPU use with 24 MPI tasks x no OpenMP threads

Minimization stats:
  Stopping criterion = max force evaluations
  Energy initial, next-to-last, final = 
        -8719.55592576      -11858.733607     -11858.8372864
  Force two-norm initial, final = 2575.21 14.71
  Force max component initial, final = 152.301 1.90247
  Final line search alpha, max atom move = 0.00371129 0.00706063
  Iterations, force evaluations = 500 1000

MPI task timing breakdown:
Section |  min time  |  avg time  |  max time  |%varavg| %total
---------------------------------------------------------------
Pair    | 0.83416    | 1.0872     | 1.3669     |  11.6 | 58.30
Bond    | 0.10569    | 0.15761    | 0.19453    |   6.5 |  8.45
Neigh   | 0.015685   | 0.01576    | 0.015844   |   0.0 |  0.85
Comm    | 0.25257    | 0.56665    | 0.83223    |  17.7 | 30.39
Output  | 0          | 0          | 0          |   0.0 |  0.00
Modify  | 0          | 0          | 0          |   0.0 |  0.00
Other   |            | 0.03756    |            |       |  2.01

Nlocal:    130.125 ave 159 max 110 min
Histogram: 1 6 2 5 0 5 2 1 1 1
Nghost:    3468.96 ave 3639 max 3359 min
Histogram: 5 11 0 0 0 0 0 0 0 8
Neighs:    7646.54 ave 12244 max 4101 min
Histogram: 3 1 2 6 4 3 1 2 1 1

Total # of neighbors = 183517
Ave neighs/atom = 58.763
Ave special neighs/atom = 3.68876
Neighbor list builds = 10
Dangerous builds = 0
Neighbor list info ...
  update every 1 steps, delay 10 steps, check yes
  max neighbors/atom: 2000, page size: 100000
  master list distance cutoff = 16
  ghost atom cutoff = 16
  binsize = 8, bins = 6 6 6
  3 neighbor lists, perpetual/occasional/extra = 3 0 0
  (1) pair buck6d/coul/gauss/dsf, perpetual, skip from (3)
      attributes: half, newton on
      pair build: skip
      stencil: none
      bin: none
  (2) pair lj/cut, perpetual, skip from (3)
      attributes: half, newton on
      pair build: skip
      stencil: none
      bin: none
  (3) neighbor class addition, perpetual
      attributes: half, newton on
      pair build: half/bin/newton
      stencil: half/bin/3d/newton
      bin: standard
Setting up Verlet run ...
  Unit style    : real
  Current step  : 500
  Time step     : 1
WARNING: Inconsistent image flags (../domain.cpp:786)
Per MPI rank memory allocation (min/avg/max) = 22.61 | 22.8 | 23.4 Mbytes
Step Temp PotEng TotEng Press Volume Lx Ly Lz 
     500          110   -11858.837   -10835.167   -1640.0138     102002.7      46.7237      46.7237      46.7237 
    1000    93.921178   -11021.613   -10147.574   -759.34406     102002.7      46.7237      46.7237      46.7237 
    2000    109.15607   -10875.851   -9860.0351   -540.07829     102002.7      46.7237      46.7237      46.7237 
    3000    110.74776   -10893.074    -9862.445   -326.87286     102002.7      46.7237      46.7237      46.7237 
    4000    110.83617   -10882.443    -9850.992   -260.52921     102002.7      46.7237      46.7237      46.7237 
    5000    107.65032   -10887.789   -9885.9856   -798.36216     102002.7      46.7237      46.7237      46.7237 
    6000    109.67596   -10889.454   -9868.7998   -338.40147     102002.7      46.7237      46.7237      46.7237 
    7000    109.73506   -10863.818   -9842.6143   -452.93033     102002.7      46.7237      46.7237      46.7237 
    8000    108.76226   -10890.791   -9878.6401   -532.44657     102002.7      46.7237      46.7237      46.7237 
    9000    107.87365   -10872.137   -9868.2552   -483.45255     102002.7      46.7237      46.7237      46.7237 
   10000    111.64852    -10899.49   -9860.4793   -551.88141     102002.7      46.7237      46.7237      46.7237 
   11000    109.49679   -10910.253   -9891.2664   -408.26652     102002.7      46.7237      46.7237      46.7237 
   12000    110.82877   -10904.578   -9873.1953   -535.79606     102002.7      46.7237      46.7237      46.7237 
   13000    110.12746   -10905.049   -9880.1931   -480.23436     102002.7      46.7237      46.7237      46.7237 
   14000    111.91054    -10903.41   -9861.9611   -626.86129     102002.7      46.7237      46.7237      46.7237 
   15000    109.97454   -10885.892   -9862.4589   -706.77011     102002.7      46.7237      46.7237      46.7237 
   16000    109.78636    -10854.92   -9833.2386   -543.40879     102002.7      46.7237      46.7237      46.7237 
   17000    109.03575   -10883.612    -9868.916   -567.80207     102002.7      46.7237      46.7237      46.7237 
   18000    112.00221   -10890.058   -9847.7552   -563.02104     102002.7      46.7237      46.7237      46.7237 
   19000    110.41592   -10894.967   -9867.4268   -534.82503     102002.7      46.7237      46.7237      46.7237 
   20000    109.63205   -10888.021   -9867.7752    -706.7225     102002.7      46.7237      46.7237      46.7237 
   21000    110.13232   -10902.822   -9877.9209   -347.28696     102002.7      46.7237      46.7237      46.7237 
   22000    109.23882    -10902.94   -9886.3541   -417.53716     102002.7      46.7237      46.7237      46.7237 
   23000     107.4311   -10885.001   -9885.2372   -630.60373     102002.7      46.7237      46.7237      46.7237 
   24000    108.86527   -10876.503   -9863.3931     -489.209     102002.7      46.7237      46.7237      46.7237 
   25000    106.98555   -10873.861   -9878.2442   -686.12691     102002.7      46.7237      46.7237      46.7237 
   26000    109.48698   -10880.926   -9862.0307   -275.40589     102002.7      46.7237      46.7237      46.7237 
   27000    109.14754   -10887.994   -9872.2577   -566.61114     102002.7      46.7237      46.7237      46.7237 
   28000    110.39532   -10897.767    -9870.418   -715.10385     102002.7      46.7237      46.7237      46.7237 
   29000    107.55543   -10911.966    -9911.046   -246.40212     102002.7      46.7237      46.7237      46.7237 
   30000    111.34509   -10899.767   -9863.5801   -494.10831     102002.7      46.7237      46.7237      46.7237 
   31000    109.77647   -10908.195   -9886.6052   -484.00909     102002.7      46.7237      46.7237      46.7237 
   32000    108.94687   -10903.629     -9889.76   -273.18067     102002.7      46.7237      46.7237      46.7237 
   33000    112.22318    -10894.99   -9850.6311   -439.14111     102002.7      46.7237      46.7237      46.7237 
   34000    109.18577   -10900.781   -9884.6883   -608.12618     102002.7      46.7237      46.7237      46.7237 
   35000    110.82638   -10882.348   -9850.9882   -634.86767     102002.7      46.7237      46.7237      46.7237 
   36000    112.44784   -10871.757   -9825.3078   -444.29349     102002.7      46.7237      46.7237      46.7237 
   37000    112.72786   -10907.744    -9858.688   -717.97509     102002.7      46.7237      46.7237      46.7237 
   38000    111.86013   -10887.054   -9846.0732   -518.24568     102002.7      46.7237      46.7237      46.7237 
   39000    109.84148   -10907.965     -9885.77   -788.24201     102002.7      46.7237      46.7237      46.7237 
   40000    109.13971   -10916.397   -9900.7332   -745.55605     102002.7      46.7237      46.7237      46.7237 
   41000    109.73225    -10891.72   -9870.5417   -535.14939     102002.7      46.7237      46.7237      46.7237 
   42000    111.84655   -10882.428   -9841.5736   -450.06522     102002.7      46.7237      46.7237      46.7237 
   43000    112.43955   -10904.614   -9858.2414     -470.896     102002.7      46.7237      46.7237      46.7237 
   44000    113.07423    -10890.44   -9838.1612   -364.44676     102002.7      46.7237      46.7237      46.7237 
   45000    111.24328   -10893.141   -9857.9008   -559.41906     102002.7      46.7237      46.7237      46.7237 
   46000    112.56116   -10897.026   -9849.5215   -488.56015     102002.7      46.7237      46.7237      46.7237 
   47000    110.25706   -10883.246   -9857.1841   -425.09354     102002.7      46.7237      46.7237      46.7237 
   48000    110.33294    -10896.75    -9869.982   -839.64137     102002.7      46.7237      46.7237      46.7237 
   49000    112.61182    -10866.87    -9818.894    -598.0385     102002.7      46.7237      46.7237      46.7237 
   50000    111.19145   -10888.676   -9853.9182   -449.82658     102002.7      46.7237      46.7237      46.7237 
   51000    106.54696   -10893.984   -9902.4484   -811.78435     102002.7      46.7237      46.7237      46.7237 
   52000    109.89095     -10894.5   -9871.8446   -718.28842     102002.7      46.7237      46.7237      46.7237 
   53000    111.41998   -10874.368   -9837.4841    -542.6206     102002.7      46.7237      46.7237      46.7237 
   54000    110.37288   -10889.554    -9862.414   -729.59224     102002.7      46.7237      46.7237      46.7237 
   55000    109.93263   -10899.688   -9876.6455   -750.84648     102002.7      46.7237      46.7237      46.7237 
   56000    108.39179   -10906.922   -9898.2183   -518.08104     102002.7      46.7237      46.7237      46.7237 
   57000    110.16808   -10889.152   -9863.9176   -688.38486     102002.7      46.7237      46.7237      46.7237 
   58000    111.05903   -10889.319   -9855.7934   -90.693211     102002.7      46.7237      46.7237      46.7237 
   59000    109.91453   -10897.031   -9874.1569   -376.06545     102002.7      46.7237      46.7237      46.7237 
   60000    112.00419   -10865.256   -9822.9355   -480.42699     102002.7      46.7237      46.7237      46.7237 
   61000    108.02273   -10862.853   -9857.5837   -709.43146     102002.7      46.7237      46.7237      46.7237 
   62000    108.10104   -10896.395   -9890.3968   -411.54878     102002.7      46.7237      46.7237      46.7237 
   63000    109.13609   -10848.273   -9832.6426   -611.63063     102002.7      46.7237      46.7237      46.7237 
   64000    110.93561   -10923.655   -9891.2786    -588.7944     102002.7      46.7237      46.7237      46.7237 
   65000    110.55889   -10925.816    -9896.945   -413.52575     102002.7      46.7237      46.7237      46.7237 
   66000     110.7882   -10880.243   -9849.2384   -594.81148     102002.7      46.7237      46.7237      46.7237 
   67000    110.87531   -10892.292   -9860.4769   -479.38528     102002.7      46.7237      46.7237      46.7237 
   68000    109.57229   -10933.161   -9913.4718   -417.07287     102002.7      46.7237      46.7237      46.7237 
   69000    109.41332   -10898.157   -9879.9471   -429.33061     102002.7      46.7237      46.7237      46.7237 
   70000    110.11874   -10930.521   -9905.7461   -466.31199     102002.7      46.7237      46.7237      46.7237 
   71000     109.5473    -10889.76   -9870.3029   -328.16319     102002.7      46.7237      46.7237      46.7237 
   72000    111.82029   -10887.361   -9846.7515   -506.21583     102002.7      46.7237      46.7237      46.7237 
   73000    106.65888   -10897.841   -9905.2637   -609.60334     102002.7      46.7237      46.7237      46.7237 
   74000    108.22896   -10892.467   -9885.2787   -543.28257     102002.7      46.7237      46.7237      46.7237 
   75000    109.50359   -10908.935   -9889.8845   -296.54068     102002.7      46.7237      46.7237      46.7237 
   76000    110.52446   -10918.879    -9890.329   -502.44843     102002.7      46.7237      46.7237      46.7237 
   77000    110.70228   -10886.533   -9856.3275   -513.46989     102002.7      46.7237      46.7237      46.7237 
   78000    107.75195    -10894.69   -9891.9406   -573.95476     102002.7      46.7237      46.7237      46.7237 
   79000    109.90134   -10883.757   -9861.0055   -464.32882     102002.7      46.7237      46.7237      46.7237 
   80000    109.35441   -10920.156   -9902.4944   -551.19275     102002.7      46.7237      46.7237      46.7237 
   81000    109.40615   -10889.765   -9871.6218   -488.92196     102002.7      46.7237      46.7237      46.7237 
   82000    111.14864   -10887.051   -9852.6923   -539.55953     102002.7      46.7237      46.7237      46.7237 
   83000    110.17189   -10872.592   -9847.3229   -209.02303     102002.7      46.7237      46.7237      46.7237 
   84000    109.41217   -10919.187   -9900.9876    -452.1197     102002.7      46.7237      46.7237      46.7237 
   85000    111.48146   -10893.074   -9855.6176   -295.37784     102002.7      46.7237      46.7237      46.7237 
   86000    111.30409   -10916.786   -9880.9807   -850.77536     102002.7      46.7237      46.7237      46.7237 
   87000    110.81476   -10894.375   -9863.1232   -991.98296     102002.7      46.7237      46.7237      46.7237 
   88000    109.81686   -10890.491   -9868.5259   -847.74133     102002.7      46.7237      46.7237      46.7237 
   89000    109.58558   -10905.656   -9885.8426   -799.31754     102002.7      46.7237      46.7237      46.7237 
   90000    109.34827   -10881.415   -9863.8104   -824.08565     102002.7      46.7237      46.7237      46.7237 
   91000    109.27456   -10911.134   -9894.2151   -665.65563     102002.7      46.7237      46.7237      46.7237 
   92000    109.34983   -10867.728   -9850.1085   -600.55844     102002.7      46.7237      46.7237      46.7237 
   93000    110.29744    -10885.44   -9859.0027   -489.71628     102002.7      46.7237      46.7237      46.7237 
   94000    110.45062   -10907.504   -9879.6402   -290.81924     102002.7      46.7237      46.7237      46.7237 
   95000    109.15429   -10864.153    -9848.354   -468.83718     102002.7      46.7237      46.7237      46.7237 
   96000    110.30919   -10935.961   -9909.4139   -922.27918     102002.7      46.7237      46.7237      46.7237 
   97000    110.36481    -10905.42   -9878.3548   -590.91382     102002.7      46.7237      46.7237      46.7237 
   98000    108.86869   -10909.211   -9896.0687    -453.9109     102002.7      46.7237      46.7237      46.7237 
   99000    109.82905   -10868.981   -9846.9021   -628.08712     102002.7      46.7237      46.7237      46.7237 
  100000     111.6217   -10897.869   -9859.1075   -392.75498     102002.7      46.7237      46.7237      46.7237 
  101000     109.7561   -10901.614   -9880.2135   -542.85328     102002.7      46.7237      46.7237      46.7237 
  102000    109.11819   -10886.284   -9870.8204   -813.04957     102002.7      46.7237      46.7237      46.7237 
  103000    111.49826   -10884.767   -9847.1546   -423.34358     102002.7      46.7237      46.7237      46.7237 
  104000    110.57916   -10914.317   -9885.2575   -795.85471     102002.7      46.7237      46.7237      46.7237 
  105000    110.07891   -10874.452   -9850.0483   -380.65459     102002.7      46.7237      46.7237      46.7237 
  106000    109.29195   -10898.445   -9881.3647   -491.58001     102002.7      46.7237      46.7237      46.7237 
  107000    109.30176   -10889.903   -9872.7311   -559.97727     102002.7      46.7237      46.7237      46.7237 
  108000     113.4223   -10877.973   -9822.4553   -401.56464     102002.7      46.7237      46.7237      46.7237 
  109000    109.06462   -10881.685   -9866.7199   -546.39853     102002.7      46.7237      46.7237      46.7237 
  110000    110.44774   -10891.769   -9863.9327   -407.13095     102002.7      46.7237      46.7237      46.7237 
  111000    110.31241    -10899.82   -9873.2424   -855.77629     102002.7      46.7237      46.7237      46.7237 
  112000    109.43625    -10874.48   -9856.0564   -1143.0889     102002.7      46.7237      46.7237      46.7237 
  113000    109.69592   -10888.339   -9867.4986   -455.68785     102002.7      46.7237      46.7237      46.7237 
  114000     111.8993   -10889.095   -9847.7499   -701.64423     102002.7      46.7237      46.7237      46.7237 
  115000    110.92096   -10884.372   -9852.1315   -682.22652     102002.7      46.7237      46.7237      46.7237 
  116000    110.14144   -10882.651   -9857.6647   -531.05372     102002.7      46.7237      46.7237      46.7237 
  117000    111.18743   -10876.757   -9842.0368    -380.1391     102002.7      46.7237      46.7237      46.7237 
  118000     110.6075   -10905.015   -9875.6918   -645.70342     102002.7      46.7237      46.7237      46.7237 
  119000    110.27474   -10875.905   -9849.6787   -414.47644     102002.7      46.7237      46.7237      46.7237 
  120000    109.21076   -10873.051   -9856.7257   -553.70168     102002.7      46.7237      46.7237      46.7237 
  121000    110.45137    -10886.63   -9858.7594    -516.4327     102002.7      46.7237      46.7237      46.7237 
  122000    109.81546   -10899.349    -9877.397   -662.82482     102002.7      46.7237      46.7237      46.7237 
  123000    110.26466   -10909.053   -9882.9202   -669.80147     102002.7      46.7237      46.7237      46.7237 
  124000    106.63503   -10893.234    -9900.879   -378.34185     102002.7      46.7237      46.7237      46.7237 
  125000    106.85342   -10895.575   -9901.1871     -645.046     102002.7      46.7237      46.7237      46.7237 
  126000    108.98337   -10880.653   -9866.4444   -332.12731     102002.7      46.7237      46.7237      46.7237 
  127000    111.05487   -10913.289   -9879.8026    -867.7857     102002.7      46.7237      46.7237      46.7237 
  128000    108.48707    -10911.24   -9901.6492   -797.71174     102002.7      46.7237      46.7237      46.7237 
  129000    110.91182   -10886.422   -9854.2668   -773.57179     102002.7      46.7237      46.7237      46.7237 
  130000    109.35402   -10893.317   -9875.6592   -678.34124     102002.7      46.7237      46.7237      46.7237 
  131000    108.25613   -10889.383   -9881.9417   -316.50568     102002.7      46.7237      46.7237      46.7237 
  132000    107.91634   -10881.981   -9877.7017   -572.00426     102002.7      46.7237      46.7237      46.7237 
  133000    112.69622   -10902.017   -9853.2558   -354.34732     102002.7      46.7237      46.7237      46.7237 
  134000    109.94671    -10897.78   -9874.6058   -980.85062     102002.7      46.7237      46.7237      46.7237 
  135000    108.82134   -10885.116    -9872.415    -650.0418     102002.7      46.7237      46.7237      46.7237 
  136000    110.64034   -10888.134   -9858.5056   -528.69828     102002.7      46.7237      46.7237      46.7237 
  137000    107.89887   -10908.346   -9904.2291   -617.94831     102002.7      46.7237      46.7237      46.7237 
  138000    108.44201   -10881.956   -9872.7851   -527.61656     102002.7      46.7237      46.7237      46.7237 
  139000    110.99129   -10884.794   -9851.8996   -635.85406     102002.7      46.7237      46.7237      46.7237 
  140000    110.72736   -10912.673   -9882.2344   -425.84384     102002.7      46.7237      46.7237      46.7237 
  141000    110.16622   -10884.462   -9859.2448   -525.17968     102002.7      46.7237      46.7237      46.7237 
  142000    109.01395   -10899.861   -9885.3679   -782.95261     102002.7      46.7237      46.7237      46.7237 
  143000    112.72387   -10888.904   -9839.8858   -657.22114     102002.7      46.7237      46.7237      46.7237 
  144000    109.01571   -10908.323   -9893.8133   -558.40024     102002.7      46.7237      46.7237      46.7237 
  145000    109.48357   -10898.582   -9879.7184   -496.93832     102002.7      46.7237      46.7237      46.7237 
  146000    106.81826   -10882.803   -9888.7428   -558.20475     102002.7      46.7237      46.7237      46.7237 
  147000    110.88734   -10881.258   -9849.3304   -776.62605     102002.7      46.7237      46.7237      46.7237 
  148000    110.99551   -10904.747   -9871.8125   -497.22635     102002.7      46.7237      46.7237      46.7237 
  149000    107.40637   -10900.486   -9900.9528   -403.44835     102002.7      46.7237      46.7237      46.7237 
  150000    107.81298   -10866.661    -9863.344   -747.92503     102002.7      46.7237      46.7237      46.7237 
  151000    109.35385   -10882.898   -9865.2414   -628.67924     102002.7      46.7237      46.7237      46.7237 
  152000     109.8513   -10850.794   -9828.5075    -621.5124     102002.7      46.7237      46.7237      46.7237 
  153000    109.72599   -10876.728   -9855.6083   -753.39761     102002.7      46.7237      46.7237      46.7237 
  154000    107.99477   -10874.857   -9869.8481   -537.68756     102002.7      46.7237      46.7237      46.7237 
  155000    111.24813   -10917.224   -9881.9394   -964.72795     102002.7      46.7237      46.7237      46.7237 
  156000    106.98748   -10904.476   -9908.8409   -586.38535     102002.7      46.7237      46.7237      46.7237 
  157000    111.48332   -10908.632    -9871.158   -541.56152     102002.7      46.7237      46.7237      46.7237 
  158000    111.82205   -10920.236   -9879.6102   -766.24809     102002.7      46.7237      46.7237      46.7237 
  159000    108.72508   -10897.666   -9885.8604   -497.55379     102002.7      46.7237      46.7237      46.7237 
  160000     110.2611   -10882.047   -9855.9476   -252.65022     102002.7      46.7237      46.7237      46.7237 
  161000    111.60054    -10897.09    -9858.525    -510.3786     102002.7      46.7237      46.7237      46.7237 
  162000    113.80073    -10906.12   -9847.0806   -385.62358     102002.7      46.7237      46.7237      46.7237 
  163000    109.79109   -10888.055   -9866.3292   -527.00424     102002.7      46.7237      46.7237      46.7237 
  164000     106.8615   -10895.433   -9900.9708   -493.19863     102002.7      46.7237      46.7237      46.7237 
  165000    107.77802   -10866.959   -9863.9667   -346.34059     102002.7      46.7237      46.7237      46.7237 
  166000    112.06432   -10911.739   -9868.8586   -309.75089     102002.7      46.7237      46.7237      46.7237 
  167000    112.09508   -10924.188   -9881.0215   -641.42314     102002.7      46.7237      46.7237      46.7237 
  168000    111.00034   -10900.544   -9867.5645   -607.95852     102002.7      46.7237      46.7237      46.7237 
  169000    109.47302   -10890.208   -9871.4422   -518.73216     102002.7      46.7237      46.7237      46.7237 
  170000    109.85814   -10921.441   -9899.0911   -659.76166     102002.7      46.7237      46.7237      46.7237 
  171000    108.05663   -10882.758   -9877.1737   -812.84051     102002.7      46.7237      46.7237      46.7237 
  172000    112.47336   -10896.391   -9849.7041   -572.19078     102002.7      46.7237      46.7237      46.7237 
  173000    109.37943   -10856.376   -9838.4816   -455.45111     102002.7      46.7237      46.7237      46.7237 
  174000    110.69402   -10884.803   -9854.6749   -346.12824     102002.7      46.7237      46.7237      46.7237 
  175000    110.98329   -10870.663   -9837.8427    -378.5916     102002.7      46.7237      46.7237      46.7237 
  176000    109.76483   -10895.698    -9874.217   -579.35825     102002.7      46.7237      46.7237      46.7237 
  177000    113.42467    -10897.57   -9842.0298    -563.3527     102002.7      46.7237      46.7237      46.7237 
  178000    109.18017    -10863.04   -9846.9993   -191.11187     102002.7      46.7237      46.7237      46.7237 
  179000    112.34429   -10881.942   -9836.4557   -400.43936     102002.7      46.7237      46.7237      46.7237 
  180000      113.203   -10905.328   -9851.8508   -614.88815     102002.7      46.7237      46.7237      46.7237 
  181000    109.83476   -10858.051   -9835.9193   -567.70542     102002.7      46.7237      46.7237      46.7237 
  182000    111.62676   -10888.683   -9849.8741   -424.31664     102002.7      46.7237      46.7237      46.7237 
  183000    112.55988   -10898.148   -9850.6555   -724.87598     102002.7      46.7237      46.7237      46.7237 
  184000    112.88567   -10877.139   -9826.6153   -308.91979     102002.7      46.7237      46.7237      46.7237 
  185000    109.91674    -10885.99    -9863.095   -809.09996     102002.7      46.7237      46.7237      46.7237 
  186000    110.15752   -10893.251   -9868.1155   -162.90331     102002.7      46.7237      46.7237      46.7237 
  187000    109.38199   -10895.636   -9877.7172   -590.35846     102002.7      46.7237      46.7237      46.7237 
  188000    111.57145   -10873.946   -9835.6518   -375.75875     102002.7      46.7237      46.7237      46.7237 
  189000    108.90389   -10897.729   -9884.2598   -741.28213     102002.7      46.7237      46.7237      46.7237 
  190000    108.27585   -10898.022   -9890.3972   -689.37427     102002.7      46.7237      46.7237      46.7237 
  191000    110.08795   -10880.087   -9855.5985     -175.969     102002.7      46.7237      46.7237      46.7237 
  192000    108.25248   -10897.489   -9890.0818   -560.71711     102002.7      46.7237      46.7237      46.7237 
  193000    109.78126   -10899.052   -9877.4176   -456.61414     102002.7      46.7237      46.7237      46.7237 
  194000    106.96782     -10881.2    -9885.748   -501.55471     102002.7      46.7237      46.7237      46.7237 
  195000    109.91909   -10898.125   -9875.2083   -500.88649     102002.7      46.7237      46.7237      46.7237 
  196000    107.97029   -10874.449   -9869.6674   -552.12184     102002.7      46.7237      46.7237      46.7237 
  197000    110.08171    -10917.18   -9892.7496   -579.43017     102002.7      46.7237      46.7237      46.7237 
  198000    109.08146   -10918.443   -9903.3213   -274.68967     102002.7      46.7237      46.7237      46.7237 
  199000     110.8523   -10909.805   -9878.2039    -419.6018     102002.7      46.7237      46.7237      46.7237 
  200000    110.89133   -10906.064   -9874.0993   -264.00578     102002.7      46.7237      46.7237      46.7237 
  201000    110.73411   -10887.728   -9857.2261   -559.15893     102002.7      46.7237      46.7237      46.7237 
  202000    109.70032   -10904.406   -9883.5255   -481.76848     102002.7      46.7237      46.7237      46.7237 
  203000    109.51532    -10875.55   -9856.3908   -497.12163     102002.7      46.7237      46.7237      46.7237 
  204000    110.03011   -10899.852   -9875.9017   -296.02008     102002.7      46.7237      46.7237      46.7237 
  205000    112.26248   -10897.911   -9853.1862   -686.26677     102002.7      46.7237      46.7237      46.7237 
  206000    110.62879   -10895.142   -9865.6212   -878.34022     102002.7      46.7237      46.7237      46.7237 
  207000    110.10957   -10885.315   -9860.6254   -915.75231     102002.7      46.7237      46.7237      46.7237 
  208000    109.56251   -10904.381   -9884.7828   -600.32645     102002.7      46.7237      46.7237      46.7237 
  209000    111.79562   -10895.351   -9854.9709   -497.37635     102002.7      46.7237      46.7237      46.7237 
  210000    112.81055   -10879.586   -9829.7608   -212.90941     102002.7      46.7237      46.7237      46.7237 
  211000    110.82022   -10893.936   -9862.6332   -446.63467     102002.7      46.7237      46.7237      46.7237 
  212000    108.55518   -10895.425   -9885.2012   -295.84392     102002.7      46.7237      46.7237      46.7237 
  213000    106.64189   -10897.008   -9904.5887   -640.66552     102002.7      46.7237      46.7237      46.7237 
  214000    108.26765   -10898.775   -9891.2268   -521.14109     102002.7      46.7237      46.7237      46.7237 
  215000    106.44221   -10874.182   -9883.6215   -361.73331     102002.7      46.7237      46.7237      46.7237 
  216000    109.15728   -10900.336   -9884.5089   -466.86915     102002.7      46.7237      46.7237      46.7237 
  217000    110.60269   -10899.256   -9869.9771   -587.03933     102002.7      46.7237      46.7237      46.7237 
  218000    109.76193    -10908.05    -9886.596   -566.03918     102002.7      46.7237      46.7237      46.7237 
  219000    110.94979   -10893.537   -9861.0285   -588.14062     102002.7      46.7237      46.7237      46.7237 
  220000    110.54013    -10866.79   -9838.0936   -775.78346     102002.7      46.7237      46.7237      46.7237 
  221000    110.15526   -10901.381   -9876.2667   -659.73608     102002.7      46.7237      46.7237      46.7237 
  222000    109.52329   -10909.651   -9890.4177   -460.15611     102002.7      46.7237      46.7237      46.7237 
  223000    107.74039    -10902.21   -9899.5679   -725.05488     102002.7      46.7237      46.7237      46.7237 
  224000    109.85579   -10884.966   -9862.6382   -687.49911     102002.7      46.7237      46.7237      46.7237 
  225000    105.92816   -10876.304   -9890.5276   -292.72291     102002.7      46.7237      46.7237      46.7237 
  226000    112.70501   -10902.383   -9853.5397   -1073.2458     102002.7      46.7237      46.7237      46.7237 
  227000    112.58812   -10908.136   -9860.3812   -975.73046     102002.7      46.7237      46.7237      46.7237 
  228000    109.76157   -10900.449   -9878.9976   -375.92413     102002.7      46.7237      46.7237      46.7237 
  229000     114.1308   -10887.756    -9825.645   -822.29573     102002.7      46.7237      46.7237      46.7237 
  230000    110.31138   -10897.258   -9870.6907   -631.82609     102002.7      46.7237      46.7237      46.7237 
  231000    109.53737   -10879.064   -9859.6998   -501.98397     102002.7      46.7237      46.7237      46.7237 
  232000    111.71457    -10898.79   -9859.1647   -635.00232     102002.7      46.7237      46.7237      46.7237 
  233000    109.22701   -10842.744   -9826.2674    -501.6502     102002.7      46.7237      46.7237      46.7237 
  234000    109.70233   -10864.852   -9843.9525   -748.43932     102002.7      46.7237      46.7237      46.7237 
  235000    109.10389   -10876.078   -9860.7471   -498.16148     102002.7      46.7237      46.7237      46.7237 
  236000    110.23986   -10883.979   -9858.0772   -256.49227     102002.7      46.7237      46.7237      46.7237 
  237000    109.73871   -10865.403   -9844.1643   -476.68459     102002.7      46.7237      46.7237      46.7237 
  238000    109.16127    -10908.37   -9892.5054   -491.50573     102002.7      46.7237      46.7237      46.7237 
  239000    110.54039   -10888.358   -9859.6592    -896.1397     102002.7      46.7237      46.7237      46.7237 
  240000    109.65826   -10898.104   -9877.6141   -661.39559     102002.7      46.7237      46.7237      46.7237 
  241000     110.9607   -10875.843   -9843.2331   -519.59576     102002.7      46.7237      46.7237      46.7237 
  242000    107.71744    -10880.95   -9878.5224   -690.87731     102002.7      46.7237      46.7237      46.7237 
  243000    109.16749   -10880.764   -9864.8414   -633.37847     102002.7      46.7237      46.7237      46.7237 
  244000    109.26056   -10897.317   -9880.5281   -656.26991     102002.7      46.7237      46.7237      46.7237 
  245000    110.62491   -10895.034   -9865.5483   -661.28481     102002.7      46.7237      46.7237      46.7237 
  246000    109.97192   -10902.292   -9878.8833   -481.79634     102002.7      46.7237      46.7237      46.7237 
  247000    113.68368   -10897.507    -9839.557   -709.59284     102002.7      46.7237      46.7237      46.7237 
  248000    109.12713   -10878.501   -9862.9539   -889.07097     102002.7      46.7237      46.7237      46.7237 
  249000    110.88281   -10903.532   -9871.6465   -563.96831     102002.7      46.7237      46.7237      46.7237 
  250000    112.48118   -10885.255   -9838.4948    -657.6489     102002.7      46.7237      46.7237      46.7237 
  251000     110.2951   -10888.704   -9862.2881   -665.46945     102002.7      46.7237      46.7237      46.7237 
  252000    109.96586   -10883.932   -9860.5802   -831.47647     102002.7      46.7237      46.7237      46.7237 
  253000    111.13397   -10882.553   -9848.3304   -330.58316     102002.7      46.7237      46.7237      46.7237 
  254000    110.09666   -10862.811   -9838.2419   -564.67989     102002.7      46.7237      46.7237      46.7237 
  255000    109.98952   -10889.159   -9865.5863   -625.96948     102002.7      46.7237      46.7237      46.7237 
  256000     109.3954   -10891.555   -9873.5117   -372.18257     102002.7      46.7237      46.7237      46.7237 
  257000    110.16242   -10916.034   -9890.8528   -678.13309     102002.7      46.7237      46.7237      46.7237 
  258000    111.56428    -10882.52   -9844.2926   -683.23449     102002.7      46.7237      46.7237      46.7237 
  259000    109.99865    -10865.63   -9841.9732   -646.71609     102002.7      46.7237      46.7237      46.7237 
  260000    109.66693   -10876.795    -9856.225   -764.02487     102002.7      46.7237      46.7237      46.7237 
  261000    108.13287   -10888.718   -9882.4242   -505.19938     102002.7      46.7237      46.7237      46.7237 
  262000    111.44856   -10912.735   -9875.5844   -858.32309     102002.7      46.7237      46.7237      46.7237 
  263000    109.35548   -10886.135   -9868.4634   -983.59732     102002.7      46.7237      46.7237      46.7237 
  264000      112.683    -10872.81   -9824.1719   -874.15495     102002.7      46.7237      46.7237      46.7237 
  265000    108.38341   -10883.768   -9875.1428   -632.77739     102002.7      46.7237      46.7237      46.7237 
  266000    107.07278   -10909.993   -9913.5645    -834.3972     102002.7      46.7237      46.7237      46.7237 
  267000    110.86135   -10900.408   -9868.7229   -795.44753     102002.7      46.7237      46.7237      46.7237 
  268000    111.53006   -10883.543   -9845.6347   -802.47865     102002.7      46.7237      46.7237      46.7237 
  269000    110.30855    -10880.47   -9853.9285   -865.26923     102002.7      46.7237      46.7237      46.7237 
  270000    110.63201   -10875.544   -9845.9923   -740.88755     102002.7      46.7237      46.7237      46.7237 
  271000    111.03551   -10896.956   -9863.6497   -741.14349     102002.7      46.7237      46.7237      46.7237 
  272000    110.69612   -10889.666   -9859.5184   -686.09067     102002.7      46.7237      46.7237      46.7237 
  273000    111.54579   -10909.415   -9871.3599   -541.95305     102002.7      46.7237      46.7237      46.7237 
  274000    109.49722   -10876.352   -9857.3612   -777.61396     102002.7      46.7237      46.7237      46.7237 
  275000    109.15349   -10905.433   -9889.6405   -886.84998     102002.7      46.7237      46.7237      46.7237 
  276000    112.39766   -10876.123   -9830.1407   -620.79019     102002.7      46.7237      46.7237      46.7237 
  277000    113.84127   -10893.916   -9834.4993    -535.1599     102002.7      46.7237      46.7237      46.7237 
  278000     108.4785    -10880.05   -9870.5389   -544.27549     102002.7      46.7237      46.7237      46.7237 
  279000    109.72361   -10884.391    -9863.293   -745.89672     102002.7      46.7237      46.7237      46.7237 
  280000    110.69425   -10891.523   -9861.3927   -580.85829     102002.7      46.7237      46.7237      46.7237 
  281000    109.18522   -10887.445    -9871.358   -207.01026     102002.7      46.7237      46.7237      46.7237 
  282000    109.85252   -10901.427   -9879.1292    -641.9756     102002.7      46.7237      46.7237      46.7237 
  283000    110.82205   -10878.788   -9847.4686   -517.89792     102002.7      46.7237      46.7237      46.7237 
  284000    108.38735   -10884.448   -9875.7857   -448.40602     102002.7      46.7237      46.7237      46.7237 
  285000    111.14168   -10865.568   -9831.2738   -576.96955     102002.7      46.7237      46.7237      46.7237 
  286000    112.09324    -10890.99   -9847.8405   -392.18023     102002.7      46.7237      46.7237      46.7237 
  287000    110.10431   -10870.503   -9845.8629   -585.10602     102002.7      46.7237      46.7237      46.7237 
  288000    110.00825   -10882.809   -9859.0629   -698.93085     102002.7      46.7237      46.7237      46.7237 
  289000    112.54118   -10908.023   -9860.7052   -734.40218     102002.7      46.7237      46.7237      46.7237 
  290000    106.52158   -10886.867   -9895.5677   -619.00224     102002.7      46.7237      46.7237      46.7237 
  291000    107.36967   -10894.752   -9895.5606   -713.73121     102002.7      46.7237      46.7237      46.7237 
  292000     110.3129   -10883.509   -9856.9276   -629.57693     102002.7      46.7237      46.7237      46.7237 
  293000    110.04223   -10845.694   -9821.6312   -600.41389     102002.7      46.7237      46.7237      46.7237 
  294000    107.86111   -10860.329   -9856.5641   -459.91527     102002.7      46.7237      46.7237      46.7237 
  295000    112.31516   -10899.709   -9854.4937   -715.78395     102002.7      46.7237      46.7237      46.7237 
  296000    110.32196   -10894.928   -9868.2622   -526.92044     102002.7      46.7237      46.7237      46.7237 
  297000    110.86825   -10899.004   -9867.2544   -902.44939     102002.7      46.7237      46.7237      46.7237 
  298000    109.41688   -10899.353   -9881.1098   -803.18818     102002.7      46.7237      46.7237      46.7237 
  299000    108.27616   -10889.976   -9882.3488   -475.94796     102002.7      46.7237      46.7237      46.7237 
  300000    110.82854   -10892.023   -9860.6429   -432.68909     102002.7      46.7237      46.7237      46.7237 
  301000    108.54894   -10906.265   -9896.0991   -876.02586     102002.7      46.7237      46.7237      46.7237 
  302000    110.46025   -10868.882   -9840.9294   -937.23972     102002.7      46.7237      46.7237      46.7237 
  303000    111.82098   -10887.493   -9846.8765   -802.99692     102002.7      46.7237      46.7237      46.7237 
  304000    109.45038   -10882.224   -9863.6694    -936.1141     102002.7      46.7237      46.7237      46.7237 
  305000    107.62292    -10899.52   -9897.9715   -683.80501     102002.7      46.7237      46.7237      46.7237 
  306000    107.67898   -10876.719   -9874.6492   -366.25704     102002.7      46.7237      46.7237      46.7237 
  307000     108.5485   -10903.815    -9893.653   -426.01265     102002.7      46.7237      46.7237      46.7237 
  308000    109.89521    -10891.58   -9868.8854   -353.87625     102002.7      46.7237      46.7237      46.7237 
  309000    111.87936   -10876.681    -9835.522   -602.79378     102002.7      46.7237      46.7237      46.7237 
  310000    108.72075    -10892.09   -9880.3254   -574.21611     102002.7      46.7237      46.7237      46.7237 
  311000    109.90095   -10890.554   -9867.8056   -563.09668     102002.7      46.7237      46.7237      46.7237 
  312000    107.89822   -10901.796   -9897.6859   -923.08215     102002.7      46.7237      46.7237      46.7237 
  313000    108.31521   -10917.074   -9909.0832   -470.06155     102002.7      46.7237      46.7237      46.7237 
  314000    108.13152   -10887.128   -9880.8468   -788.45065     102002.7      46.7237      46.7237      46.7237 
  315000    109.95919   -10894.223   -9870.9328   -771.08572     102002.7      46.7237      46.7237      46.7237 
  316000    109.55098   -10905.932   -9886.4406   -611.58557     102002.7      46.7237      46.7237      46.7237 
  317000    111.48142   -10898.753   -9861.2968   -685.52868     102002.7      46.7237      46.7237      46.7237 
  318000    109.90249   -10919.892     -9897.13   -957.08281     102002.7      46.7237      46.7237      46.7237 
  319000    107.85001   -10875.858   -9872.1957    -763.4317     102002.7      46.7237      46.7237      46.7237 
  320000    108.14141     -10905.3   -9898.9265   -898.76527     102002.7      46.7237      46.7237      46.7237 
  321000    109.44755   -10883.926   -9865.3974   -835.21921     102002.7      46.7237      46.7237      46.7237 
  322000    110.46191   -10862.221   -9834.2528   -711.17029     102002.7      46.7237      46.7237      46.7237 
  323000    109.70756   -10901.312   -9880.3641   -927.66866     102002.7      46.7237      46.7237      46.7237 
  324000     109.4183   -10893.582   -9875.3255   -895.39383     102002.7      46.7237      46.7237      46.7237 
  325000    111.23439   -10921.492   -9886.3351   -794.30678     102002.7      46.7237      46.7237      46.7237 
  326000    113.04685   -10890.958   -9838.9342   -378.06581     102002.7      46.7237      46.7237      46.7237 
  327000     111.4643   -10870.479   -9833.1824   -745.45661     102002.7      46.7237      46.7237      46.7237 
  328000    107.23233   -10909.478    -9911.564   -1000.5388     102002.7      46.7237      46.7237      46.7237 
  329000    111.55352   -10887.009   -9848.8818   -557.49485     102002.7      46.7237      46.7237      46.7237 
  330000    109.53309   -10898.735     -9879.41   -767.17993     102002.7      46.7237      46.7237      46.7237 
  331000    111.36847   -10899.744   -9863.3393    -780.8744     102002.7      46.7237      46.7237      46.7237 
  332000    111.11519   -10899.022   -9864.9744   -440.78598     102002.7      46.7237      46.7237      46.7237 
  333000    112.81207   -10901.543   -9851.7036   -726.48401     102002.7      46.7237      46.7237      46.7237 
  334000     108.0047   -10884.971   -9879.8701   -578.02237     102002.7      46.7237      46.7237      46.7237 
  335000    107.38017   -10877.894   -9878.6046   -516.52213     102002.7      46.7237      46.7237      46.7237 
  336000    111.96751   -10875.482   -9833.5024      -581.82     102002.7      46.7237      46.7237      46.7237 
  337000    111.35171   -10883.728   -9847.4791   -526.43541     102002.7      46.7237      46.7237      46.7237 
  338000    107.28305   -10891.784    -9893.398   -619.25495     102002.7      46.7237      46.7237      46.7237 
  339000    107.86916   -10909.667   -9905.8274   -461.90745     102002.7      46.7237      46.7237      46.7237 
  340000    108.54956    -10887.57   -9877.3983   -345.74317     102002.7      46.7237      46.7237      46.7237 
  341000    109.16453    -10884.27   -9868.3751   -538.49536     102002.7      46.7237      46.7237      46.7237 
  342000    109.53843   -10883.178   -9863.8033   -741.46171     102002.7      46.7237      46.7237      46.7237 
  343000    108.45732   -10899.815   -9890.5016   -773.32218     102002.7      46.7237      46.7237      46.7237 
  344000    111.10618   -10879.526   -9845.5624   -535.20478     102002.7      46.7237      46.7237      46.7237 
  345000      110.851   -10899.689   -9868.1001   -831.58711     102002.7      46.7237      46.7237      46.7237 
  346000    109.18043   -10861.134   -9845.0913   -758.24054     102002.7      46.7237      46.7237      46.7237 
  347000    111.16031    -10882.87   -9848.4019   -503.67117     102002.7      46.7237      46.7237      46.7237 
  348000    108.94386   -10870.302   -9856.4603   -671.92633     102002.7      46.7237      46.7237      46.7237 
  349000    110.86476   -10887.506   -9855.7887   -464.68437     102002.7      46.7237      46.7237      46.7237 
  350000    106.48454   -10879.993   -9889.0387     -416.608     102002.7      46.7237      46.7237      46.7237 
  351000    110.52016   -10865.845   -9837.3343   -525.92715     102002.7      46.7237      46.7237      46.7237 
  352000    109.25901   -10884.448   -9867.6743   -585.64857     102002.7      46.7237      46.7237      46.7237 
  353000    108.87332   -10910.584   -9897.3995   -762.91926     102002.7      46.7237      46.7237      46.7237 
  354000    105.07394   -10896.926   -9919.0982   -568.66978     102002.7      46.7237      46.7237      46.7237 
  355000    108.70814   -10892.982   -9881.3339   -408.54672     102002.7      46.7237      46.7237      46.7237 
  356000    110.18786   -10904.026   -9878.6078   -612.86187     102002.7      46.7237      46.7237      46.7237 
  357000    110.99473   -10889.969   -9857.0417   -672.32345     102002.7      46.7237      46.7237      46.7237 
  358000    109.43471   -10890.748   -9872.3385   -611.70757     102002.7      46.7237      46.7237      46.7237 
  359000    108.25574   -10899.234   -9891.7962   -857.08781     102002.7      46.7237      46.7237      46.7237 
  360000    110.73951   -10916.288   -9885.7362   -332.60894     102002.7      46.7237      46.7237      46.7237 
  361000    111.65539   -10896.487   -9857.4124   -556.99641     102002.7      46.7237      46.7237      46.7237 
  362000    113.60094   -10908.971   -9851.7905   -453.00529     102002.7      46.7237      46.7237      46.7237 
  363000    108.46776   -10880.454   -9871.0434   -722.66844     102002.7      46.7237      46.7237      46.7237 
  364000    108.97552    -10916.87   -9902.7344   -688.91387     102002.7      46.7237      46.7237      46.7237 
  365000    110.81617   -10895.166   -9863.9005   -726.86977     102002.7      46.7237      46.7237      46.7237 
  366000    111.27698   -10889.038   -9853.4847   -517.75106     102002.7      46.7237      46.7237      46.7237 
  367000    110.09283   -10882.662   -9858.1279   -645.62421     102002.7      46.7237      46.7237      46.7237 
  368000    108.94854   -10862.832   -9848.9469   -551.96343     102002.7      46.7237      46.7237      46.7237 
  369000    109.17914   -10893.499   -9877.4682    -735.1497     102002.7      46.7237      46.7237      46.7237 
  370000    108.60464   -10888.924   -9878.2394     -742.973     102002.7      46.7237      46.7237      46.7237 
  371000    110.35091   -10896.864   -9869.9284   -879.91322     102002.7      46.7237      46.7237      46.7237 
  372000    112.28058   -10887.195   -9842.3015   -807.31706     102002.7      46.7237      46.7237      46.7237 
  373000    109.90987   -10894.202   -9871.3706   -631.10821     102002.7      46.7237      46.7237      46.7237 
  374000    109.79331   -10884.389   -9862.6424   -490.55027     102002.7      46.7237      46.7237      46.7237 
  375000    108.95471   -10874.042   -9860.1002   -735.96486     102002.7      46.7237      46.7237      46.7237 
  376000    108.84736   -10897.049   -9884.1053   -579.44189     102002.7      46.7237      46.7237      46.7237 
  377000    111.30325   -10876.304   -9840.5059   -308.43038     102002.7      46.7237      46.7237      46.7237 
  378000    109.36309    -10907.67   -9889.9275   -646.96068     102002.7      46.7237      46.7237      46.7237 
  379000    110.23388   -10892.054   -9866.2073   -462.27682     102002.7      46.7237      46.7237      46.7237 
  380000    109.02106    -10891.15   -9876.5905   -418.42414     102002.7      46.7237      46.7237      46.7237 
  381000    108.09823    -10895.21    -9889.238   -485.44787     102002.7      46.7237      46.7237      46.7237 
  382000     110.1021    -10897.41   -9872.7901   -580.09828     102002.7      46.7237      46.7237      46.7237 
  383000    111.27001   -10894.856   -9859.3679   -598.60152     102002.7      46.7237      46.7237      46.7237 
  384000    111.15903   -10857.097   -9822.6407   -693.58566     102002.7      46.7237      46.7237      46.7237 
  385000    109.46747   -10889.343    -9870.629   -472.06444     102002.7      46.7237      46.7237      46.7237 
  386000    108.18851   -10895.896    -9889.084   -567.71737     102002.7      46.7237      46.7237      46.7237 
  387000    110.84343   -10887.294   -9855.7747   -571.88407     102002.7      46.7237      46.7237      46.7237 
  388000    110.73775   -10883.816   -9853.2806   -651.99867     102002.7      46.7237      46.7237      46.7237 
  389000     109.6636   -10894.032   -9873.4923   -287.14712     102002.7      46.7237      46.7237      46.7237 
  390000    114.23108   -10881.265   -9818.2205   -474.35117     102002.7      46.7237      46.7237      46.7237 
  391000     107.8521   -10901.981   -9898.2995   -482.15874     102002.7      46.7237      46.7237      46.7237 
  392000    109.26277   -10885.943   -9869.1343   -418.47286     102002.7      46.7237      46.7237      46.7237 
  393000    109.35119   -10885.716   -9868.0844   -369.70038     102002.7      46.7237      46.7237      46.7237 
  394000    109.72204   -10875.069   -9853.9859    -611.3496     102002.7      46.7237      46.7237      46.7237 
  395000    110.63051   -10868.852   -9839.3143   -326.37981     102002.7      46.7237      46.7237      46.7237 
  396000    107.79527    -10872.26    -9869.108   -307.75189     102002.7      46.7237      46.7237      46.7237 
  397000    110.49073   -10899.314   -9871.0779   -626.57971     102002.7      46.7237      46.7237      46.7237 
  398000    105.78798    -10903.06   -9918.5878   -961.23547     102002.7      46.7237      46.7237      46.7237 
  399000     109.5081   -10914.837   -9895.7449   -750.20224     102002.7      46.7237      46.7237      46.7237 
  400000    110.16637   -10871.761   -9846.5428   -597.97647     102002.7      46.7237      46.7237      46.7237 
  401000    107.41103   -10892.671   -9893.0944   -519.76197     102002.7      46.7237      46.7237      46.7237 
  402000    108.17806   -10904.506   -9897.7912    -462.4485     102002.7      46.7237      46.7237      46.7237 
  403000    109.16594   -10882.728   -9866.8202   -745.63884     102002.7      46.7237      46.7237      46.7237 
  404000    109.72098   -10875.541   -9854.4683   -731.63446     102002.7      46.7237      46.7237      46.7237 
  405000    108.69588   -10894.009   -9882.4754   -890.24481     102002.7      46.7237      46.7237      46.7237 
  406000    108.68979   -10869.553   -9858.0763   -640.18238     102002.7      46.7237      46.7237      46.7237 
  407000    110.94773   -10866.176   -9833.6862   -598.86838     102002.7      46.7237      46.7237      46.7237 
  408000    107.01092   -10903.531   -9907.6778   -739.03793     102002.7      46.7237      46.7237      46.7237 
  409000    108.71661    -10882.37   -9870.6438   -438.24316     102002.7      46.7237      46.7237      46.7237 
  410000    111.05547   -10874.063   -9840.5708   -689.89294     102002.7      46.7237      46.7237      46.7237 
  411000    108.42254   -10885.325   -9876.3353   -615.66119     102002.7      46.7237      46.7237      46.7237 
  412000    110.82761   -10903.419    -9872.047   -559.68107     102002.7      46.7237      46.7237      46.7237 
  413000    107.97927   -10874.342   -9869.4769   -640.29572     102002.7      46.7237      46.7237      46.7237 
  414000    109.01658   -10888.808   -9874.2902   -692.55892     102002.7      46.7237      46.7237      46.7237 
  415000    110.53341   -10897.238   -9868.6046   -544.29657     102002.7      46.7237      46.7237      46.7237 
  416000    108.26089    -10911.23   -9903.7447   -582.47538     102002.7      46.7237      46.7237      46.7237 
  417000    110.22291   -10897.317   -9871.5724   -735.50033     102002.7      46.7237      46.7237      46.7237 
  418000    110.39925   -10869.159   -9841.7741   -582.43227     102002.7      46.7237      46.7237      46.7237 
  419000    111.14108   -10910.595   -9876.3061   -542.31229     102002.7      46.7237      46.7237      46.7237 
  420000    110.47158   -10872.815   -9844.7565   -794.78719     102002.7      46.7237      46.7237      46.7237 
  421000    110.88708   -10887.104   -9855.1792   -725.83246     102002.7      46.7237      46.7237      46.7237 
  422000    108.07404   -10869.193   -9863.4461   -419.94813     102002.7      46.7237      46.7237      46.7237 
  423000    111.51457   -10913.842   -9876.0772   -510.64237     102002.7      46.7237      46.7237      46.7237 
  424000    110.23316   -10890.363   -9864.5234   -166.13376     102002.7      46.7237      46.7237      46.7237 
  425000    111.56088   -10876.689   -9838.4935   -903.74704     102002.7      46.7237      46.7237      46.7237 
  426000     108.2724   -10884.775   -9877.1821   -669.05653     102002.7      46.7237      46.7237      46.7237 
  427000    109.72898   -10889.281   -9868.1334   -386.49247     102002.7      46.7237      46.7237      46.7237 
  428000    108.18211   -10881.034   -9874.2816   -322.02598     102002.7      46.7237      46.7237      46.7237 
  429000    110.28565   -10912.175   -9885.8473   -627.71181     102002.7      46.7237      46.7237      46.7237 
  430000    110.19462   -10875.668   -9850.1873    -829.2708     102002.7      46.7237      46.7237      46.7237 
  431000    108.07727    -10891.03    -9885.253   -904.97207     102002.7      46.7237      46.7237      46.7237 
  432000    111.58214   -10898.009   -9859.6161   -841.23142     102002.7      46.7237      46.7237      46.7237 
  433000    110.40213   -10885.036   -9857.6236   -861.41425     102002.7      46.7237      46.7237      46.7237 
  434000    110.57926   -10896.142   -9867.0814   -842.25775     102002.7      46.7237      46.7237      46.7237 
  435000    108.96589   -10890.096   -9876.0501   -525.31004     102002.7      46.7237      46.7237      46.7237 
  436000    110.37922   -10898.266   -9871.0667   -645.33194     102002.7      46.7237      46.7237      46.7237 
  437000    109.57662   -10900.208   -9880.4777   -733.55879     102002.7      46.7237      46.7237      46.7237 
  438000     110.6064   -10909.034   -9879.7208   -257.47701     102002.7      46.7237      46.7237      46.7237 
  439000    112.41652   -10896.176   -9850.0174   -746.80623     102002.7      46.7237      46.7237      46.7237 
  440000    108.36229   -10905.645   -9897.2154   -369.16831     102002.7      46.7237      46.7237      46.7237 
  441000    111.38711   -10906.332   -9869.7539   -449.91062     102002.7      46.7237      46.7237      46.7237 
  442000    108.56058   -10913.332   -9903.0578   -577.37246     102002.7      46.7237      46.7237      46.7237 
  443000    108.13528   -10876.621   -9870.3044   -359.34706     102002.7      46.7237      46.7237      46.7237 
  444000    109.86347   -10900.228   -9877.8286   -629.38681     102002.7      46.7237      46.7237      46.7237 
  445000    111.82476   -10885.353   -9844.7019   -353.98134     102002.7      46.7237      46.7237      46.7237 
  446000    112.34142   -10898.831   -9853.3717   -455.92132     102002.7      46.7237      46.7237      46.7237 
  447000    110.12985   -10873.976   -9849.0982   -594.12484     102002.7      46.7237      46.7237      46.7237 
  448000    110.49259    -10907.57   -9879.3157   -474.85649     102002.7      46.7237      46.7237      46.7237 
  449000     111.2618   -10887.675   -9852.2626   -681.60052     102002.7      46.7237      46.7237      46.7237 
  450000    109.26477   -10924.523   -9907.6954   -575.59429     102002.7      46.7237      46.7237      46.7237 
  451000    108.94706   -10895.684   -9881.8126   -791.10898     102002.7      46.7237      46.7237      46.7237 
  452000    111.38634   -10892.362   -9855.7904   -668.24724     102002.7      46.7237      46.7237      46.7237 
  453000    113.02909   -10914.879   -9863.0203   -779.41321     102002.7      46.7237      46.7237      46.7237 
  454000    110.22604   -10911.868   -9886.0951   -713.61835     102002.7      46.7237      46.7237      46.7237 
  455000    112.10301   -10867.307   -9824.0662   -652.36664     102002.7      46.7237      46.7237      46.7237 
  456000    109.57604    -10896.81   -9877.0852   -697.68466     102002.7      46.7237      46.7237      46.7237 
  457000    107.82935   -10891.994   -9888.5244   -373.35688     102002.7      46.7237      46.7237      46.7237 
  458000    108.55634   -10907.033   -9896.7984   -927.25397     102002.7      46.7237      46.7237      46.7237 
  459000    112.86809   -10923.339   -9872.9784   -860.23922     102002.7      46.7237      46.7237      46.7237 
  460000    112.55679    -10886.67   -9839.2062   -546.56281     102002.7      46.7237      46.7237      46.7237 
  461000    106.27715   -10877.584   -9888.5596   -579.80008     102002.7      46.7237      46.7237      46.7237 
  462000    107.79837   -10899.391   -9896.2095   -378.23304     102002.7      46.7237      46.7237      46.7237 
  463000    110.31106   -10874.906   -9848.3417     -472.501     102002.7      46.7237      46.7237      46.7237 
  464000    110.12248   -10897.511    -9872.701   -702.96599     102002.7      46.7237      46.7237      46.7237 
  465000    107.47919   -10867.443   -9867.2319   -565.71238     102002.7      46.7237      46.7237      46.7237 
  466000    105.61982   -10903.328   -9920.4201   -556.14322     102002.7      46.7237      46.7237      46.7237 
  467000    108.25881   -10893.519   -9886.0526    -461.7725     102002.7      46.7237      46.7237      46.7237 
  468000    109.49744   -10896.377   -9877.3843   -285.24636     102002.7      46.7237      46.7237      46.7237 
  469000    112.30677    -10878.09   -9832.9537   -792.79997     102002.7      46.7237      46.7237      46.7237 
  470000    108.29069   -10891.818    -9884.055   -570.60914     102002.7      46.7237      46.7237      46.7237 
  471000     108.1631   -10903.241   -9896.6654   -614.51218     102002.7      46.7237      46.7237      46.7237 
  472000    111.50125   -10907.266   -9869.6259   -503.36784     102002.7      46.7237      46.7237      46.7237 
  473000    109.80824   -10884.421   -9862.5357   -136.16886     102002.7      46.7237      46.7237      46.7237 
  474000    109.27729   -10918.539   -9901.5944   -508.70182     102002.7      46.7237      46.7237      46.7237 
  475000    110.63663   -10887.519   -9857.9245   -344.18947     102002.7      46.7237      46.7237      46.7237 
  476000    111.32931   -10884.178   -9848.1374   -561.78397     102002.7      46.7237      46.7237      46.7237 
  477000    110.46454   -10897.316   -9869.3228   -715.29119     102002.7      46.7237      46.7237      46.7237 
  478000    109.29108   -10893.748   -9876.6759   -475.54567     102002.7      46.7237      46.7237      46.7237 
  479000    109.76924   -10894.041   -9872.5187   -507.26275     102002.7      46.7237      46.7237      46.7237 
  480000    111.46629   -10904.634   -9867.3188   -494.74962     102002.7      46.7237      46.7237      46.7237 
  481000    108.21755   -10913.396   -9906.3139   -444.41199     102002.7      46.7237      46.7237      46.7237 
  482000    112.47884   -10895.769   -9849.0313    -399.3015     102002.7      46.7237      46.7237      46.7237 
  483000    109.43885   -10891.578   -9873.1305   -508.95487     102002.7      46.7237      46.7237      46.7237 
  484000    109.84034   -10906.514   -9884.3296   -567.88141     102002.7      46.7237      46.7237      46.7237 
  485000    112.48698   -10887.539   -9840.7248    -557.2801     102002.7      46.7237      46.7237      46.7237 
  486000    108.29078   -10897.277   -9889.5137   -379.40792     102002.7      46.7237      46.7237      46.7237 
  487000    112.57139   -10897.984   -9850.3846   -375.81472     102002.7      46.7237      46.7237      46.7237 
  488000    108.66427   -10885.386   -9874.1472   -371.33436     102002.7      46.7237      46.7237      46.7237 
  489000    109.39636   -10921.069   -9903.0164   -434.43603     102002.7      46.7237      46.7237      46.7237 
  490000    110.90078    -10919.99   -9887.9374   -563.51329     102002.7      46.7237      46.7237      46.7237 
  491000    112.30122     -10934.3   -9889.2149    -610.0812     102002.7      46.7237      46.7237      46.7237 
  492000    109.02437   -10870.863   -9856.2723   -657.77354     102002.7      46.7237      46.7237      46.7237 
  493000    110.03082    -10883.53   -9859.5738   -648.54329     102002.7      46.7237      46.7237      46.7237 
  494000    109.61618    -10931.41    -9911.312   -630.78487     102002.7      46.7237      46.7237      46.7237 
  495000    110.73726   -10881.494   -9850.9633   -313.00466     102002.7      46.7237      46.7237      46.7237 
  496000    109.01491   -10869.428   -9854.9259    -537.0799     102002.7      46.7237      46.7237      46.7237 
  497000    107.59684   -10875.173   -9873.8677   -556.13458     102002.7      46.7237      46.7237      46.7237 
  498000    109.84112   -10895.836   -9873.6444   -420.32833     102002.7      46.7237      46.7237      46.7237 
  499000    108.66776   -10944.959   -9933.6871   -708.29541     102002.7      46.7237      46.7237      46.7237 
  500000    109.65143   -10885.177   -9864.7514   -724.07161     102002.7      46.7237      46.7237      46.7237 
  500500    109.59861   -10892.842    -9872.908   -1052.3746     102002.7      46.7237      46.7237      46.7237 
Loop time of 825.091 on 24 procs for 500000 steps with 3123 atoms

Performance: 52.358 ns/day, 0.458 hours/ns, 605.993 timesteps/s
97.8% CPU use with 24 MPI tasks x no OpenMP threads

MPI task timing breakdown:
Section |  min time  |  avg time  |  max time  |%varavg| %total
---------------------------------------------------------------
Pair    | 369.36     | 455.89     | 558.06     | 259.4 | 55.25
Bond    | 52.629     | 78.588     | 113.95     | 198.9 |  9.52
Neigh   | 7.5807     | 7.6009     | 7.6213     |   0.5 |  0.92
Comm    | 154.2      | 266.96     | 368.59     | 407.2 | 32.36
Output  | 0.51274    | 0.51312    | 0.51745    |   0.1 |  0.06
Modify  | 4.6996     | 5.0411     | 5.4631     |  10.3 |  0.61
Other   |            | 10.49      |            |       |  1.27

Nlocal:    130.125 ave 158 max 107 min
Histogram: 4 2 1 5 3 1 2 2 2 2
Nghost:    3476.46 ave 3525 max 3435 min
Histogram: 1 4 4 3 3 1 3 1 1 3
Neighs:    7639.29 ave 10757 max 4672 min
Histogram: 4 1 5 2 0 2 1 3 4 2

Total # of neighbors = 183343
Ave neighs/atom = 58.7073
Ave special neighs/atom = 3.68876
Neighbor list builds = 4709
Dangerous builds = 0
Neighbor list info ...
  update every 1 steps, delay 10 steps, check yes
  max neighbors/atom: 2000, page size: 100000
  master list distance cutoff = 16
  ghost atom cutoff = 16
  binsize = 8, bins = 6 6 6
  3 neighbor lists, perpetual/occasional/extra = 3 0 0
  (1) pair buck6d/coul/gauss/dsf, perpetual, skip from (3)
      attributes: half, newton on
      pair build: skip
      stencil: none
      bin: none
  (2) pair lj/cut, perpetual, skip from (3)
      attributes: half, newton on
      pair build: skip
      stencil: none
      bin: none
  (3) neighbor class addition, perpetual
      attributes: half, newton on
      pair build: half/bin/newton
      stencil: half/bin/3d/newton
      bin: standard
Setting up Verlet run ...
  Unit style    : real
  Current step  : 500500
  Time step     : 1
WARNING: Inconsistent image flags (../domain.cpp:786)
Per MPI rank memory allocation (min/avg/max) = 24.02 | 24.49 | 24.66 Mbytes
Step Time TotEng KinEng PotEng E_mol E_pair Temp Pxx Pyy Pzz Pxy Pxz Pyz Cella Cellb Cellc CellAlpha CellBeta CellGamma Volume Press 
  500500       500000    -9872.908    1019.9344   -10892.842    4299.2987   -15192.141    109.59861   -1264.8467   -916.87897   -975.39807   -100.83133   -63.626519    70.279689      46.7237      46.7237      46.7237           90           90           90     102002.7   -1052.3746 
  501000       500500   -9905.7945    1008.1236   -10913.918    4261.6553   -15175.573    108.32946   -886.92006    -801.9193   -787.08385    92.607434     -100.303    154.07915      46.7237      46.7237      46.7237           90           90           90     102002.7   -825.30774 
  502000       501500   -9876.7194    1023.7663   -10900.486    4251.5406   -15152.026    110.01037   -840.99377   -910.69543   -471.93281    -37.54705    123.22862   -195.99445      46.7237      46.7237      46.7237           90           90           90     102002.7   -741.20733 
  503000       502500   -9886.5705    993.49677   -10880.067    4266.3571   -15146.424    106.75771    -631.9455   -335.50886   -614.54225    15.009186     14.65353    -89.86805      46.7237      46.7237      46.7237           90           90           90     102002.7   -527.33221 
  504000       503500   -9858.4881     1043.532    -10902.02    4261.0513   -15163.071    112.13432   -588.68909    -702.3921   -889.87422    352.83901    122.14971   -138.55876      46.7237      46.7237      46.7237           90           90           90     102002.7   -726.98514 
  505000       504500   -9850.0116    1031.1751   -10881.187    4266.8008   -15147.988     110.8065   -238.40767   -77.941101   -434.36971    223.36026   -96.959509   -166.02056      46.7237      46.7237      46.7237           90           90           90     102002.7   -250.23949 
  506000       505500   -9873.0572    1009.9527    -10883.01    4272.9171   -15155.927    108.52601   -496.97641   -126.05879   -673.75493   -54.758991    64.198974    70.757594      46.7237      46.7237      46.7237           90           90           90     102002.7   -432.26337 
  507000       506500   -9895.5444    1013.0922   -10908.637     4266.737   -15175.374    108.86336    -646.7914     -401.081   -583.56934   -46.063892    71.196767   -285.69636      46.7237      46.7237      46.7237           90           90           90     102002.7   -543.81392 
  508000       507500   -9901.4381    1022.7121    -10924.15    4245.2541   -15169.404    109.89709   -325.21233   -636.24785   -281.33266   -179.29272    60.848745   -7.4588228      46.7237      46.7237      46.7237           90           90           90     102002.7   -414.26428 
  509000       508500   -9874.9789    1015.7554   -10890.734    4257.7812   -15148.516    109.14955     46.19279   -253.82051   -148.65395   -55.641822   -310.90974   0.89234617      46.7237      46.7237      46.7237           90           90           90     102002.7   -118.76056 
  510000       509500   -9902.9918    1002.4559   -10905.448    4277.4687   -15182.916    107.72043   -416.46757   -510.65231   -677.59682    -109.4604     87.83399    65.865782      46.7237      46.7237      46.7237           90           90           90     102002.7   -534.90557 
  511000       510500   -9876.5511    1030.5753   -10907.126    4286.5731     -15193.7    110.74204   -389.64105    -649.9111   -504.36142    -105.2972    119.51797     135.3401      46.7237      46.7237      46.7237           90           90           90     102002.7   -514.63786 
  512000       511500   -9870.3377    1036.6955   -10907.033    4260.4283   -15167.461     111.3997   -162.23383   -160.74239    -437.1832    -39.53125   -59.016969   -113.61433      46.7237      46.7237      46.7237           90           90           90     102002.7   -253.38647 
  513000       512500   -9880.6048    1026.0106   -10906.615    4261.1583   -15167.774    110.25154   -663.73956   -512.14179   -497.53351   -200.89796   -150.13827    159.14351      46.7237      46.7237      46.7237           90           90           90     102002.7   -557.80495 
  514000       513500   -9811.2801    1060.2428   -10871.523    4279.8394   -15151.362    113.93001   -676.46338   -628.01234   -971.00367    130.01894   -89.876099    44.770961      46.7237      46.7237      46.7237           90           90           90     102002.7   -758.49313 
  515000       514500   -9871.7231      1016.92   -10888.643    4291.9538   -15180.597    109.27469   -1203.9023   -594.56815   -919.50357   -37.271937   -184.87752      252.303      46.7237      46.7237      46.7237           90           90           90     102002.7   -905.99135 
  516000       515500   -9820.2549    1064.4121   -10884.667    4276.4722   -15161.139    114.37803   -520.58528   -349.17528   -987.50603    160.53603   -202.06465   -17.807272      46.7237      46.7237      46.7237           90           90           90     102002.7   -619.08886 
  517000       516500   -9862.4816    1025.6847   -10888.166    4274.9198   -15163.086    110.21652   -884.97799     28.48626   -365.31501    11.845419   -240.06334   -211.80576      46.7237      46.7237      46.7237           90           90           90     102002.7   -407.26891 
  518000       517500   -9888.5847    1022.1762   -10910.761    4269.0108   -15179.772    109.83951   -397.85432   -707.47383   -602.47473    28.966252   -228.46431   -203.06839      46.7237      46.7237      46.7237           90           90           90     102002.7   -569.26763 
  519000       518500   -9867.3464      1037.75   -10905.096    4268.4333    -15173.53    111.51301   -826.87823   -102.87807   -67.344823   -119.93112   -298.06564   -94.788971      46.7237      46.7237      46.7237           90           90           90     102002.7   -332.36704 
  520000       519500   -9907.8743    999.18453   -10907.059    4263.4854   -15170.544     107.3689   -776.28264   -724.22382    -606.8673   -261.60752    72.168547    452.27697      46.7237      46.7237      46.7237           90           90           90     102002.7   -702.45792 
  521000       520500    -9871.223    1005.7104   -10876.933    4280.5388   -15157.472    108.07014   -447.81976   -795.30741    -471.6522    126.20989   -6.6013005   -98.196343      46.7237      46.7237      46.7237           90           90           90     102002.7   -571.59313 
  522000       521500   -9834.1901    1039.5732   -10873.763    4262.1785   -15135.942    111.70892   -450.81703   -145.37143   -813.99416    168.10675   -41.287844   -45.539206      46.7237      46.7237      46.7237           90           90           90     102002.7   -470.06088 
  523000       522500   -9852.9783     1023.299   -10876.277    4299.3003   -15175.578    109.96016   -407.23928    -770.0416   -807.32322    199.89507    -162.5617    1.6201907      46.7237      46.7237      46.7237           90           90           90     102002.7    -661.5347 
  524000       523500   -9854.7323    1034.0512   -10888.784    4274.4908   -15163.274    111.11555   -83.477182   -455.54181   -871.73451   -28.969519   -301.25443   -118.25986      46.7237      46.7237      46.7237           90           90           90     102002.7   -470.25117 
  525000       524500   -9858.4642    1030.6038   -10889.068    4263.3965   -15152.464     110.7451   -206.71028   -475.37256   -523.49842    59.010012   -274.92316   -114.58328      46.7237      46.7237      46.7237           90           90           90     102002.7   -401.86042 
  526000       525500   -9899.1833     1015.684   -10914.867    4263.4372   -15178.304    109.14188   -966.09905   -322.63663   -449.73896   -44.870034   -194.12234   -260.57745      46.7237      46.7237      46.7237           90           90           90     102002.7   -579.49155 
  527000       526500   -9850.2105    1033.6443   -10883.855    4272.0402   -15155.895    111.07183   -691.32842   -813.33803   -563.14936     138.7785   -233.87801    -161.2878      46.7237      46.7237      46.7237           90           90           90     102002.7   -689.27194 
  528000       527500   -9872.1919    1015.2551   -10887.447    4287.4386   -15174.886    109.09579   -849.16607   -736.01525   -888.53773    266.33014   -80.362369    -37.37749      46.7237      46.7237      46.7237           90           90           90     102002.7   -824.57302 
  529000       528500   -9873.5371    1018.0824   -10891.619    4250.6933   -15142.313     109.3996   -569.82155   -159.60581   -999.06522   -123.37737   -293.45942   -58.160364      46.7237      46.7237      46.7237           90           90           90     102002.7   -576.16419 
  530000       529500   -9869.7555    1017.9441     -10887.7    4280.1215   -15167.821    109.38473   -491.53888    -335.1516   -785.04402    -43.52642    -151.5004     311.9435      46.7237      46.7237      46.7237           90           90           90     102002.7   -537.24484 
  531000       530500   -9861.4034    1019.9167    -10881.32    4249.2193   -15130.539    109.59671   -553.73517   -238.76517   -343.96378    22.857898  -0.91402377   -85.087625      46.7237      46.7237      46.7237           90           90           90     102002.7   -378.82137 
  532000       531500   -9890.6328     1017.733   -10908.366    4246.3169   -15154.683    109.36206   -239.71537   -198.73644   -646.77499   -30.482398    -6.792129    262.81973      46.7237      46.7237      46.7237           90           90           90     102002.7   -361.74227 
  533000       532500   -9836.2726    1030.8494   -10867.122    4281.4971   -15148.619     110.7715   -682.34155   -155.21976   -113.03587   -22.008717   -248.69285    230.75103      46.7237      46.7237      46.7237           90           90           90     102002.7   -316.86573 
  534000       533500   -9863.9468     1037.278   -10901.225    4269.7587   -15170.984    111.46229   -611.77002   -454.11211   -454.40464   -334.89953    296.72155   -125.49988      46.7237      46.7237      46.7237           90           90           90     102002.7   -506.76226 
  535000       534500   -9900.7656    1020.0989   -10920.865    4245.1525   -15166.017    109.61628   -223.47008   -301.52904   -565.82809   -181.06693    132.71657    -125.9831      46.7237      46.7237      46.7237           90           90           90     102002.7   -363.60907 
  536000       535500   -9916.1284    997.79083   -10913.919    4268.6908    -15182.61    107.21914   -495.02241   -493.21248   -458.81895   -143.19286     130.5406   -16.398552      46.7237      46.7237      46.7237           90           90           90     102002.7   -482.35128 
  537000       536500   -9866.4277    1021.4361   -10887.864     4281.033   -15168.897    109.75997   -681.33006   -357.59635   -929.86068   -218.08409    137.01425   -123.38442      46.7237      46.7237      46.7237           90           90           90     102002.7   -656.26236 
  538000       537500   -9849.6246    1036.0402   -10885.665    4290.6006   -15176.265    111.32928   -458.82732   -321.73214     -696.945   -75.563292   -202.97328    86.682306      46.7237      46.7237      46.7237           90           90           90     102002.7   -492.50149 
  539000       538500   -9852.6259    1043.1378   -10895.764     4287.799   -15183.563    112.09197     -326.298   -847.13183   -599.58101    37.955047    161.11578   -196.98305      46.7237      46.7237      46.7237           90           90           90     102002.7   -591.00361 
  540000       539500    -9851.126    1031.3063   -10882.432    4283.6963   -15166.129     110.8206   -183.09131   -572.41965   -601.42253   -37.778313    37.314482    167.21342      46.7237      46.7237      46.7237           90           90           90     102002.7   -452.31116 
  541000       540500    -9912.953     994.8203   -10907.773    4278.2905   -15186.064    106.89993    20.554828    -677.2551   -671.67503    325.33933    8.5940572    238.01463      46.7237      46.7237      46.7237           90           90           90     102002.7   -442.79177 
  542000       541500   -9878.1811    1003.6595   -10881.841    4259.7531   -15141.594    107.84977   -517.71514   -497.15116   -494.23303     59.52927   -163.22262    43.994699      46.7237      46.7237      46.7237           90           90           90     102002.7   -503.03311 
  543000       542500   -9861.5759    1014.5919   -10876.168    4260.8524    -15137.02    109.02452   -123.33446   -320.38847   -200.27401    124.30395    222.91304   -96.925548      46.7237      46.7237      46.7237           90           90           90     102002.7   -214.66565 
  544000       543500   -9852.8814    1024.0149   -10876.896    4300.1166   -15177.013    110.03709   -868.76136   -403.81568   -1303.3789   -44.257602    141.83319   -60.959116      46.7237      46.7237      46.7237           90           90           90     102002.7   -858.65198 
  545000       544500   -9889.1752    999.79273   -10888.968    4265.4792   -15154.447    107.43425   -665.78054   -571.91164   -963.60044    53.004382   -259.02133    18.999253      46.7237      46.7237      46.7237           90           90           90     102002.7   -733.76421 
  546000       545500   -9873.9597    1022.2786   -10896.238    4271.4482   -15167.686    109.85051   -407.15049    61.610429   -417.62875    100.44583    -90.99293   -198.10817      46.7237      46.7237      46.7237           90           90           90     102002.7   -254.38961 
  547000       546500   -9910.6671    1004.9777   -10915.645    4261.0313   -15176.676    107.99141   -577.60934    -996.5134   -1024.9908   -9.7667401    152.12808   -21.582204      46.7237      46.7237      46.7237           90           90           90     102002.7   -866.37119 
  548000       547500   -9837.5889     1042.676   -10880.265    4288.0101   -15168.275    112.04235   -720.14695   -616.87282   -861.60176   -96.599999    116.82908    268.66745      46.7237      46.7237      46.7237           90           90           90     102002.7   -732.87384 
  549000       548500   -9865.5374    1022.2103   -10887.748    4277.6931   -15165.441    109.84317   -709.81569   -77.894344    79.625025    57.255355   -202.81988    248.14423      46.7237      46.7237      46.7237           90           90           90     102002.7   -236.02834 
  550000       549500   -9912.4125    990.28326   -10902.696    4290.9889   -15193.685     106.4124   -911.14767   -50.312265   -824.84053    264.35405   -289.45963   -190.15855      46.7237      46.7237      46.7237           90           90           90     102002.7   -595.43349 
  551000       550500   -9833.5843    1039.9529   -10873.537    4302.6228    -15176.16    111.74972   -988.14218  -0.29068611   -589.74384    -102.3999    78.857015   -178.74615      46.7237      46.7237      46.7237           90           90           90     102002.7    -526.0589 
  552000       551500   -9866.2369    1032.9179   -10899.155    4268.5202   -15167.675    110.99377   -509.10273   -858.19328   -803.33407    54.274319    211.88781    26.165985      46.7237      46.7237      46.7237           90           90           90     102002.7   -723.54336 
  553000       552500   -9872.5373    1029.4171   -10901.954    4266.1145   -15168.069    110.61758   -385.27334   -490.20911   -635.20988   -78.199231    19.569912   -279.34919      46.7237      46.7237      46.7237           90           90           90     102002.7   -503.56411 
  554000       553500   -9879.6452    1021.0415   -10900.687    4272.9307   -15173.617    109.71757   -855.98921   -627.25919   -304.66115     127.5748   -205.75001   -32.239568      46.7237      46.7237      46.7237           90           90           90     102002.7   -595.96985 
  555000       554500   -9838.1444    1056.0953    -10894.24    4270.5811   -15164.821    113.48434   -552.51017   -815.40816   -454.36572    82.424386    122.79118   -31.112739      46.7237      46.7237      46.7237           90           90           90     102002.7   -607.42801 
[...]
  936000       935500   -9861.2506     1037.236   -10898.487    4298.6933    -15197.18    111.45777   -977.84722    -499.6603   -867.44107   -329.62515    143.54175   -161.09049      46.7237      46.7237      46.7237           90           90           90     102002.7   -781.64953 
  937000       936500   -9877.5573     1023.883    -10901.44    4278.3262   -15179.766    110.02291   -891.43114   -755.57752   -488.99389   -90.224613    15.204911     -264.675      46.7237      46.7237      46.7237           90           90           90     102002.7   -712.00085 
  938000       937500    -9864.752    1013.8709   -10878.623    4280.1847   -15158.808    108.94705   -664.38159   -321.88023   -449.54647    60.151061    162.38934    88.992015      46.7237      46.7237      46.7237           90           90           90     102002.7   -478.60276 
  939000       938500    -9910.488    1003.7473   -10914.235    4249.0698   -15163.305    107.85919   -693.42795   -752.64706   -248.89358    -59.65824    74.185171    -24.81361      46.7237      46.7237      46.7237           90           90           90     102002.7   -564.98953 
  940000       939500   -9847.1396    1027.5825   -10874.722    4277.5909   -15152.313    110.42045    -354.9531   -358.36879   -643.41982    109.44709   -190.64879   -150.66785      46.7237      46.7237      46.7237           90           90           90     102002.7   -452.24724 
  941000       940500   -9900.9071    1005.7392   -10906.646    4272.4902   -15179.137    108.07324   -695.62625   -532.84258   -698.75951   -176.13917   -107.02281    -29.69617      46.7237      46.7237      46.7237           90           90           90     102002.7   -642.40945 
  942000       941500    -9868.246     1027.767   -10896.013    4279.5676   -15175.581    110.44028   -811.49282   -919.20926   -718.52019    106.64313    63.707326    104.61263      46.7237      46.7237      46.7237           90           90           90     102002.7   -816.40742 
  943000       942500   -9896.9736    1010.0369   -10907.011    4257.7165   -15164.727    108.53506   -619.78459   -103.16575    -842.3083    97.101811    147.46269    -124.1499      46.7237      46.7237      46.7237           90           90           90     102002.7   -521.75288 
  944000       943500   -9883.1178      1026.63   -10909.748    4264.6571   -15174.405    110.31809   -807.02988   -534.22519   -638.63373   -222.35661    79.209818    197.08436      46.7237      46.7237      46.7237           90           90           90     102002.7   -659.96294 
  945000       944500   -9866.8009     1035.313   -10902.114    4262.7272   -15164.841    111.25114   -331.03895   -1081.3119   -886.62217   -56.348919    41.774256    7.4072161      46.7237      46.7237      46.7237           90           90           90     102002.7   -766.32434 
  946000       945500   -9852.1486    1041.7446   -10893.893    4274.7552   -15168.648    111.94226   -552.46843    86.380638   -721.55053    172.74831   -169.51812    149.22535      46.7237      46.7237      46.7237           90           90           90     102002.7   -395.87944 
  947000       946500   -9888.2251    996.84356   -10885.069    4303.7985   -15188.867    107.11735   -415.04641   -1225.9708   -716.68543   -133.69267     196.3481    303.38774      46.7237      46.7237      46.7237           90           90           90     102002.7   -785.90087 
  948000       947500   -9854.4596    1027.2692   -10881.729    4285.5676   -15167.296    110.38678   -1061.4223   -435.41627   -1093.9002    74.015062    159.10702    46.118878      46.7237      46.7237      46.7237           90           90           90     102002.7    -863.5796 
  949000       948500    -9891.422    1011.6032   -10903.025    4264.8601   -15167.885    108.70337     -580.474   -704.11863   -348.29331   -12.115755    19.569845    51.115605      46.7237      46.7237      46.7237           90           90           90     102002.7   -544.29532 
  950000       949500   -9862.3056    1014.8446    -10877.15    4275.3628   -15152.513    109.05168   -723.78217   -357.32813    -652.1751   -81.538405    210.48879   -72.014334      46.7237      46.7237      46.7237           90           90           90     102002.7    -577.7618 
  951000       950500   -9838.7962    1034.3434    -10873.14    4289.8218   -15162.961    111.14695   -903.69207   -383.60353     -102.201    417.03485     242.6138   -362.16885      46.7237      46.7237      46.7237           90           90           90     102002.7   -463.16553 
  952000       951500   -9880.5243    1020.6123   -10901.137    4295.2583   -15196.395    109.67146   -789.28802   -519.71397   -577.65651    -32.44387   -67.661825   -129.72489      46.7237      46.7237      46.7237           90           90           90     102002.7   -628.88617 
  953000       952500   -9874.9969    1012.5792   -10887.576    4280.8609   -15168.437    108.80824   -704.93488   -320.87334   -689.50313   -97.597252   -84.534213   -63.248873      46.7237      46.7237      46.7237           90           90           90     102002.7   -571.77045 
  954000       953500    -9875.598    1020.2346   -10895.833    4274.8034   -15170.636    109.63086   -24.693825   -670.06063   -304.31044    48.884981    195.63114    28.354443      46.7237      46.7237      46.7237           90           90           90     102002.7   -333.02163 
  955000       954500   -9862.4303    1036.2869   -10898.717    4260.1015   -15158.819    111.35579   -506.83199   -466.69425   -317.88785    145.38378   -27.516185     156.2413      46.7237      46.7237      46.7237           90           90           90     102002.7   -430.47136 
  956000       955500   -9881.0883    1010.7309   -10891.819    4278.6029   -15170.422    108.60963   -477.64045    -549.2649   -621.98516    84.266888    156.61293    183.30918      46.7237      46.7237      46.7237           90           90           90     102002.7   -549.63017 
  957000       956500   -9845.9124    1038.4532   -10884.366    4278.4574   -15162.823    111.58857    -538.8826   -381.53422   -288.17262   -168.40553   -40.822783   -184.71514      46.7237      46.7237      46.7237           90           90           90     102002.7   -402.86315 
  958000       957500   -9853.4238    1011.9056   -10865.329    4302.2956   -15167.625    108.73586   -638.52214   -910.49193   -378.14143    8.1351832   -279.54828   -379.96036      46.7237      46.7237      46.7237           90           90           90     102002.7   -642.38517 
  959000       958500    -9873.434    1028.0702   -10901.504    4270.0975   -15171.602    110.47285   -366.74096   -733.01536   -707.31524   -270.75979   -116.87088    78.695421      46.7237      46.7237      46.7237           90           90           90     102002.7   -602.35719 
  960000       959500   -9844.3636    1049.7618   -10894.125    4279.8534   -15173.979    112.80375   -558.13188   -772.08022   -1000.2788   -24.698065    8.8848912    -199.6844      46.7237      46.7237      46.7237           90           90           90     102002.7    -776.8303 
  961000       960500   -9865.0787    1022.1257   -10887.204    4294.6361    -15181.84    109.83408    -625.3078   -772.35067   -495.91083    317.49819    311.34049    68.664956      46.7237      46.7237      46.7237           90           90           90     102002.7   -631.18977 
  962000       961500    -9867.447    1018.6139   -10886.061    4278.6838   -15164.745    109.45671   -689.12122    -975.9344   -336.23763   -59.760444   -10.827732    36.554133      46.7237      46.7237      46.7237           90           90           90     102002.7   -667.09775 
  963000       962500   -9877.7379    1039.8978   -10917.636    4256.4158   -15174.052    111.74381   -920.37077    -693.1474   -789.45588    162.40481   -112.53219   -244.84666      46.7237      46.7237      46.7237           90           90           90     102002.7   -800.99135 
  964000       963500   -9862.0484    1022.3088   -10884.357    4284.3205   -15168.678    109.85375   -681.45496   -890.72103   -522.86052    32.885411   -30.120959    21.824462      46.7237      46.7237      46.7237           90           90           90     102002.7    -698.3455 
  965000       964500   -9817.3271    1064.0469   -10881.374    4263.8527   -15145.227    114.33878   -449.35071   -536.88105   -540.04739   -35.873794    126.45695   -44.255489      46.7237      46.7237      46.7237           90           90           90     102002.7   -508.75972 
  966000       965500   -9901.0403    1014.9105   -10915.951    4265.1477   -15181.098    109.05875   -570.27904     -714.267   -1010.4052    75.492098   -229.70257   -84.791717      46.7237      46.7237      46.7237           90           90           90     102002.7   -764.98374 
  967000       966500   -9860.1538    1047.2958    -10907.45    4267.8552   -15175.305    112.53877   -835.11652     12.18104   -236.72702   -19.045415    73.398692   -196.22503      46.7237      46.7237      46.7237           90           90           90     102002.7   -353.22083 
  968000       967500   -9838.2695    1042.0603    -10880.33    4287.9422   -15168.272    111.97618    -595.6498   -374.73461   -649.68993   -155.99702    110.88538   -108.48823      46.7237      46.7237      46.7237           90           90           90     102002.7   -540.02478 
  969000       968500   -9862.2309    1018.1877   -10880.419    4266.6493   -15147.068    109.41091   -290.68525   -814.42754   -603.74062   -101.95396    8.1858439    2.4652465      46.7237      46.7237      46.7237           90           90           90     102002.7    -569.6178 
  970000       969500   -9839.5946    1040.1508   -10879.745    4305.1227   -15184.868    111.77099   -234.34614   -778.76303   -716.98367   -8.5864009   -119.20466    232.99985      46.7237      46.7237      46.7237           90           90           90     102002.7   -576.69761 
  971000       970500   -9880.9328    1011.7318   -10892.665    4269.1629   -15161.827    108.71719   -639.97876   -679.49118   -466.50846   -15.809207    51.390124    69.434508      46.7237      46.7237      46.7237           90           90           90     102002.7   -595.32613 
  972000       971500   -9876.3747     1019.717   -10896.092    4286.5425   -15182.634    109.57524   -762.08385   -76.320432   -138.12454   -148.78853    40.314437    283.15866      46.7237      46.7237      46.7237           90           90           90     102002.7   -325.50961 
  973000       972500    -9844.409    1029.0768   -10873.486    4274.9251   -15148.411    110.58102    -148.2421   -190.68455   -172.97757   -44.155687   -72.629021   -159.30559      46.7237      46.7237      46.7237           90           90           90     102002.7   -170.63474 
  974000       973500   -9842.9602    1024.3575   -10867.318    4298.1176   -15165.435     110.0739   -516.82371   -472.50961   -757.29521    218.18644   -14.060671    -172.0038      46.7237      46.7237      46.7237           90           90           90     102002.7   -582.20951 
  975000       974500      -9897.8    1008.7899    -10906.59    4250.6055   -15157.195    108.40106   -345.24128   -374.01748   -165.43508    210.60509   -39.414982    179.75401      46.7237      46.7237      46.7237           90           90           90     102002.7   -294.89795 
  976000       975500   -9856.7224    1025.5341   -10882.256    4274.0387   -15156.295    110.20033   -305.84148   -450.98912    -185.9684   -155.99463    68.955517    181.35339      46.7237      46.7237      46.7237           90           90           90     102002.7   -314.26633 
  977000       976500   -9892.3341    1009.8785   -10902.213    4276.9791   -15179.192    108.51803   -435.74912   -521.41194   -398.56611   -84.234982   -43.583825   -95.790649      46.7237      46.7237      46.7237           90           90           90     102002.7   -451.90906 
  978000       977500   -9879.1875    1032.1512   -10911.339    4238.3741   -15149.713    110.91138   -167.29754   -905.07652   -178.44289    -45.43411    52.994768   -5.4599727      46.7237      46.7237      46.7237           90           90           90     102002.7   -416.93899 
  979000       978500   -9853.3578    1036.9848   -10890.343    4271.9586   -15162.301    111.43079   -313.50342   -449.28006   -486.45599    82.961519    101.27491   -63.082105      46.7237      46.7237      46.7237           90           90           90     102002.7   -416.41316 
  980000       979500   -9905.6173    1015.3286   -10920.946    4263.7888   -15184.735    109.10369   -761.21362   -174.77026   -587.33489   -131.78134    218.07057   -60.121916      46.7237      46.7237      46.7237           90           90           90     102002.7   -507.77293 
  981000       980500   -9844.0024    1042.8569   -10886.859    4276.9936   -15163.853    112.06178   -334.51206   -599.39039   -609.41509    9.1944364   -225.87943    73.915755      46.7237      46.7237      46.7237           90           90           90     102002.7   -514.43918 
  982000       981500   -9839.3235    1051.4593   -10890.783    4280.0364   -15170.819    112.98616   -869.19562   -375.29767   -972.64956     70.61957   -115.37417     22.12578      46.7237      46.7237      46.7237           90           90           90     102002.7   -739.04762 
  983000       982500   -9859.9029    1032.6827   -10892.586    4285.8368   -15178.422    110.96849   -599.03176   -456.03864   -586.00501    131.48221    131.71245   -17.376972      46.7237      46.7237      46.7237           90           90           90     102002.7   -547.02514 
  984000       983500   -9936.6988    988.80711   -10925.506    4265.2573   -15190.763    106.25378   -678.25448   -421.92323   -1094.8539    -284.2156   -55.281217     8.585409      46.7237      46.7237      46.7237           90           90           90     102002.7   -731.67721 
  985000       984500   -9859.8043     1034.673   -10894.477    4273.2369   -15167.714    111.18236    -866.4982   -556.39344   -426.32956   -84.272924   -85.857625   -129.28331      46.7237      46.7237      46.7237           90           90           90     102002.7   -616.40707 
  986000       985500   -9871.1823    1010.6659   -10881.848    4265.6451   -15147.493    108.60265   -750.84796   -452.85678   -187.63987    96.151645   -69.792375    28.203481      46.7237      46.7237      46.7237           90           90           90     102002.7   -463.78154 
  987000       986500   -9849.2412     1020.979    -10870.22    4278.0875   -15148.308    109.71085   -511.44036   -533.38935   -576.04998   -115.23877   -207.96146   -67.719877      46.7237      46.7237      46.7237           90           90           90     102002.7   -540.29323 
  988000       987500   -9858.6218    1031.5879    -10890.21    4278.7017   -15168.911    110.85085   -658.24988    46.524579   -462.03043    158.86771   -52.447811    97.411877      46.7237      46.7237      46.7237           90           90           90     102002.7   -357.91858 
  989000       988500   -9889.6794    1041.1238   -10930.803    4241.9923   -15172.795    111.87554   -680.89892    161.46096   -685.72935   -123.14552   -115.17608    57.432121      46.7237      46.7237      46.7237           90           90           90     102002.7   -401.72244 
  990000       989500   -9881.0512    1027.5935   -10908.645    4250.7783   -15159.423    110.42163   -714.84893   -390.72292   -356.58545   -333.98874    147.04301   -29.688045      46.7237      46.7237      46.7237           90           90           90     102002.7   -487.38577 
  991000       990500   -9844.9753    1027.6695   -10872.645    4280.1497   -15152.795     110.4298   -605.50867   -486.47561   -473.78792     43.06254    53.655406   -75.592232      46.7237      46.7237      46.7237           90           90           90     102002.7   -521.92407 
  992000       991500   -9888.7594    998.22343   -10886.983     4256.716   -15143.699    107.26562   -359.55297   -311.58446   -1232.2553    66.359253    124.22113   -112.72249      46.7237      46.7237      46.7237           90           90           90     102002.7   -634.46424 
  993000       992500   -9887.1389    1004.3774   -10891.516     4278.813   -15170.329     107.9269   -413.07469   -675.67463    -431.7931   -30.653526    250.49593    154.88654      46.7237      46.7237      46.7237           90           90           90     102002.7   -506.84747 
  994000       993500   -9845.4488    1025.5652   -10871.014    4292.3932   -15163.407    110.20367    -486.2519   -410.91209   -361.19456   -273.56842    244.67799   -57.745236      46.7237      46.7237      46.7237           90           90           90     102002.7   -419.45285 
  995000       994500   -9852.8198    1021.7105    -10874.53    4287.6446   -15162.175    109.78947   -179.91138   -246.93576   -442.30517    53.632213   -27.341602   -142.87455      46.7237      46.7237      46.7237           90           90           90     102002.7   -289.71744 
  996000       995500   -9866.8083    1038.6589   -10905.467    4269.5867   -15175.054    111.61067   -794.43614     -744.544   -920.00337    195.85756    81.310092   -248.60589      46.7237      46.7237      46.7237           90           90           90     102002.7   -819.66117 
  997000       996500   -9890.2001    1018.3294   -10908.529    4262.2178   -15170.747    109.42614   -772.35866   -696.62429   -993.68868   -231.08559     128.9064      149.421      46.7237      46.7237      46.7237           90           90           90     102002.7   -820.89054 
  998000       997500   -9872.7493    1016.7859   -10889.535     4277.591   -15167.126    109.26028   -539.48097   -784.04375   -905.25974    72.100191    71.669393    56.311839      46.7237      46.7237      46.7237           90           90           90     102002.7   -742.92816 
  999000       998500   -9892.4768    999.83613   -10892.313    4272.1966    -15164.51    107.43892   -1019.5362   -260.88462   -779.08692   -87.245377    183.79877    28.721334      46.7237      46.7237      46.7237           90           90           90     102002.7   -686.50259 
 1000000       999500   -9839.0239    1050.7809   -10889.805    4273.6526   -15163.457    112.91326   -323.17011   -802.47695   -306.07473    55.339989    214.61817   -307.45482      46.7237      46.7237      46.7237           90           90           90     102002.7   -477.24059 
 1000500      1000000   -9865.7233     1028.272   -10893.995    4282.0365   -15176.032    110.49454   -546.57411   -954.30299   -729.70783   -40.215828   -11.799081    61.830986      46.7237      46.7237      46.7237           90           90           90     102002.7   -743.52831 
Loop time of 963.394 on 24 procs for 500000 steps with 3123 atoms

Performance: 44.841 ns/day, 0.535 hours/ns, 518.999 timesteps/s
98.1% CPU use with 24 MPI tasks x no OpenMP threads

MPI task timing breakdown:
Section |  min time  |  avg time  |  max time  |%varavg| %total
---------------------------------------------------------------
Pair    | 402.29     | 548.9      | 678.47     | 319.8 | 56.98
Bond    | 41.782     | 82.518     | 136.33     | 289.6 |  8.57
Neigh   | 7.724      | 7.7344     | 7.7438     |   0.2 |  0.80
Comm    | 117.77     | 299.48     | 485.39     | 558.1 | 31.09
Output  | 0.52663    | 0.57431    | 0.57648    |   1.3 |  0.06
Modify  | 13.035     | 13.812     | 14.566     |  11.2 |  1.43
Other   |            | 10.37      |            |       |  1.08

Nlocal:    130.125 ave 176 max 92 min
Histogram: 3 3 2 0 5 3 4 2 0 2
Nghost:    3483 ave 3573 max 3410 min
Histogram: 2 4 4 5 1 0 0 4 2 2
Neighs:    7633.08 ave 11079 max 4195 min
Histogram: 4 0 3 2 3 3 3 2 2 2

Total # of neighbors = 183194
Ave neighs/atom = 58.6596
Ave special neighs/atom = 3.68876
Neighbor list builds = 4708
Dangerous builds = 0
Total wall time: 0:29:50
