LAMMPS (30 Mar 2018)
Reading data file ...
  orthogonal box = (0 0 0) to (46.7237 46.7237 46.7237)
  2 by 2 by 4 MPI processor grid
  reading atoms ...
  2054 atoms
  scanning bonds ...
  5 = max bonds/atom
  scanning angles ...
  10 = max angles/atom
  scanning dihedrals ...
  32 = max dihedrals/atom
  scanning impropers ...
  3 = max impropers/atom
  reading bonds ...
  2064 bonds
  reading angles ...
  3696 angles
  reading dihedrals ...
  6240 dihedrals
  reading impropers ...
  1008 impropers
Finding 1-2 1-3 1-4 neighbors ...
  special bond factors lj:   0          0          0         
  special bond factors coul: 0          0          0         
  5 = max # of 1-2 neighbors
  8 = max # of 1-3 neighbors
  20 = max # of 1-4 neighbors
  19 = max # of special neighbors
Finding 1-2 1-3 1-4 neighbors ...
  special bond factors lj:   0          0          1         
  special bond factors coul: 1          1          1         
  5 = max # of 1-2 neighbors
  8 = max # of 1-3 neighbors
  19 = max # of special neighbors
WARNING: Using 'neigh_modify every 1 delay 0 check yes' setting during minimization (../min.cpp:168)
Neighbor list info ...
  update every 1 steps, delay 0 steps, check yes
  max neighbors/atom: 2000, page size: 100000
  master list distance cutoff = 16
  ghost atom cutoff = 16
  binsize = 8, bins = 6 6 6
  3 neighbor lists, perpetual/occasional/extra = 3 0 0
  (1) pair buck6d/coul/gauss/dsf, perpetual, skip from (3)
      attributes: half, newton on
      pair build: skip
      stencil: none
      bin: none
  (2) pair lj/cut, perpetual, skip from (3)
      attributes: half, newton on
      pair build: skip
      stencil: none
      bin: none
  (3) neighbor class addition, perpetual
      attributes: half, newton on
      pair build: half/bin/newton
      stencil: half/bin/3d/newton
      bin: standard
Setting up cg style minimization ...
  Unit style    : real
  Current step  : 0
WARNING: Inconsistent image flags (../domain.cpp:786)
Per MPI rank memory allocation (min/avg/max) = 22.91 | 23.37 | 23.81 Mbytes
Step Temp E_pair E_mol TotEng Press 
       0            0   -12578.378    6482.8914   -6095.4866     6114.689 
     502            0   -12672.362    3730.1913    -8942.171   -654.45822 
Loop time of 3.01951 on 16 procs for 502 steps with 2054 atoms

99.8% CPU use with 16 MPI tasks x no OpenMP threads

Minimization stats:
  Stopping criterion = max force evaluations
  Energy initial, next-to-last, final = 
        -6095.48655287     -8942.16005546     -8942.17100805
  Force two-norm initial, final = 2574.5 4.82797
  Force max component initial, final = 151.923 0.763793
  Final line search alpha, max atom move = 0.00454228 0.00346936
  Iterations, force evaluations = 502 1001

MPI task timing breakdown:
Section |  min time  |  avg time  |  max time  |%varavg| %total
---------------------------------------------------------------
Pair    | 1.3372     | 1.854      | 2.2656     |  21.1 | 61.40
Bond    | 0.31441    | 0.36036    | 0.44119    |   5.4 | 11.93
Neigh   | 0.017663   | 0.017704   | 0.01777    |   0.0 |  0.59
Comm    | 0.34849    | 0.74602    | 1.3022     |  32.5 | 24.71
Output  | 0          | 0          | 0          |   0.0 |  0.00
Modify  | 0          | 0          | 0          |   0.0 |  0.00
Other   |            | 0.04142    |            |       |  1.37

Nlocal:    128.375 ave 150 max 107 min
Histogram: 1 0 1 4 2 3 2 2 0 1
Nghost:    2501.5 ave 2532 max 2484 min
Histogram: 1 3 3 2 3 2 1 0 0 1
Neighs:    11452.7 ave 15424 max 7522 min
Histogram: 2 2 1 2 1 2 1 1 1 3

Total # of neighbors = 183243
Ave neighs/atom = 89.2128
Ave special neighs/atom = 5.60857
Neighbor list builds = 11
Dangerous builds = 0
Neighbor list info ...
  update every 1 steps, delay 10 steps, check yes
  max neighbors/atom: 2000, page size: 100000
  master list distance cutoff = 16
  ghost atom cutoff = 16
  binsize = 8, bins = 6 6 6
  3 neighbor lists, perpetual/occasional/extra = 3 0 0
  (1) pair buck6d/coul/gauss/dsf, perpetual, skip from (3)
      attributes: half, newton on
      pair build: skip
      stencil: none
      bin: none
  (2) pair lj/cut, perpetual, skip from (3)
      attributes: half, newton on
      pair build: skip
      stencil: none
      bin: none
  (3) neighbor class addition, perpetual
      attributes: half, newton on
      pair build: half/bin/newton
      stencil: half/bin/3d/newton
      bin: standard
Setting up Verlet run ...
  Unit style    : real
  Current step  : 502
  Time step     : 1
WARNING: Inconsistent image flags (../domain.cpp:786)
Per MPI rank memory allocation (min/avg/max) = 22.56 | 22.62 | 22.69 Mbytes
Step Temp PotEng TotEng Press Volume Lx Ly Lz 
     502           91    -8942.171   -8385.2871   -404.89199     102002.7      46.7237      46.7237      46.7237 
    1000    79.280912   -8454.7376   -7969.5699   -679.88095     102002.7      46.7237      46.7237      46.7237 
    2000    99.914238   -8389.2328   -7777.7973   -734.16908     102002.7      46.7237      46.7237      46.7237 
    3000    87.425614   -8334.6479   -7799.6378   -898.75295     102002.7      46.7237      46.7237      46.7237 
    4000    91.652452   -8346.1432   -7785.2666   -640.48756     102002.7      46.7237      46.7237      46.7237 
    5000    91.135028    -8355.499   -7797.7888    -851.4208     102002.7      46.7237      46.7237      46.7237 
    6000    89.639883   -8350.7328   -7802.1723   -535.16142     102002.7      46.7237      46.7237      46.7237 
    7000    92.119011   -8340.7085   -7776.9767    -645.8348     102002.7      46.7237      46.7237      46.7237 
    8000    87.548779   -8330.6495   -7794.8857   -441.87585     102002.7      46.7237      46.7237      46.7237 
    9000    88.232397   -8355.3299   -7815.3827   -731.75638     102002.7      46.7237      46.7237      46.7237 
   10000     92.64935   -8327.6768   -7760.6995   -442.88774     102002.7      46.7237      46.7237      46.7237 
   11000    91.212161    -8351.709   -7793.5268    -965.7334     102002.7      46.7237      46.7237      46.7237 
   12000    90.214281   -8342.9332   -7790.8576   -736.17258     102002.7      46.7237      46.7237      46.7237 
   13000    87.614123   -8342.9789   -7806.8153   -473.58377     102002.7      46.7237      46.7237      46.7237 
   14000     91.46758   -8358.4489   -7798.7036   -887.28793     102002.7      46.7237      46.7237      46.7237 
   15000     92.20824   -8334.2465   -7769.9687   -595.99854     102002.7      46.7237      46.7237      46.7237 
   16000     91.60426   -8357.0741   -7796.4924   -725.54108     102002.7      46.7237      46.7237      46.7237 
   17000    91.338152   -8343.0238   -7784.0705    -699.7053     102002.7      46.7237      46.7237      46.7237 
   18000     89.58681   -8350.7244   -7802.4887    -519.7661     102002.7      46.7237      46.7237      46.7237 
   19000    91.195853   -8356.3804    -7798.298    -697.1278     102002.7      46.7237      46.7237      46.7237 
   20000     89.07788   -8332.2453    -7787.124   -578.14592     102002.7      46.7237      46.7237      46.7237 
   21000    92.094619   -8332.8651   -7769.2826   -582.15922     102002.7      46.7237      46.7237      46.7237 
   22000    91.125086   -8344.7166   -7787.0672   -551.15279     102002.7      46.7237      46.7237      46.7237 
   23000    91.503245   -8353.4099   -7793.4463   -575.52491     102002.7      46.7237      46.7237      46.7237 
   24000    91.037549   -8348.6662   -7791.5526    -891.6396     102002.7      46.7237      46.7237      46.7237 
   25000    89.554384   -8372.7489   -7824.7116   -599.09745     102002.7      46.7237      46.7237      46.7237 
   26000    90.472922   -8348.3375   -7794.6792   -648.78749     102002.7      46.7237      46.7237      46.7237 
   27000    93.307489   -8347.9108    -7776.906   -674.20606     102002.7      46.7237      46.7237      46.7237 
   28000    91.756945   -8367.2007   -7805.6847   -593.85622     102002.7      46.7237      46.7237      46.7237 
   29000    92.000087   -8367.5382   -7804.5342   -796.47684     102002.7      46.7237      46.7237      46.7237 
   30000    92.512724   -8318.0852   -7751.9441   -746.98324     102002.7      46.7237      46.7237      46.7237 
   31000     92.19176   -8341.0722   -7776.8952   -932.10887     102002.7      46.7237      46.7237      46.7237 
   32000    89.380067   -8338.2158   -7791.2453   -674.23489     102002.7      46.7237      46.7237      46.7237 
   33000    93.803086   -8355.7832   -7781.7455   -620.63014     102002.7      46.7237      46.7237      46.7237 
   34000    91.754818   -8360.7088   -7799.2057   -621.77145     102002.7      46.7237      46.7237      46.7237 
   35000    90.099241   -8332.2656    -7780.894    -824.0878     102002.7      46.7237      46.7237      46.7237 
   36000    90.704313   -8360.2441   -7805.1697   -727.08049     102002.7      46.7237      46.7237      46.7237 
   37000    91.070736   -8364.0366   -7806.7198   -880.19237     102002.7      46.7237      46.7237      46.7237 
   38000    92.862438   -8357.6753    -7789.394   -609.49106     102002.7      46.7237      46.7237      46.7237 
   39000    92.092064   -8338.3975   -7774.8307   -881.01724     102002.7      46.7237      46.7237      46.7237 
   40000     91.68263   -8359.0449   -7797.9836   -782.90804     102002.7      46.7237      46.7237      46.7237 
   41000    91.414252   -8353.4207   -7794.0017   -946.13435     102002.7      46.7237      46.7237      46.7237 
   42000    88.429105   -8337.7771   -7796.6261   -620.03215     102002.7      46.7237      46.7237      46.7237 
   43000    91.965966   -8335.7362    -7772.941   -634.96713     102002.7      46.7237      46.7237      46.7237 
   44000    92.086336   -8342.5792   -7779.0474   -451.70985     102002.7      46.7237      46.7237      46.7237 
   45000    94.125392   -8339.2349   -7763.2248   -602.65155     102002.7      46.7237      46.7237      46.7237 
   46000    91.997325   -8344.2472   -7781.2601   -776.57942     102002.7      46.7237      46.7237      46.7237 
   47000     92.26925   -8330.2734   -7765.6223   -693.51204     102002.7      46.7237      46.7237      46.7237 
   48000    90.288578   -8341.1304   -7788.6001   -634.81204     102002.7      46.7237      46.7237      46.7237 
   49000     91.06215   -8350.1261   -7792.8619   -477.00643     102002.7      46.7237      46.7237      46.7237 
   50000    93.826549   -8359.5656   -7785.3843    -672.5118     102002.7      46.7237      46.7237      46.7237 
   51000    89.865166   -8332.6086   -7782.6694   -746.77063     102002.7      46.7237      46.7237      46.7237 
   52000    89.295776   -8341.6396   -7795.1849   -827.24299     102002.7      46.7237      46.7237      46.7237 
   53000    91.990893   -8345.7911   -7782.8434   -801.89961     102002.7      46.7237      46.7237      46.7237 
   54000    91.831431   -8330.1834   -7768.2115   -725.98096     102002.7      46.7237      46.7237      46.7237 
   55000    90.915983   -8348.5423   -7792.1726     -842.527     102002.7      46.7237      46.7237      46.7237 
   56000     89.02769   -8334.7149   -7789.9008   -1046.5925     102002.7      46.7237      46.7237      46.7237 
   57000    92.683696   -8354.5295   -7787.3421   -946.99069     102002.7      46.7237      46.7237      46.7237 
   58000    92.800093   -8329.7979   -7761.8982   -1004.1896     102002.7      46.7237      46.7237      46.7237 
   59000    91.483311   -8338.0881   -7778.2466   -663.57082     102002.7      46.7237      46.7237      46.7237 
   60000    89.863053   -8370.8233   -7820.8971   -988.87435     102002.7      46.7237      46.7237      46.7237 
   61000    90.415988   -8363.8326   -7810.5226   -632.74411     102002.7      46.7237      46.7237      46.7237 
   62000    90.924534   -8356.8667   -7800.4446    -452.7575     102002.7      46.7237      46.7237      46.7237 
   63000    91.862349   -8339.6653   -7777.5042   -821.81357     102002.7      46.7237      46.7237      46.7237 
   64000    91.084681   -8344.6273   -7787.2252   -618.10022     102002.7      46.7237      46.7237      46.7237 
   65000    87.960959   -8344.6793   -7806.3931   -867.90065     102002.7      46.7237      46.7237      46.7237 
   66000    91.100229   -8351.1282   -7793.6309   -825.28839     102002.7      46.7237      46.7237      46.7237 
   67000    91.903307   -8349.2577    -7786.846   -742.13329     102002.7      46.7237      46.7237      46.7237 
   68000    90.954479   -8346.6842   -7790.0789   -693.33737     102002.7      46.7237      46.7237      46.7237 
   69000    87.617614   -8349.9415   -7813.7565   -588.37259     102002.7      46.7237      46.7237      46.7237 
   70000    91.869262   -8347.7169   -7785.5135   -647.27538     102002.7      46.7237      46.7237      46.7237 
   71000    91.896631   -8370.2063   -7807.8354   -790.25531     102002.7      46.7237      46.7237      46.7237 
   72000    90.843061   -8342.4806   -7786.5571   -702.36096     102002.7      46.7237      46.7237      46.7237 
   73000    89.357912   -8345.1011   -7798.2661   -826.16725     102002.7      46.7237      46.7237      46.7237 
   74000    88.365015   -8368.2644   -7827.5055   -871.95161     102002.7      46.7237      46.7237      46.7237 
   75000    91.409536   -8339.3259   -7779.9358   -768.55486     102002.7      46.7237      46.7237      46.7237 
   76000    91.445733   -8334.9004   -7775.2888   -1014.5415     102002.7      46.7237      46.7237      46.7237 
   77000    90.707059   -8338.7252    -7783.634   -806.61161     102002.7      46.7237      46.7237      46.7237 
   78000    90.902862    -8341.383   -7785.0935   -1039.1879     102002.7      46.7237      46.7237      46.7237 
   79000    93.024661   -8351.0768   -7781.8028   -857.72326     102002.7      46.7237      46.7237      46.7237 
   80000    89.937028   -8345.7039    -7795.325     -904.793     102002.7      46.7237      46.7237      46.7237 
   81000    90.578527     -8340.65   -7786.3454   -1058.4081     102002.7      46.7237      46.7237      46.7237 
   82000    90.364324   -8343.8065   -7790.8127   -930.43737     102002.7      46.7237      46.7237      46.7237 
   83000    91.772882   -8322.3939   -7760.7803   -777.69795     102002.7      46.7237      46.7237      46.7237 
   84000     91.06075   -8347.0608   -7789.8052   -645.31719     102002.7      46.7237      46.7237      46.7237 
   85000    89.836276    -8353.821   -7804.0587   -876.82585     102002.7      46.7237      46.7237      46.7237 
   86000    92.198345    -8353.349   -7789.1317   -863.11955     102002.7      46.7237      46.7237      46.7237 
   87000    89.970661   -8375.3794   -7824.7947   -610.94637     102002.7      46.7237      46.7237      46.7237 
   88000    90.343936   -8339.6758   -7786.8068   -738.38716     102002.7      46.7237      46.7237      46.7237 
   89000    92.993927   -8337.4256   -7768.3397   -490.12342     102002.7      46.7237      46.7237      46.7237 
   90000    92.583994   -8360.4276   -7793.8503   -437.91741     102002.7      46.7237      46.7237      46.7237 
   91000    92.663179   -8369.9604   -7802.8985   -886.10526     102002.7      46.7237      46.7237      46.7237 
   92000    92.766676   -8360.4349   -7792.7397   -679.52625     102002.7      46.7237      46.7237      46.7237 
   93000    89.053912   -8324.6781   -7779.7035   -470.31041     102002.7      46.7237      46.7237      46.7237 
   94000    90.652439   -8365.0809   -7810.3239   -819.09103     102002.7      46.7237      46.7237      46.7237 
   95000    89.752978   -8353.0776    -7803.825   -645.62818     102002.7      46.7237      46.7237      46.7237 
   96000    92.217048   -8348.8572   -7784.5254   -916.49246     102002.7      46.7237      46.7237      46.7237 
   97000    89.518208   -8346.1874   -7798.3715   -672.11434     102002.7      46.7237      46.7237      46.7237 
   98000    90.412744    -8347.624   -7794.3339   -856.12094     102002.7      46.7237      46.7237      46.7237 
   99000    92.432313   -8368.1942   -7802.5452   -931.94047     102002.7      46.7237      46.7237      46.7237 
  100000    88.571246   -8335.1512   -7793.1303   -803.11919     102002.7      46.7237      46.7237      46.7237 
  101000    90.030611   -8358.7694   -7807.8178   -975.22293     102002.7      46.7237      46.7237      46.7237 
  102000     90.13312   -8343.8514   -7792.2724   -735.63047     102002.7      46.7237      46.7237      46.7237 
  103000     92.66585   -8323.0165   -7755.9383   -1008.2261     102002.7      46.7237      46.7237      46.7237 
  104000    88.774752   -8347.3845   -7804.1183   -735.51978     102002.7      46.7237      46.7237      46.7237 
  105000     91.46619   -8344.7073   -7784.9705   -577.78633     102002.7      46.7237      46.7237      46.7237 
  106000     90.30121   -8353.8161   -7801.2086   -827.06102     102002.7      46.7237      46.7237      46.7237 
  107000     94.50641    -8362.789   -7784.4473   -727.56559     102002.7      46.7237      46.7237      46.7237 
  108000    91.083811   -8351.5294   -7794.1326   -866.69174     102002.7      46.7237      46.7237      46.7237 
  109000    91.338037   -8349.9628   -7791.0103   -690.45278     102002.7      46.7237      46.7237      46.7237 
  110000    91.672985   -8348.3224   -7787.3201   -638.18678     102002.7      46.7237      46.7237      46.7237 
  111000    90.040909   -8343.1281   -7792.1135   -919.41239     102002.7      46.7237      46.7237      46.7237 
  112000    89.511793   -8323.8415   -7776.0648   -853.16652     102002.7      46.7237      46.7237      46.7237 
  113000     91.91693    -8333.948   -7771.4528   -965.38233     102002.7      46.7237      46.7237      46.7237 
  114000    92.183221   -8355.7209   -7791.5962   -935.87119     102002.7      46.7237      46.7237      46.7237 
  115000    91.730006    -8343.603   -7782.2517   -814.69726     102002.7      46.7237      46.7237      46.7237 
  116000    90.206551   -8352.4199   -7800.3917    -1009.167     102002.7      46.7237      46.7237      46.7237 
  117000    91.049012   -8354.2735   -7797.0897   -722.71971     102002.7      46.7237      46.7237      46.7237 
  118000    91.077467   -8350.8753   -7793.5174   -736.64294     102002.7      46.7237      46.7237      46.7237 
  119000    92.119563   -8341.2199   -7777.4848   -844.95739     102002.7      46.7237      46.7237      46.7237 
  120000    94.153438   -8338.8261   -7762.6444   -1000.4382     102002.7      46.7237      46.7237      46.7237 
  121000     89.35949   -8349.9611   -7803.1165   -851.78334     102002.7      46.7237      46.7237      46.7237 
  122000    93.804806   -8353.1258   -7779.0776   -650.34928     102002.7      46.7237      46.7237      46.7237 
  123000    92.574416   -8336.6899   -7770.1713   -905.39547     102002.7      46.7237      46.7237      46.7237 
  124000    94.353727    -8335.419   -7758.0117    -585.3724     102002.7      46.7237      46.7237      46.7237 
  125000    90.132867   -8348.7313   -7797.1539   -863.10133     102002.7      46.7237      46.7237      46.7237 
  126000    91.779257   -8326.7958   -7765.1432   -683.04366     102002.7      46.7237      46.7237      46.7237 
  127000     89.46077   -8346.6923   -7799.2279   -837.70592     102002.7      46.7237      46.7237      46.7237 
  128000    90.487385   -8349.7967   -7796.0498   -976.95546     102002.7      46.7237      46.7237      46.7237 
  129000    92.029256   -8332.2913   -7769.1087   -803.06409     102002.7      46.7237      46.7237      46.7237 
  130000     90.92506   -8341.7204   -7785.2951    -812.2621     102002.7      46.7237      46.7237      46.7237 
  131000    91.369186   -8339.2038   -7780.0607    -824.8562     102002.7      46.7237      46.7237      46.7237 
  132000    92.288107   -8354.2188   -7789.4522   -954.93046     102002.7      46.7237      46.7237      46.7237 
  133000    90.157662   -8356.3112   -7804.5821   -959.84254     102002.7      46.7237      46.7237      46.7237 
  134000    92.687795   -8348.8769   -7781.6644   -806.69388     102002.7      46.7237      46.7237      46.7237 
  135000    90.343686   -8349.3803   -7796.5128   -894.88451     102002.7      46.7237      46.7237      46.7237 
  136000    88.463616   -8336.7108   -7795.3486   -882.31629     102002.7      46.7237      46.7237      46.7237 
  137000    94.011303   -8347.5883   -7772.2765   -1029.1891     102002.7      46.7237      46.7237      46.7237 
  138000    92.485225   -8338.1006   -7772.1277   -797.87624     102002.7      46.7237      46.7237      46.7237 
  139000    88.762215   -8342.7519   -7799.5624   -588.66806     102002.7      46.7237      46.7237      46.7237 
  140000      92.6766   -8343.7094   -7776.5654   -823.29774     102002.7      46.7237      46.7237      46.7237 
  141000    93.429618   -8343.0422     -7771.29   -806.23927     102002.7      46.7237      46.7237      46.7237 
  142000    91.343488   -8364.8414   -7805.8556   -654.38934     102002.7      46.7237      46.7237      46.7237 
  143000    94.660647   -8336.5075   -7757.2219   -600.17485     102002.7      46.7237      46.7237      46.7237 
  144000    87.908241   -8340.1945    -7802.231   -648.36801     102002.7      46.7237      46.7237      46.7237 
  145000    92.517302   -8330.8493   -7764.6801   -715.17927     102002.7      46.7237      46.7237      46.7237 
  146000    92.196807    -8356.734   -7792.5261   -708.47958     102002.7      46.7237      46.7237      46.7237 
  147000    89.734361   -8350.6782   -7801.5395   -651.21269     102002.7      46.7237      46.7237      46.7237 
  148000    89.946209   -8341.6667   -7791.2316   -751.55242     102002.7      46.7237      46.7237      46.7237 
  149000    90.280794   -8353.6755   -7801.1929   -615.53972     102002.7      46.7237      46.7237      46.7237 
  150000    91.816404   -8321.5755   -7759.6955   -678.87452     102002.7      46.7237      46.7237      46.7237 
  151000    90.072235   -8339.2257   -7788.0194     -694.785     102002.7      46.7237      46.7237      46.7237 
  152000    92.148961   -8326.1165   -7762.2014   -670.41782     102002.7      46.7237      46.7237      46.7237 
  153000    92.436299   -8363.9204   -7798.2469   -756.23434     102002.7      46.7237      46.7237      46.7237 
  154000    90.729374   -8356.2112   -7800.9834   -612.01547     102002.7      46.7237      46.7237      46.7237 
  155000    91.237747   -8335.5475   -7777.2087   -1049.5114     102002.7      46.7237      46.7237      46.7237 
  156000    94.415267   -8347.4831   -7769.6992   -906.12172     102002.7      46.7237      46.7237      46.7237 
  157000    88.459401   -8343.7716   -7802.4352   -865.76746     102002.7      46.7237      46.7237      46.7237 
  158000    90.325698   -8331.2096   -7778.4522   -990.42187     102002.7      46.7237      46.7237      46.7237 
  159000    90.106621   -8352.2236   -7800.8068   -750.15975     102002.7      46.7237      46.7237      46.7237 
  160000      93.5296   -8340.6556   -7768.2916   -795.74393     102002.7      46.7237      46.7237      46.7237 
  161000    89.741549   -8343.4989   -7794.3162   -596.37539     102002.7      46.7237      46.7237      46.7237 
  162000    90.336057   -8350.5191   -7797.6983   -984.69418     102002.7      46.7237      46.7237      46.7237 
  163000    90.832469     -8321.84   -7765.9813   -852.59189     102002.7      46.7237      46.7237      46.7237 
  164000    91.482375   -8353.6773   -7793.8415   -715.02842     102002.7      46.7237      46.7237      46.7237 
  165000    88.641865   -8368.3823   -7825.9293   -759.23634     102002.7      46.7237      46.7237      46.7237 
  166000    90.092973   -8323.4146   -7772.0813   -853.23554     102002.7      46.7237      46.7237      46.7237 
  167000    88.407595   -8345.0976   -7804.0782   -689.00142     102002.7      46.7237      46.7237      46.7237 
  168000    87.470816   -8341.5683   -7806.2816   -697.94792     102002.7      46.7237      46.7237      46.7237 
  169000    92.879768   -8358.4447   -7790.0574   -867.82771     102002.7      46.7237      46.7237      46.7237 
  170000    93.348347   -8331.5768    -7760.322   -875.55544     102002.7      46.7237      46.7237      46.7237 
  171000    89.410311   -8343.4813   -7796.3257   -549.27459     102002.7      46.7237      46.7237      46.7237 
  172000    92.689463   -8335.9619   -7768.7391    -553.0898     102002.7      46.7237      46.7237      46.7237 
  173000    90.885115   -8345.0446   -7788.8638   -812.00377     102002.7      46.7237      46.7237      46.7237 
  174000     86.11559   -8338.4387   -7811.4455   -782.69268     102002.7      46.7237      46.7237      46.7237 
  175000    91.057772   -8343.2331   -7785.9957   -951.84695     102002.7      46.7237      46.7237      46.7237 
  176000    91.703381    -8327.748   -7766.5597   -958.21057     102002.7      46.7237      46.7237      46.7237 
  177000    91.247373   -8349.8804   -7791.4827   -600.53898     102002.7      46.7237      46.7237      46.7237 
  178000    87.737777    -8344.344   -7807.4237   -752.85823     102002.7      46.7237      46.7237      46.7237 
  179000    91.359348   -8333.7535   -7774.6706   -802.72398     102002.7      46.7237      46.7237      46.7237 
  180000    92.426549   -8355.0214   -7789.4076    -525.6025     102002.7      46.7237      46.7237      46.7237 
  181000    93.163974   -8341.2279   -7771.1013   -652.08257     102002.7      46.7237      46.7237      46.7237 
  182000     91.37103   -8368.0245   -7808.8701   -648.96044     102002.7      46.7237      46.7237      46.7237 
  183000    94.446653   -8344.8492   -7766.8732   -459.73743     102002.7      46.7237      46.7237      46.7237 
  184000    92.873943   -8343.0189   -7774.6672   -866.45681     102002.7      46.7237      46.7237      46.7237 
  185000    89.255829   -8357.6951   -7811.4848   -770.35289     102002.7      46.7237      46.7237      46.7237 
  186000    94.632647   -8351.1669   -7772.0526   -859.72861     102002.7      46.7237      46.7237      46.7237 
  187000    91.285276   -8341.5756   -7782.9459   -1037.1952     102002.7      46.7237      46.7237      46.7237 
  188000    91.412888   -8359.1539   -7799.7433   -723.86963     102002.7      46.7237      46.7237      46.7237 
  189000    92.457084   -8346.7667    -7780.966   -761.73401     102002.7      46.7237      46.7237      46.7237 
  190000    90.770945   -8342.6844   -7787.2022   -626.32102     102002.7      46.7237      46.7237      46.7237 
  191000    91.832073   -8348.2438    -7786.268   -553.75448     102002.7      46.7237      46.7237      46.7237 
  192000    92.284596   -8342.8716   -7778.1265   -691.51479     102002.7      46.7237      46.7237      46.7237 
  193000       90.794   -8343.3488   -7787.7256   -624.61015     102002.7      46.7237      46.7237      46.7237 
  194000    89.939125   -8350.6061   -7800.2144   -922.88234     102002.7      46.7237      46.7237      46.7237 
  195000    90.680792   -8343.5824   -7788.6519   -648.82356     102002.7      46.7237      46.7237      46.7237 
  196000    90.003174   -8357.7566   -7806.9729   -575.82111     102002.7      46.7237      46.7237      46.7237 
  197000    91.625779   -8348.8151   -7788.1017    -904.3174     102002.7      46.7237      46.7237      46.7237 
  198000    91.728601   -8342.7596   -7781.4169   -469.47749     102002.7      46.7237      46.7237      46.7237 
  199000    90.135188   -8345.7423   -7794.1507   -823.52944     102002.7      46.7237      46.7237      46.7237 
  200000    90.625437   -8338.4169   -7783.8252   -552.27664     102002.7      46.7237      46.7237      46.7237 
  201000    90.763591   -8361.5093   -7806.0722   -620.98492     102002.7      46.7237      46.7237      46.7237 
  202000    92.117867   -8327.9735   -7764.2487   -808.30626     102002.7      46.7237      46.7237      46.7237 
  203000    88.684984   -8338.7631   -7796.0462   -586.51686     102002.7      46.7237      46.7237      46.7237 
  204000    90.465414   -8333.5905   -7779.9781   -856.87464     102002.7      46.7237      46.7237      46.7237 
  205000    89.386604   -8353.0855    -7806.075   -862.66111     102002.7      46.7237      46.7237      46.7237 
  206000    92.026924    -8340.959   -7777.7908   -666.73574     102002.7      46.7237      46.7237      46.7237 
  207000    91.368591   -8344.2247   -7785.0852   -746.68057     102002.7      46.7237      46.7237      46.7237 
  208000    94.256716   -8348.8551   -7772.0415   -616.70849     102002.7      46.7237      46.7237      46.7237 
  209000    91.619914   -8366.2767   -7805.5992   -829.86996     102002.7      46.7237      46.7237      46.7237 
  210000    87.892757   -8338.9318    -7801.063   -734.93525     102002.7      46.7237      46.7237      46.7237 
  211000    92.288549   -8347.3299   -7782.5606   -390.90432     102002.7      46.7237      46.7237      46.7237 
  212000    89.601497   -8356.8049   -7808.4793   -582.02048     102002.7      46.7237      46.7237      46.7237 
  213000    88.451944   -8338.1875   -7796.8967   -653.19205     102002.7      46.7237      46.7237      46.7237 
  214000    90.277952   -8326.3328   -7773.8676   -418.82057     102002.7      46.7237      46.7237      46.7237 
  215000    91.655011   -8357.2258   -7796.3335   -728.34678     102002.7      46.7237      46.7237      46.7237 
  216000    91.867489   -8329.3497   -7767.1571   -528.38078     102002.7      46.7237      46.7237      46.7237 
  217000    91.020009   -8364.7468   -7807.7405   -1029.2429     102002.7      46.7237      46.7237      46.7237 
  218000    90.970583   -8324.5432   -7767.8393   -685.43879     102002.7      46.7237      46.7237      46.7237 
  219000    89.851152   -8345.4057   -7795.5524   -885.08157     102002.7      46.7237      46.7237      46.7237 
  220000    93.048976   -8350.5714   -7781.1486   -952.55708     102002.7      46.7237      46.7237      46.7237 
  221000    91.807904   -8339.3722   -7777.5442   -962.55924     102002.7      46.7237      46.7237      46.7237 
  222000    90.554059   -8346.8076   -7792.6527   -1103.1149     102002.7      46.7237      46.7237      46.7237 
  223000     91.39614   -8368.9976   -7809.6895   -737.49411     102002.7      46.7237      46.7237      46.7237 
  224000    91.073553   -8344.7673   -7787.4333   -609.50555     102002.7      46.7237      46.7237      46.7237 
  225000    93.829259   -8325.0616   -7750.8638   -732.57132     102002.7      46.7237      46.7237      46.7237 
  226000    92.201157   -8340.7653   -7776.5308   -1002.1018     102002.7      46.7237      46.7237      46.7237 
  227000    90.251877   -8340.0384   -7787.7327   -883.31195     102002.7      46.7237      46.7237      46.7237 
  228000    87.892158   -8325.4264   -7787.5613   -618.56619     102002.7      46.7237      46.7237      46.7237 
  229000    91.983078    -8335.803   -7772.9031   -367.96368     102002.7      46.7237      46.7237      46.7237 
  230000    91.458664   -8322.9269   -7763.2361   -504.37534     102002.7      46.7237      46.7237      46.7237 
  231000    90.505433   -8339.4472   -7785.5899   -672.62893     102002.7      46.7237      46.7237      46.7237 
  232000    93.410474   -8337.5233   -7765.8883   -589.74935     102002.7      46.7237      46.7237      46.7237 
  233000    90.567984    -8329.682   -7775.4419   -537.16135     102002.7      46.7237      46.7237      46.7237 
  234000    89.288135   -8347.7928   -7801.3848   -727.00497     102002.7      46.7237      46.7237      46.7237 
  235000    91.742417   -8346.9732    -7785.546    -517.4115     102002.7      46.7237      46.7237      46.7237 
  236000    88.490546   -8357.7396   -7816.2125   -880.88766     102002.7      46.7237      46.7237      46.7237 
  237000    91.949577   -8341.9901   -7779.2952   -503.19855     102002.7      46.7237      46.7237      46.7237 
  238000    92.018167   -8338.2265   -7775.1119   -624.42985     102002.7      46.7237      46.7237      46.7237 
  239000    90.346404   -8358.0984   -7805.2143   -657.56259     102002.7      46.7237      46.7237      46.7237 
  240000     92.30731   -8327.3032   -7762.4191   -517.59206     102002.7      46.7237      46.7237      46.7237 
  241000     90.18519   -8341.0897   -7789.1921   -945.84315     102002.7      46.7237      46.7237      46.7237 
  242000    86.923169   -8346.9468   -7815.0115   -703.62153     102002.7      46.7237      46.7237      46.7237 
  243000    91.243329   -8344.0476   -7785.6747   -709.50697     102002.7      46.7237      46.7237      46.7237 
  244000    92.360364   -8332.7491   -7767.5403   -821.37725     102002.7      46.7237      46.7237      46.7237 
  245000    90.641237   -8345.2958   -7790.6074   -769.40604     102002.7      46.7237      46.7237      46.7237 
  246000    89.361655   -8336.6729    -7789.815   -735.41316     102002.7      46.7237      46.7237      46.7237 
  247000    93.077899   -8310.7771   -7741.1773   -1011.7915     102002.7      46.7237      46.7237      46.7237 
  248000    91.225693   -8340.7753   -7782.5102    -942.3647     102002.7      46.7237      46.7237      46.7237 
  249000    88.739343   -8330.2703   -7787.2208   -958.53871     102002.7      46.7237      46.7237      46.7237 
  250000    91.192073   -8339.6505   -7781.5912   -845.00933     102002.7      46.7237      46.7237      46.7237 
  251000    91.943837   -8353.9638   -7791.3041   -853.22594     102002.7      46.7237      46.7237      46.7237 
  252000    89.380087   -8338.8547    -7791.884   -1057.1037     102002.7      46.7237      46.7237      46.7237 
  253000    93.290557   -8320.3963   -7749.4951   -961.59146     102002.7      46.7237      46.7237      46.7237 
  254000    91.682691   -8330.3357    -7769.274   -855.82767     102002.7      46.7237      46.7237      46.7237 
  255000    89.247881   -8334.5958   -7788.4342   -796.82771     102002.7      46.7237      46.7237      46.7237 
  256000    91.665921   -8330.1517   -7769.1927   -956.07923     102002.7      46.7237      46.7237      46.7237 
  257000      92.0888   -8339.0068   -7775.4599    -617.2183     102002.7      46.7237      46.7237      46.7237 
  258000    87.551497   -8341.8035   -7806.0231   -466.32916     102002.7      46.7237      46.7237      46.7237 
  259000    94.423172   -8331.8574   -7754.0251   -728.06646     102002.7      46.7237      46.7237      46.7237 
  260000    89.551409   -8323.5563   -7775.5372   -552.98797     102002.7      46.7237      46.7237      46.7237 
  261000    90.325059   -8324.1034   -7771.3499   -780.47296     102002.7      46.7237      46.7237      46.7237 
  262000    91.425289   -8335.3053   -7775.8188   -705.05154     102002.7      46.7237      46.7237      46.7237 
  263000    90.660721   -8321.0296    -7766.222   -797.44617     102002.7      46.7237      46.7237      46.7237 
  264000    91.681464   -8349.6798   -7788.6257   -430.34905     102002.7      46.7237      46.7237      46.7237 
  265000    93.769876   -8343.3196   -7769.4852   -871.91889     102002.7      46.7237      46.7237      46.7237 
  266000    92.533802   -8339.3748   -7773.1047   -511.08486     102002.7      46.7237      46.7237      46.7237 
  267000    90.038913   -8338.0919   -7787.0895   -462.65519     102002.7      46.7237      46.7237      46.7237 
  268000    89.970251   -8310.2144   -7759.6322    -656.3295     102002.7      46.7237      46.7237      46.7237 
  269000    91.260234   -8342.6837   -7784.2073   -475.23078     102002.7      46.7237      46.7237      46.7237 
  270000    93.144125   -8337.5977   -7767.5926   -685.70079     102002.7      46.7237      46.7237      46.7237 
  271000    89.238664   -8348.6012    -7802.496   -780.70457     102002.7      46.7237      46.7237      46.7237 
  272000    91.872579   -8343.1942   -7780.9705   -690.97076     102002.7      46.7237      46.7237      46.7237 
  273000    90.951988   -8350.5584   -7793.9683   -763.86546     102002.7      46.7237      46.7237      46.7237 
  274000    90.655812   -8365.3888   -7810.6112   -648.64375     102002.7      46.7237      46.7237      46.7237 
  275000    93.424845   -8341.4244   -7769.7014   -686.75758     102002.7      46.7237      46.7237      46.7237 
  276000    90.961725   -8355.6241   -7798.9744   -1055.6215     102002.7      46.7237      46.7237      46.7237 
  277000    91.460589    -8329.387   -7769.6845   -747.78989     102002.7      46.7237      46.7237      46.7237 
  278000    90.211956   -8330.2769   -7778.2155   -976.05133     102002.7      46.7237      46.7237      46.7237 
  279000    90.723576   -8321.2737   -7766.0814   -859.88968     102002.7      46.7237      46.7237      46.7237 
  280000    91.492463   -8345.1807   -7785.2832   -888.91874     102002.7      46.7237      46.7237      46.7237 
  281000    89.481724     -8347.07   -7799.4774   -679.28372     102002.7      46.7237      46.7237      46.7237 
  282000    91.673293   -8341.2061    -7780.202   -1111.3021     102002.7      46.7237      46.7237      46.7237 
  283000    90.147434   -8336.7081   -7785.0416   -711.63398     102002.7      46.7237      46.7237      46.7237 
  284000    90.548934     -8337.23   -7783.1065   -635.36268     102002.7      46.7237      46.7237      46.7237 
  285000    90.711348   -8327.9167   -7772.7993   -930.08815     102002.7      46.7237      46.7237      46.7237 
  286000    91.001946   -8343.7545   -7786.8587   -632.42552     102002.7      46.7237      46.7237      46.7237 
  287000    88.836674   -8356.2898   -7812.6446   -1137.7104     102002.7      46.7237      46.7237      46.7237 
  288000    88.090404   -8318.8022   -7779.7239   -909.36414     102002.7      46.7237      46.7237      46.7237 
  289000    90.258904   -8341.6585   -7789.3099   -1006.7611     102002.7      46.7237      46.7237      46.7237 
  290000    90.824676   -8341.2989   -7785.4879   -1159.8525     102002.7      46.7237      46.7237      46.7237 
  291000    93.658488   -8340.0582   -7766.9054   -660.82261     102002.7      46.7237      46.7237      46.7237 
  292000    92.095068   -8322.9938   -7759.4086   -1067.0976     102002.7      46.7237      46.7237      46.7237 
  293000    90.358603   -8336.2725   -7783.3137    -1084.219     102002.7      46.7237      46.7237      46.7237 
  294000    92.645474   -8343.4086   -7776.4551   -791.29444     102002.7      46.7237      46.7237      46.7237 
  295000    94.023631   -8327.4851   -7752.0978   -1028.5094     102002.7      46.7237      46.7237      46.7237 
  296000       89.268   -8349.6389   -7803.3542   -708.90343     102002.7      46.7237      46.7237      46.7237 
  297000     94.19485   -8357.1798   -7780.7447   -681.21424     102002.7      46.7237      46.7237      46.7237 
  298000    93.300891   -8333.2343   -7762.2699   -826.07645     102002.7      46.7237      46.7237      46.7237 
  299000    93.849673   -8356.2894   -7781.9667   -820.01542     102002.7      46.7237      46.7237      46.7237 
  300000    90.973887     -8340.08   -7783.3559   -852.64695     102002.7      46.7237      46.7237      46.7237 
  301000     89.01104   -8331.9256   -7787.2134    -784.8671     102002.7      46.7237      46.7237      46.7237 
  302000    92.376785   -8337.9804   -7772.6711   -875.34664     102002.7      46.7237      46.7237      46.7237 
  303000    89.519519   -8358.9856   -7811.1617   -684.55925     102002.7      46.7237      46.7237      46.7237 
  304000    92.238642   -8338.2911   -7773.8272   -668.64084     102002.7      46.7237      46.7237      46.7237 
  305000     91.88798   -8321.4537   -7759.1357   -717.80949     102002.7      46.7237      46.7237      46.7237 
  306000     91.70687   -8337.3797     -7776.17   -834.22343     102002.7      46.7237      46.7237      46.7237 
  307000    91.120092   -8354.0493   -7796.4305   -1050.0345     102002.7      46.7237      46.7237      46.7237 
  308000    90.790549   -8328.7314   -7773.1293   -1020.3059     102002.7      46.7237      46.7237      46.7237 
  309000    91.995709   -8326.6538   -7763.6766   -888.50525     102002.7      46.7237      46.7237      46.7237 
  310000    89.795909   -8350.7608   -7801.2454   -780.79331     102002.7      46.7237      46.7237      46.7237 
  311000    89.043558   -8366.0015   -7821.0903   -921.29751     102002.7      46.7237      46.7237      46.7237 
  312000    92.045432   -8334.7899   -7771.5084   -783.36729     102002.7      46.7237      46.7237      46.7237 
  313000    90.508353   -8344.1637   -7790.2885   -942.76617     102002.7      46.7237      46.7237      46.7237 
  314000      89.4115   -8339.0244   -7791.8615    -953.8714     102002.7      46.7237      46.7237      46.7237 
  315000    92.618148   -8354.9447   -7788.1584   -711.66997     102002.7      46.7237      46.7237      46.7237 
  316000    92.188408   -8336.4486   -7772.2921   -990.19587     102002.7      46.7237      46.7237      46.7237 
  317000    91.745051   -8333.7065   -7772.2633   -754.50614     102002.7      46.7237      46.7237      46.7237 
  318000    93.196416   -8344.2666   -7773.9415   -791.91781     102002.7      46.7237      46.7237      46.7237 
  319000    92.141703     -8333.91   -7770.0393    -847.8985     102002.7      46.7237      46.7237      46.7237 
  320000     95.58991   -8350.8848   -7765.9125   -507.57691     102002.7      46.7237      46.7237      46.7237 
  321000    93.054447   -8343.3853   -7773.9291   -930.52074     102002.7      46.7237      46.7237      46.7237 
  322000    87.680222   -8308.6511    -7772.083   -762.96542     102002.7      46.7237      46.7237      46.7237 
  323000    90.704332   -8334.4247   -7779.3502   -996.67429     102002.7      46.7237      46.7237      46.7237 
  324000    94.030936   -8348.4145   -7772.9825   -519.43914     102002.7      46.7237      46.7237      46.7237 
  325000    94.676043    -8333.198   -7753.8182   -492.52178     102002.7      46.7237      46.7237      46.7237 
  326000     93.01257   -8357.4436   -7788.2436   -583.12272     102002.7      46.7237      46.7237      46.7237 
  327000    89.745491   -8345.4494   -7796.2426   -607.86239     102002.7      46.7237      46.7237      46.7237 
  328000    93.976594   -8342.3263   -7767.2268   -617.58666     102002.7      46.7237      46.7237      46.7237 
  329000    89.617489   -8332.6588   -7784.2353   -781.36564     102002.7      46.7237      46.7237      46.7237 
  330000    90.910175   -8315.2104   -7758.8763   -802.53111     102002.7      46.7237      46.7237      46.7237 
  331000    91.275501   -8332.3256   -7773.7558   -772.37341     102002.7      46.7237      46.7237      46.7237 
  332000    87.298899   -8350.5278   -7816.2931   -746.82998     102002.7      46.7237      46.7237      46.7237 
  333000    89.979392   -8325.7993   -7775.1612   -577.55797     102002.7      46.7237      46.7237      46.7237 
  334000    90.222898   -8352.6608   -7800.5325   -512.02743     102002.7      46.7237      46.7237      46.7237 
  335000    91.407101   -8348.2854   -7788.9102   -534.06869     102002.7      46.7237      46.7237      46.7237 
  336000    88.964238   -8343.1525   -7798.7267   -804.09341     102002.7      46.7237      46.7237      46.7237 
  337000    91.988725   -8350.2077   -7787.2733   -800.21137     102002.7      46.7237      46.7237      46.7237 
  338000    92.523558   -8327.8132   -7761.6058   -642.77255     102002.7      46.7237      46.7237      46.7237 
  339000    90.599357   -8346.5201    -7792.088   -861.34287     102002.7      46.7237      46.7237      46.7237 
  340000    92.061154   -8333.3822   -7770.0045   -616.56247     102002.7      46.7237      46.7237      46.7237 
  341000    90.183533   -8324.3264   -7772.4389   -714.93646     102002.7      46.7237      46.7237      46.7237 
  342000    92.296766   -8335.8179   -7770.9984    -1029.063     102002.7      46.7237      46.7237      46.7237 
  343000    91.000017   -8349.0705   -7792.1865   -908.71285     102002.7      46.7237      46.7237      46.7237 
  344000    90.159856   -8346.3774   -7794.6349   -1061.2732     102002.7      46.7237      46.7237      46.7237 
  345000    91.212787   -8334.3967   -7776.2106   -553.72599     102002.7      46.7237      46.7237      46.7237 
  346000    90.113909   -8348.3409   -7796.8795   -954.27372     102002.7      46.7237      46.7237      46.7237 
  347000    91.654335   -8346.0961    -7785.208   -914.92271     102002.7      46.7237      46.7237      46.7237 
  348000    90.767506   -8341.4351    -7785.974   -747.68243     102002.7      46.7237      46.7237      46.7237 
  349000     92.33999   -8353.2019   -7788.1178   -1209.5785     102002.7      46.7237      46.7237      46.7237 
  350000     93.02034   -8350.0045   -7780.7569   -750.22716     102002.7      46.7237      46.7237      46.7237 
  351000    89.014528   -8353.3458   -7808.6122    -781.8979     102002.7      46.7237      46.7237      46.7237 
  352000     92.72371   -8333.2604   -7765.8281   -935.97584     102002.7      46.7237      46.7237      46.7237 
  353000    93.170346   -8353.6492   -7783.4837   -824.56797     102002.7      46.7237      46.7237      46.7237 
  354000    92.892555   -8353.4552   -7784.9896   -1075.7849     102002.7      46.7237      46.7237      46.7237 
  355000    90.107209   -8341.0464   -7789.6261   -816.68135     102002.7      46.7237      46.7237      46.7237 
  356000    89.268111   -8366.3374    -7820.052     -681.256     102002.7      46.7237      46.7237      46.7237 
  357000    91.845418   -8352.0753   -7790.0178   -735.43004     102002.7      46.7237      46.7237      46.7237 
  358000    92.537478   -8339.8392   -7773.5466   -620.20673     102002.7      46.7237      46.7237      46.7237 
  359000    90.806796   -8346.2456    -7790.544   -757.87513     102002.7      46.7237      46.7237      46.7237 
  360000    91.143527   -8315.1736   -7757.4114   -751.38892     102002.7      46.7237      46.7237      46.7237 
  361000    88.041803   -8334.9763   -7796.1954   -1099.1862     102002.7      46.7237      46.7237      46.7237 
  362000    89.581793   -8349.1887   -7800.9837   -826.87794     102002.7      46.7237      46.7237      46.7237 
  363000    89.996549   -8335.6663   -7784.9231   -624.18925     102002.7      46.7237      46.7237      46.7237 
  364000    91.851451   -8358.1125   -7796.0181    -776.5029     102002.7      46.7237      46.7237      46.7237 
  365000    90.861921   -8357.2385   -7801.1996   -739.60344     102002.7      46.7237      46.7237      46.7237 
  366000    94.469798   -8358.0327   -7779.9151   -622.16508     102002.7      46.7237      46.7237      46.7237 
  367000    90.957661   -8331.6973   -7775.0725   -584.85218     102002.7      46.7237      46.7237      46.7237 
  368000    90.162678   -8360.7365   -7808.9767   -526.98898     102002.7      46.7237      46.7237      46.7237 
  369000     90.74268   -8346.2926   -7790.9834   -641.84815     102002.7      46.7237      46.7237      46.7237 
  370000    89.724928   -8343.6334   -7794.5525    -838.5256     102002.7      46.7237      46.7237      46.7237 
  371000    87.497586   -8337.9911   -7802.5406   -829.93564     102002.7      46.7237      46.7237      46.7237 
  372000    92.885463   -8354.6167   -7786.1946   -976.40561     102002.7      46.7237      46.7237      46.7237 
  373000    90.433172   -8341.4893   -7788.0742    -597.8356     102002.7      46.7237      46.7237      46.7237 
  374000    89.744106   -8348.5677   -7799.3694   -717.87082     102002.7      46.7237      46.7237      46.7237 
  375000    90.268427   -8338.5916   -7786.1847   -677.40752     102002.7      46.7237      46.7237      46.7237 
  376000    92.875357   -8331.4802   -7763.1199   -698.26908     102002.7      46.7237      46.7237      46.7237 
  377000    93.629415   -8349.7514   -7776.7765   -856.58511     102002.7      46.7237      46.7237      46.7237 
  378000    93.269501   -8343.6678   -7772.8955   -951.26291     102002.7      46.7237      46.7237      46.7237 
  379000    90.598836   -8359.4607   -7805.0317    -864.4478     102002.7      46.7237      46.7237      46.7237 
  380000    89.506527   -8345.4167   -7797.6723   -950.68205     102002.7      46.7237      46.7237      46.7237 
  381000    89.550256    -8353.867    -7805.855   -471.74695     102002.7      46.7237      46.7237      46.7237 
  382000    92.035879   -8337.7863   -7774.5633   -817.83908     102002.7      46.7237      46.7237      46.7237 
  383000    91.983125   -8366.7123   -7803.8121   -680.65725     102002.7      46.7237      46.7237      46.7237 
  384000    93.755595   -8344.8455   -7771.0985   -614.13315     102002.7      46.7237      46.7237      46.7237 
  385000    92.845657   -8350.8968   -7782.7183   -856.25903     102002.7      46.7237      46.7237      46.7237 
  386000    94.409253   -8343.6251    -7765.878   -685.12683     102002.7      46.7237      46.7237      46.7237 
  387000    91.576313   -8341.8715   -7781.4608   -745.82523     102002.7      46.7237      46.7237      46.7237 
  388000    88.235754    -8343.476   -7803.5082   -731.96684     102002.7      46.7237      46.7237      46.7237 
  389000    86.412822    -8337.873   -7809.0608    -620.1184     102002.7      46.7237      46.7237      46.7237 
  390000    91.410982   -8347.7939    -7788.395   -902.51568     102002.7      46.7237      46.7237      46.7237 
  391000    93.021301    -8337.999   -7768.7456   -674.06783     102002.7      46.7237      46.7237      46.7237 
  392000    88.896228   -8340.3747   -7796.3651   -684.57392     102002.7      46.7237      46.7237      46.7237 
  393000    91.618483   -8347.7191   -7787.0504   -1059.4768     102002.7      46.7237      46.7237      46.7237 
  394000    90.302682   -8357.8851   -7805.2686   -549.95682     102002.7      46.7237      46.7237      46.7237 
  395000    91.906791   -8337.1868   -7774.7537    -844.8514     102002.7      46.7237      46.7237      46.7237 
  396000    91.642679   -8362.5798    -7801.763    -1000.428     102002.7      46.7237      46.7237      46.7237 
  397000    91.890979   -8349.3288   -7786.9925   -613.46476     102002.7      46.7237      46.7237      46.7237 
  398000     91.10778   -8328.9828   -7771.4394   -1044.4677     102002.7      46.7237      46.7237      46.7237 
  399000    89.770781   -8351.5624   -7802.2008   -570.36191     102002.7      46.7237      46.7237      46.7237 
  400000    88.275395   -8338.2029   -7797.9925   -722.72874     102002.7      46.7237      46.7237      46.7237 
  401000     92.87543   -8347.1298    -7778.769   -955.82633     102002.7      46.7237      46.7237      46.7237 
  402000    92.423559   -8346.3704   -7780.7749   -684.51518     102002.7      46.7237      46.7237      46.7237 
  403000    90.450165   -8347.0431    -7793.524   -972.01041     102002.7      46.7237      46.7237      46.7237 
  404000    90.165703   -8349.4063   -7797.6279     -794.777     102002.7      46.7237      46.7237      46.7237 
  405000    91.023888   -8329.1078   -7772.0777   -828.78089     102002.7      46.7237      46.7237      46.7237 
  406000    89.372006   -8352.3731   -7805.4519   -958.19736     102002.7      46.7237      46.7237      46.7237 
  407000    90.888997   -8351.5065   -7795.3019   -523.16922     102002.7      46.7237      46.7237      46.7237 
  408000    92.588965   -8332.2925   -7765.6848   -1065.4099     102002.7      46.7237      46.7237      46.7237 
  409000    93.256748   -8348.4984   -7777.8041    -928.4315     102002.7      46.7237      46.7237      46.7237 
  410000    89.111958    -8336.873   -7791.5432   -658.62425     102002.7      46.7237      46.7237      46.7237 
  411000    93.192387   -8358.5936   -7788.2932   -706.44855     102002.7      46.7237      46.7237      46.7237 
  412000    93.504086   -8342.8326   -7770.6248   -783.46241     102002.7      46.7237      46.7237      46.7237 
  413000    90.258042   -8363.3659   -7811.0225   -628.17761     102002.7      46.7237      46.7237      46.7237 
  414000    92.203997    -8352.942   -7788.6902   -958.73566     102002.7      46.7237      46.7237      46.7237 
  415000    90.890097   -8357.0035   -7800.7922      -745.87     102002.7      46.7237      46.7237      46.7237 
  416000    88.805064   -8343.7485   -7800.2967   -409.48443     102002.7      46.7237      46.7237      46.7237 
  417000    92.756033   -8331.7529   -7764.1228   -919.72489     102002.7      46.7237      46.7237      46.7237 
  418000    90.125294   -8332.9713   -7781.4402   -558.64704     102002.7      46.7237      46.7237      46.7237 
  419000    94.272533   -8336.3169   -7759.4064   -729.54463     102002.7      46.7237      46.7237      46.7237 
  420000    89.572564   -8342.7963   -7794.6478      -776.22     102002.7      46.7237      46.7237      46.7237 
  421000    91.534454   -8371.0556   -7810.9011   -514.27353     102002.7      46.7237      46.7237      46.7237 
  422000     91.17092   -8343.2991   -7785.3692   -562.80049     102002.7      46.7237      46.7237      46.7237 
  423000    95.035417   -8349.1127   -7767.5337   -649.04205     102002.7      46.7237      46.7237      46.7237 
  424000    88.417419   -8338.6839   -7797.6044   -792.49091     102002.7      46.7237      46.7237      46.7237 
  425000    89.794913   -8347.1558   -7797.6466   -970.63367     102002.7      46.7237      46.7237      46.7237 
  426000    91.484197     -8350.76    -7790.913   -696.44469     102002.7      46.7237      46.7237      46.7237 
  427000      89.7012    -8358.435   -7809.4993   -848.52745     102002.7      46.7237      46.7237      46.7237 
  428000    91.748183   -8343.5063   -7782.0438   -563.56955     102002.7      46.7237      46.7237      46.7237 
  429000    88.308335   -8331.1622   -7790.7503   -566.47266     102002.7      46.7237      46.7237      46.7237 
  430000    89.631244   -8346.4341   -7797.9265   -911.30714     102002.7      46.7237      46.7237      46.7237 
  431000    92.496361   -8342.0516   -7776.0106   -741.45036     102002.7      46.7237      46.7237      46.7237 
  432000    89.810783   -8346.1212   -7796.5149   -587.11647     102002.7      46.7237      46.7237      46.7237 
  433000    94.746673   -8354.0344   -7774.2224   -832.94841     102002.7      46.7237      46.7237      46.7237 
  434000    89.878495    -8353.438   -7803.4173   -631.33491     102002.7      46.7237      46.7237      46.7237 
  435000    89.112299   -8343.9825   -7798.6506    -802.6863     102002.7      46.7237      46.7237      46.7237 
  436000    91.734477   -8338.5213   -7777.1427   -500.59278     102002.7      46.7237      46.7237      46.7237 
  437000    89.861919   -8330.7165   -7780.7972   -643.77523     102002.7      46.7237      46.7237      46.7237 
  438000    89.278781   -8348.7122   -7802.3615   -790.42317     102002.7      46.7237      46.7237      46.7237 
  439000     92.06752   -8352.0496   -7788.6329    -708.8667     102002.7      46.7237      46.7237      46.7237 
  440000    90.856918   -8335.9094   -7779.9011    -746.7934     102002.7      46.7237      46.7237      46.7237 
  441000    90.881928   -8339.4971   -7783.3357   -624.02622     102002.7      46.7237      46.7237      46.7237 
  442000    90.677923    -8343.563   -7788.6501   -762.83451     102002.7      46.7237      46.7237      46.7237 
  443000    91.832551   -8350.0958   -7788.1171    -790.8364     102002.7      46.7237      46.7237      46.7237 
  444000    91.405181   -8346.8251   -7787.4617   -400.01496     102002.7      46.7237      46.7237      46.7237 
  445000    91.055423   -8346.8085   -7789.5855   -632.60736     102002.7      46.7237      46.7237      46.7237 
  446000    91.430512   -8345.8679   -7786.3495   -769.76657     102002.7      46.7237      46.7237      46.7237 
  447000    89.555812   -8349.0783   -7801.0323   -791.74041     102002.7      46.7237      46.7237      46.7237 
  448000    89.622877   -8342.9756   -7794.5192   -717.66891     102002.7      46.7237      46.7237      46.7237 
  449000    90.509281   -8329.9292   -7776.0483   -664.02308     102002.7      46.7237      46.7237      46.7237 
  450000    90.213687   -8339.9627   -7787.8908   -594.32176     102002.7      46.7237      46.7237      46.7237 
  451000    89.142506   -8357.4769   -7811.9601   -450.56345     102002.7      46.7237      46.7237      46.7237 
  452000    90.127242   -8357.4573   -7805.9144   -756.35383     102002.7      46.7237      46.7237      46.7237 
  453000    92.604323   -8346.0384   -7779.3367   -847.39349     102002.7      46.7237      46.7237      46.7237 
  454000    92.868497   -8349.8822   -7781.5639   -703.48417     102002.7      46.7237      46.7237      46.7237 
  455000    89.454457   -8339.4185   -7791.9927   -502.98329     102002.7      46.7237      46.7237      46.7237 
  456000    92.981184    -8339.418   -7770.4101    -649.5874     102002.7      46.7237      46.7237      46.7237 
  457000    92.317018   -8345.7308   -7780.7873   -705.42262     102002.7      46.7237      46.7237      46.7237 
  458000    89.897426   -8357.0811   -7806.9445   -918.23328     102002.7      46.7237      46.7237      46.7237 
  459000     88.98933   -8341.3827   -7796.8033   -885.72552     102002.7      46.7237      46.7237      46.7237 
  460000    90.952987   -8334.3013   -7777.7051   -630.05725     102002.7      46.7237      46.7237      46.7237 
  461000    92.161062   -8369.5458   -7805.5566   -716.02991     102002.7      46.7237      46.7237      46.7237 
  462000    91.736104   -8325.8757   -7764.4871   -622.53197     102002.7      46.7237      46.7237      46.7237 
  463000    89.871091   -8351.2868   -7801.3114   -552.18639     102002.7      46.7237      46.7237      46.7237 
  464000    87.313488     -8334.27   -7799.9461   -748.49131     102002.7      46.7237      46.7237      46.7237 
  465000    93.271304    -8333.232   -7762.4486    -728.1931     102002.7      46.7237      46.7237      46.7237 
  466000    92.798305   -8350.9329   -7783.0441   -732.87834     102002.7      46.7237      46.7237      46.7237 
  467000    92.176824   -8332.1837   -7768.0982   -760.19261     102002.7      46.7237      46.7237      46.7237 
  468000    89.603064   -8334.0006   -7785.6654   -759.91287     102002.7      46.7237      46.7237      46.7237 
  469000    90.959411   -8337.5256   -7780.8901     -840.793     102002.7      46.7237      46.7237      46.7237 
  470000    89.987524   -8336.2541   -7785.5662    -654.5007     102002.7      46.7237      46.7237      46.7237 
  471000    87.874211    -8341.153   -7803.3977   -808.04245     102002.7      46.7237      46.7237      46.7237 
  472000    91.397076   -8337.5466   -7778.2328   -874.15601     102002.7      46.7237      46.7237      46.7237 
  473000    91.677131   -8354.6703   -7793.6427   -684.32302     102002.7      46.7237      46.7237      46.7237 
  474000    90.867647   -8356.5066   -7800.4327   -763.07487     102002.7      46.7237      46.7237      46.7237 
  475000    91.272904   -8341.7388   -7783.1849   -537.49735     102002.7      46.7237      46.7237      46.7237 
  476000    92.343509    -8345.003   -7779.8973    -622.7971     102002.7      46.7237      46.7237      46.7237 
  477000    94.213694   -8327.1215   -7750.5711   -562.42218     102002.7      46.7237      46.7237      46.7237 
  478000    92.389535   -8329.4825   -7764.0952   -751.53228     102002.7      46.7237      46.7237      46.7237 
  479000    93.168964   -8360.4274   -7790.2703   -777.51616     102002.7      46.7237      46.7237      46.7237 
  480000    91.176867   -8336.1053   -7778.1391    -837.7012     102002.7      46.7237      46.7237      46.7237 
  481000    91.628976   -8344.4318   -7783.6988   -843.69376     102002.7      46.7237      46.7237      46.7237 
  482000    89.382705   -8351.1125   -7804.1258   -613.70212     102002.7      46.7237      46.7237      46.7237 
  483000    93.399152   -8332.9064   -7761.3406    -569.3321     102002.7      46.7237      46.7237      46.7237 
  484000    95.917008   -8337.2394   -7750.2654   -1111.7743     102002.7      46.7237      46.7237      46.7237 
  485000     86.24296   -8312.3813   -7784.6086   -777.86351     102002.7      46.7237      46.7237      46.7237 
  486000    89.745124   -8338.1956   -7788.9911    -889.0357     102002.7      46.7237      46.7237      46.7237 
  487000    90.304775   -8360.8742   -7808.2448   -587.51924     102002.7      46.7237      46.7237      46.7237 
  488000    88.895304   -8333.1984   -7789.1944   -791.31702     102002.7      46.7237      46.7237      46.7237 
  489000    91.600888   -8361.4795   -7800.9184   -887.63859     102002.7      46.7237      46.7237      46.7237 
  490000    92.290538   -8330.0897   -7765.3082   -598.31637     102002.7      46.7237      46.7237      46.7237 
  491000    89.770486   -8324.0012   -7774.6414   -764.74589     102002.7      46.7237      46.7237      46.7237 
  492000    93.398594   -8352.6143    -7781.052   -697.39786     102002.7      46.7237      46.7237      46.7237 
  493000      88.4594   -8342.5388   -7801.2023    -833.5122     102002.7      46.7237      46.7237      46.7237 
  494000    89.380689   -8320.1039   -7773.1296   -691.67976     102002.7      46.7237      46.7237      46.7237 
  495000    94.110753   -8324.8043   -7748.8839   -909.15453     102002.7      46.7237      46.7237      46.7237 
  496000    91.423247   -8344.1707   -7784.6967    -733.7239     102002.7      46.7237      46.7237      46.7237 
  497000    88.285343   -8365.5677   -7825.2964   -628.12688     102002.7      46.7237      46.7237      46.7237 
  498000    88.502801   -8318.4588   -7776.8568   -744.23084     102002.7      46.7237      46.7237      46.7237 
  499000     90.49316   -8338.6271   -7784.8449   -836.01362     102002.7      46.7237      46.7237      46.7237 
  500000    88.556358   -8330.2939   -7788.3642   -608.57749     102002.7      46.7237      46.7237      46.7237 
  500502    91.393623   -8358.8244   -7799.5318   -487.86587     102002.7      46.7237      46.7237      46.7237 
Loop time of 1343.69 on 16 procs for 500000 steps with 2054 atoms

Performance: 32.150 ns/day, 0.746 hours/ns, 372.109 timesteps/s
99.8% CPU use with 16 MPI tasks x no OpenMP threads

MPI task timing breakdown:
Section |  min time  |  avg time  |  max time  |%varavg| %total
---------------------------------------------------------------
Pair    | 578.13     | 775.5      | 928.72     | 399.5 | 57.71
Bond    | 154.5      | 174.45     | 200.51     | 103.4 | 12.98
Neigh   | 6.1603     | 6.1756     | 6.2007     |   0.5 |  0.46
Comm    | 233.82     | 373.44     | 561.63     | 534.5 | 27.79
Output  | 0.020866   | 0.021238   | 0.02463    |   0.6 |  0.00
Modify  | 7.7703     | 8.5044     | 9.3258     |  15.7 |  0.63
Other   |            | 5.602      |            |       |  0.42

Nlocal:    128.375 ave 158 max 102 min
Histogram: 3 1 0 3 2 1 1 2 2 1
Nghost:    2562.81 ave 2600 max 2525 min
Histogram: 1 2 3 0 2 1 1 4 0 2
Neighs:    11462.8 ave 16013 max 8694 min
Histogram: 2 0 3 7 0 1 1 1 0 1

Total # of neighbors = 183405
Ave neighs/atom = 89.2916
Ave special neighs/atom = 5.60857
Neighbor list builds = 3839
Dangerous builds = 0
Neighbor list info ...
  update every 1 steps, delay 10 steps, check yes
  max neighbors/atom: 2000, page size: 100000
  master list distance cutoff = 16
  ghost atom cutoff = 16
  binsize = 8, bins = 6 6 6
  3 neighbor lists, perpetual/occasional/extra = 3 0 0
  (1) pair buck6d/coul/gauss/dsf, perpetual, skip from (3)
      attributes: half, newton on
      pair build: skip
      stencil: none
      bin: none
  (2) pair lj/cut, perpetual, skip from (3)
      attributes: half, newton on
      pair build: skip
      stencil: none
      bin: none
  (3) neighbor class addition, perpetual
      attributes: half, newton on
      pair build: half/bin/newton
      stencil: half/bin/3d/newton
      bin: standard
Setting up Verlet run ...
  Unit style    : real
  Current step  : 500502
  Time step     : 1
WARNING: Inconsistent image flags (../domain.cpp:786)
Per MPI rank memory allocation (min/avg/max) = 22.87 | 23.22 | 23.36 Mbytes
Step Time TotEng KinEng PotEng E_mol E_pair Temp Pxx Pyy Pzz Pxy Pxz Pyz Cella Cellb Cellc CellAlpha CellBeta CellGamma Volume Press 
  500502       500000   -7799.5318    559.29269   -8358.8244    4178.2032   -12537.028    91.393623   -363.27965   -780.63847   -319.67948   -181.76453    197.99278    98.846452      46.7237      46.7237      46.7237           90           90           90     102002.7   -487.86587 
  501000       500498   -7767.8874    567.81119   -8335.6986    4195.9632   -12531.662    92.785624   -628.10559   -828.92319   -723.47267   0.27735138    99.690717   -72.603222      46.7237      46.7237      46.7237           90           90           90     102002.7   -726.83382 
  502000       501498   -7803.2422    554.37157   -8357.6137     4191.168   -12548.782    90.589466   -838.17896   -417.05368   -684.84697    7.3785609   -32.934864   -66.445791      46.7237      46.7237      46.7237           90           90           90     102002.7    -646.6932 
  503000       502498   -7800.6476    551.15736    -8351.805    4185.4735   -12537.279    90.064235   -977.00601    -707.7863   -1082.6553   -208.68438    -268.9794   -106.60168      46.7237      46.7237      46.7237           90           90           90     102002.7   -922.48254 
  504000       503498   -7760.6479    564.97365   -8325.6216    4221.6879    -12547.31    92.321944   -1285.2295   -744.89488   -882.01196    187.68763   -421.92826   -160.92643      46.7237      46.7237      46.7237           90           90           90     102002.7   -970.71213 
  505000       504498   -7787.6998    556.14038   -8343.8402     4195.737   -12539.577    90.878506   -543.99421   -801.17376   -287.67355    57.852557    221.24603    34.466297      46.7237      46.7237      46.7237           90           90           90     102002.7   -544.28051 
  506000       505498   -7781.7627    548.77104   -8330.5338    4204.8407   -12535.374    89.674287    -406.8072   -873.84296    -796.1521    15.677466    176.75416   -45.017557      46.7237      46.7237      46.7237           90           90           90     102002.7   -692.26742 
  507000       506498   -7797.8175    556.74261   -8354.5601    4188.3496    -12542.91    90.976916   -799.66909   -538.89484   -529.53888    96.426998   -79.068021    100.08032      46.7237      46.7237      46.7237           90           90           90     102002.7   -622.70094 
  508000       507498   -7769.9956    570.88154   -8340.8771    4230.8674   -12571.745    93.287348   -662.11333     -1205.04   -630.69487    174.55766    56.596042   -96.359484      46.7237      46.7237      46.7237           90           90           90     102002.7   -832.61608 
  509000       508498   -7795.7923    556.47375    -8352.266    4196.7283   -12548.994    90.932982   -1223.8322   -608.76441    -1019.437   -80.674515   -37.176916   -5.2804712      46.7237      46.7237      46.7237           90           90           90     102002.7   -950.67788 
  510000       509498   -7791.0355     549.3724   -8340.4079    4205.7274   -12546.135    89.772555   -396.60571   -360.36993   -1032.2857   -73.464091   -45.489495   -6.2110224      46.7237      46.7237      46.7237           90           90           90     102002.7   -596.42046 
  511000       510498   -7753.0546    577.83036   -8330.8849    4202.6811   -12533.566     94.42285   -831.94203   -1079.9258   -597.26093    126.12048   -3.7209767    235.63576      46.7237      46.7237      46.7237           90           90           90     102002.7   -836.37624 
  512000       511498   -7778.2084    556.15381   -8334.3623    4214.7217   -12549.084    90.880701   -961.22212   -596.37117   -817.85912    231.85405    16.950862   -45.050534      46.7237      46.7237      46.7237           90           90           90     102002.7   -791.81747 
  513000       512498   -7810.6613    546.75684   -8357.4182     4178.296   -12535.714    89.345148   -1231.8643   -647.73689   -605.94533    359.63739   -14.455178   -91.109283      46.7237      46.7237      46.7237           90           90           90     102002.7   -828.51552 
  514000       513498   -7771.2306     563.7314    -8334.962    4196.4041   -12531.366    92.118949   -633.44066   -968.79967   -1014.5858    18.577633    79.943199    47.615729      46.7237      46.7237      46.7237           90           90           90     102002.7   -872.27539 
  515000       514498   -7781.0409     555.5932   -8336.6341    4221.5582   -12558.192    90.789092   -975.24734   -748.27683   -741.78947   -46.056512    159.25935    -28.79815      46.7237      46.7237      46.7237           90           90           90     102002.7   -821.77121 
  516000       515498   -7794.0726    539.81913   -8333.8917     4201.948    -12535.84    88.211462   -614.65192   -1177.9534   -1040.3374    333.44666    -57.75078   -165.12026      46.7237      46.7237      46.7237           90           90           90     102002.7   -944.31421 
  517000       516498   -7803.1724    557.73657    -8360.909    4181.4599   -12542.369    91.139337   -580.06258   -485.09079   -769.97145    150.94323    43.250168    113.23254      46.7237      46.7237      46.7237           90           90           90     102002.7   -611.70828 
  518000       517498   -7780.9161    564.45163   -8345.3677    4184.8626    -12530.23    92.236641   -715.82141   -956.58201   -643.81846   -219.53768    69.405635    342.12221      46.7237      46.7237      46.7237           90           90           90     102002.7   -772.07396 
  519000       518498   -7775.9243    558.31599   -8334.2403    4193.5173   -12527.758     91.23402   -927.98528   -620.37121   -853.02765   -137.28909    68.202328   -294.84244      46.7237      46.7237      46.7237           90           90           90     102002.7   -800.46138 
  520000       519498   -7791.4383    553.14061   -8344.5789    4189.5684   -12534.147    90.388315   -672.37325   -721.60504   -657.84153   -79.707569    68.271105    117.11587      46.7237      46.7237      46.7237           90           90           90     102002.7   -683.93994 
  521000       520498    -7775.872    556.20781   -8332.0798    4208.2348   -12540.315    90.889525   -1225.5155   -972.86915   -666.20645    4.9231015    108.03896    105.21607      46.7237      46.7237      46.7237           90           90           90     102002.7   -954.86369 
  522000       521498   -7792.6924    552.95674   -8345.6491    4176.3219   -12521.971     90.35827    -544.3984   -623.60947   -1025.0826   -131.96661   -244.20944    59.485549      46.7237      46.7237      46.7237           90           90           90     102002.7   -731.03015 
  523000       522498   -7776.4688    570.22952   -8346.6983    4194.7877   -12541.486    93.180802   -867.29219   -732.19845   -857.36949   -154.16498   -9.7974732   -232.84567      46.7237      46.7237      46.7237           90           90           90     102002.7   -818.95338 
  524000       523498   -7797.0255    541.98037   -8339.0059    4214.5441    -12553.55    88.564629   -1146.1332     -1123.98   -720.32679   0.58736661    106.06413   -46.672059      46.7237      46.7237      46.7237           90           90           90     102002.7   -996.81335 
  525000       524498   -7747.8728    571.31949   -8319.1923     4220.798    -12539.99    93.358914    -699.8166    -901.1504    -520.1723    8.3688154   -24.755426    26.831449      46.7237      46.7237      46.7237           90           90           90     102002.7   -707.04643 
  526000       525498   -7781.1235    575.23402   -8356.3575    4185.8129    -12542.17    93.998583   -320.68833   -911.27961   -677.90092    36.196073    206.77455   -79.509839      46.7237      46.7237      46.7237           90           90           90     102002.7   -636.62296 
  527000       526498    -7772.958    570.04844   -8343.0065    4205.9292   -12548.936    93.151213   -786.74361   -852.53207   -708.90963   -115.39196   -58.082049    222.39005      46.7237      46.7237      46.7237           90           90           90     102002.7   -782.72843 
  528000       527498   -7796.2006    551.11449    -8347.315    4193.4078   -12540.723    90.057228    -748.7364   -713.04311   -832.71073    69.897567    26.476969    54.180994      46.7237      46.7237      46.7237           90           90           90     102002.7   -764.83008 
  529000       528498   -7785.8766     552.4816   -8338.3582     4186.796   -12525.154    90.280627   -798.82824    -220.9841    -1006.598    -210.9411   -94.280041   -36.760224      46.7237      46.7237      46.7237           90           90           90     102002.7   -675.47012 
  530000       529498   -7785.9187    558.63688   -8344.5555     4208.059   -12552.615    91.286456   -820.47747   -605.05502   -704.64471   -31.957689   -137.56143   -60.168311      46.7237      46.7237      46.7237           90           90           90     102002.7   -710.05907 
  531000       530498   -7789.7679    548.28741   -8338.0553    4215.8014   -12553.857    89.595258   -768.50832   -827.74655   -562.58318    25.596274   -147.79558    226.26348      46.7237      46.7237      46.7237           90           90           90     102002.7   -719.61268 
  532000       531498   -7793.0425    557.26843    -8350.311     4197.631   -12547.942    91.062839   -262.42531   -1007.9823   -707.90043    21.736287    209.48715   -175.22165      46.7237      46.7237      46.7237           90           90           90     102002.7   -659.43602 
  533000       532498   -7768.9748     563.9882    -8332.963    4230.7145   -12563.678    92.160912   -621.21945   -753.24144   -611.67454    78.552037   -95.639134    19.745858      46.7237      46.7237      46.7237           90           90           90     102002.7   -662.04514 
  534000       533498   -7798.5059    536.02763   -8334.5335    4213.4243   -12547.958    87.591896   -743.87393    -648.6499   -621.12609   -27.646611    22.687748    -74.98455      46.7237      46.7237      46.7237           90           90           90     102002.7   -671.21664 
  535000       534498   -7793.9377    545.67597   -8339.6137    4197.5729   -12537.187    89.168524    -800.1245   -971.79156    -1089.751    213.22894   -188.83991   -9.3471032      46.7237      46.7237      46.7237           90           90           90     102002.7   -953.88902 
  536000       535498   -7784.2079    551.98687   -8336.1948    4212.1902   -12548.385    90.199784   -1131.4981   -863.34205   -708.26612    -19.10348   -44.656882    -20.59244      46.7237      46.7237      46.7237           90           90           90     102002.7   -901.03542 
  537000       536498   -7796.5764    547.93037   -8344.5068    4186.4414   -12530.948    89.536913   -423.62266   -921.60289   -1059.6231   -204.31699   -331.61517    94.815832      46.7237      46.7237      46.7237           90           90           90     102002.7   -801.61622 
  538000       537498   -7776.2625    561.67694   -8337.9395    4221.4802    -12559.42    91.783231   -900.83821   -802.44245   -439.00403    61.234544    118.93886    77.391457      46.7237      46.7237      46.7237           90           90           90     102002.7    -714.0949 
  539000       538498   -7789.5934    549.86517   -8339.4586    4199.3879   -12538.846    89.853078   -615.56262   -747.44741    -788.0451     119.8246    44.930762   -161.10001      46.7237      46.7237      46.7237           90           90           90     102002.7   -717.01837 
  540000       539498   -7758.3053    558.96873   -8317.2741    4212.6512   -12529.925    91.340685    -895.7381   -977.08239   -613.39941   -74.163563    -169.9748   -156.15458      46.7237      46.7237      46.7237           90           90           90     102002.7   -828.73996 
  541000       540498   -7787.6067     553.1879   -8340.7946    4206.7897   -12547.584    90.396043   -776.12968   -999.81734   -739.47681     74.26683   -133.42639    -180.5733      46.7237      46.7237      46.7237           90           90           90     102002.7   -838.47461 
  542000       541498   -7790.9806    559.92821   -8350.9088    4182.3503   -12533.259    91.497472   -446.06382   -403.24157    -1197.964   -321.22631   -14.764748   -92.064338      46.7237      46.7237      46.7237           90           90           90     102002.7   -682.42315 
  543000       542498   -7799.2282    545.33575   -8344.5639    4179.1272   -12523.691    89.112928   -578.70094   -937.71045   -725.57196   -79.781808    242.86345    68.436615      46.7237      46.7237      46.7237           90           90           90     102002.7   -747.32778 
  544000       543498   -7804.2122    547.33155   -8351.5438    4204.2175   -12555.761    89.439061   -838.76358    -639.9042   -1096.3569   -114.08663   -45.820506    251.37374      46.7237      46.7237      46.7237           90           90           90     102002.7   -858.34156 
  545000       544498   -7786.6428    556.91838   -8343.5611    4205.0027   -12548.564    91.005638   -306.17847   -712.25355   -844.72094   -217.54228   -26.576061    190.41634      46.7237      46.7237      46.7237           90           90           90     102002.7   -621.05099 
  546000       545498   -7749.0437    584.22703   -8333.2707    4207.8251   -12541.096    95.468126   -363.10431    -259.9096   -764.08595    8.5772904      39.9449   -154.83283      46.7237      46.7237      46.7237           90           90           90     102002.7   -462.36662 
  547000       546498   -7793.4703    550.32396   -8343.7943    4187.6334   -12531.428    89.928048   -617.88373   -531.59095   -539.19594    41.960976    155.99088   -224.06228      46.7237      46.7237      46.7237           90           90           90     102002.7   -562.89021 
  548000       547498    -7794.795    548.88922   -8343.6842    4203.4681   -12547.152    89.693598   -962.34012   -535.92807   -892.12232    137.92819   -30.439877    48.215077      46.7237      46.7237      46.7237           90           90           90     102002.7   -796.79684 
  549000       548498   -7779.7974    561.39913   -8341.1966    4191.4268   -12532.623    91.737835   -672.87985   -996.98442   -708.32402   -135.99374   -99.069089   -222.37894      46.7237      46.7237      46.7237           90           90           90     102002.7   -792.72943 
  550000       549498   -7771.0052    550.46843   -8321.4736    4226.0658   -12547.539    89.951657   -879.74859   -444.07846   -802.17613   -119.04964    175.77563   -73.689247      46.7237      46.7237      46.7237           90           90           90     102002.7   -708.66773 
  551000       550498    -7782.666    570.73587   -8353.4019    4209.0741   -12562.476    93.263544   -911.55095   -892.93785   -1101.9877   -128.34916   -207.61633   -133.16318      46.7237      46.7237      46.7237           90           90           90     102002.7   -968.82551 
  552000       551498   -7785.5953    569.31468     -8354.91    4184.9408   -12539.851    93.031309   -825.79217    -680.6548   -753.62962    219.87134    67.191208   -12.900429      46.7237      46.7237      46.7237           90           90           90     102002.7   -753.35886 
  553000       552498   -7778.2758     567.4332    -8345.709    4223.1307    -12568.84    92.723857   -598.77727   -423.92859   -406.33325    83.576711    66.953916   -115.15406      46.7237      46.7237      46.7237           90           90           90     102002.7   -476.34637 
  554000       553498   -7785.1318    545.75369   -8330.8855      4214.69   -12545.576    89.181225    -782.5633   -1056.9261   -816.79684   -72.479413    11.653947    161.70088      46.7237      46.7237      46.7237           90           90           90     102002.7   -885.42875 
  555000       554498    -7777.539    564.19908    -8341.738    4229.8227   -12571.561    92.195373   -942.99141   -802.62449   -959.52192    209.88275   -128.87812    210.48013      46.7237      46.7237      46.7237           90           90           90     102002.7   -901.71261 
[...]
  936000       935498   -7804.6186    533.11251   -8337.7311    4199.0984    -12536.83    87.115537   -404.45898   -546.03048   -707.98001   -162.31152   -116.94495    66.111569      46.7237      46.7237      46.7237           90           90           90     102002.7   -552.82316 
  937000       936498   -7768.5327    572.96988   -8341.5026    4201.0532   -12542.556    93.628602   -730.72252   -830.68606   -752.48324   -37.667245    143.74032    158.43411      46.7237      46.7237      46.7237           90           90           90     102002.7   -771.29727 
  938000       937498   -7786.8337    540.27626   -8327.1099    4208.4609   -12535.571    88.286162   -973.08297   -844.91825   -1357.6035   -324.96183    9.4962975   -15.432277      46.7237      46.7237      46.7237           90           90           90     102002.7   -1058.5349 
  939000       938498    -7818.374    530.24171   -8348.6157    4197.1877   -12545.803    86.646423   -932.31891   -1186.0812   -878.62205     114.7629    194.04896   -176.93224      46.7237      46.7237      46.7237           90           90           90     102002.7   -999.00739 
  940000       939498   -7793.5384    546.30748   -8339.8459    4183.1281   -12522.974    89.271719   -894.26052   -554.42115     -543.186   -146.38134    74.811451    10.427011      46.7237      46.7237      46.7237           90           90           90     102002.7   -663.95589 
  941000       940498   -7772.2472     552.7778    -8325.025     4230.088   -12555.113    90.329029   -922.04027   -502.29583   -864.87186    1.5091586    4.4352287    113.46278      46.7237      46.7237      46.7237           90           90           90     102002.7   -763.06932 
  942000       941498   -7793.1929    541.04896   -8334.2418    4192.4643   -12526.706    88.412428   -1235.2535   -927.89488   -1067.8794    -5.697257    75.203326   -18.718514      46.7237      46.7237      46.7237           90           90           90     102002.7   -1077.0092 
  943000       942498   -7803.4492    534.63096   -8338.0802    4210.6794    -12548.76    87.363668   -885.44429   -929.55216   -1100.1174     9.103722   -13.681072    67.248072      46.7237      46.7237      46.7237           90           90           90     102002.7   -971.70463 
  944000       943498   -7782.1801    572.78509   -8354.9652     4184.453   -12539.418    93.598406   -551.64454   -358.44363    -639.4449   -239.74504      21.4235    34.527141      46.7237      46.7237      46.7237           90           90           90     102002.7   -516.51102 
  945000       944498   -7758.9191    569.33376   -8328.2529    4211.4816   -12539.734    93.034426   -1530.8386   -668.80198   -1313.9797   -57.066306    -224.5575    192.43113      46.7237      46.7237      46.7237           90           90           90     102002.7   -1171.2067 
  946000       945498   -7781.3545    554.28721   -8335.6417    4212.8297   -12548.471    90.575681   -937.23397   -698.58772   -967.71275     -23.9288   -171.66914    30.515145      46.7237      46.7237      46.7237           90           90           90     102002.7   -867.84481 
  947000       946498    -7789.637    540.57293   -8330.2099    4210.5362   -12540.746     88.33464   -739.88665   -831.44321   -502.90523    1.8768446      41.6074   -9.4074419      46.7237      46.7237      46.7237           90           90           90     102002.7    -691.4117 
  948000       947498   -7775.1022    566.45674    -8341.559    4198.8519   -12540.411    92.564295   -942.15874   -522.17243   -404.05642    -50.75804    49.158813    13.822341      46.7237      46.7237      46.7237           90           90           90     102002.7   -622.79586 
  949000       948498   -7781.4577    562.78455   -8344.2422    4191.6475    -12535.89    91.964225   -930.58718   -909.39429   -833.47693    -197.5264    174.71743   -63.932371      46.7237      46.7237      46.7237           90           90           90     102002.7    -891.1528 
  950000       949498   -7777.1958    573.71905   -8350.9149    4184.2139   -12535.129    93.751024   -612.84554    -1264.734   -887.35372    32.924109    -37.88689   -2.9194793      46.7237      46.7237      46.7237           90           90           90     102002.7   -921.64443 
  951000       950498   -7803.3988    553.31476   -8356.7136    4199.9883   -12556.702    90.416772   -1090.7519   -517.13629   -482.75354   -167.08383    15.567588   -13.635431      46.7237      46.7237      46.7237           90           90           90     102002.7   -696.88057 
  952000       951498   -7764.3864    570.80706   -8335.1935    4202.1061     -12537.3    93.275177   -870.52594   -539.45117   -1026.8701   -127.22114   -45.203077    53.191345      46.7237      46.7237      46.7237           90           90           90     102002.7    -812.2824 
  953000       952498   -7798.8601    545.41754   -8344.2776    4181.1215   -12525.399    89.126294   -662.53972   -1001.8402   -978.38833   -63.574864    -40.69301    10.523773      46.7237      46.7237      46.7237           90           90           90     102002.7   -880.92274 
  954000       953498    -7774.203    574.85019   -8349.0532    4182.7979   -12531.851    93.935863   -689.63518    -598.6416   -591.22022   -81.373778    8.6200043    30.998994      46.7237      46.7237      46.7237           90           90           90     102002.7     -626.499 
  955000       954498   -7778.9049    570.37712    -8349.282    4186.0451   -12535.327    93.204922   -850.55883   -869.16343   -454.24449     46.89874     33.80494   -12.900749      46.7237      46.7237      46.7237           90           90           90     102002.7   -724.65559 
  956000       955498   -7787.3346    554.91726   -8342.2519    4177.9841   -12520.236    90.678636   -835.74473   -702.71382    -616.1069   -396.51826    16.620555    154.79594      46.7237      46.7237      46.7237           90           90           90     102002.7   -718.18848 
  957000       956498   -7797.4752    541.59037   -8339.0656    4197.1366   -12536.202    88.500899   -955.19565   -562.48729   -753.98032   -132.90011   -9.2685038   -83.734997      46.7237      46.7237      46.7237           90           90           90     102002.7   -757.22108 
  958000       957498   -7787.3412     549.3762   -8336.7174    4190.5865   -12527.304    89.773176   -649.51912   -579.66289   -798.89693   -154.13584   -8.5887504    177.35812      46.7237      46.7237      46.7237           90           90           90     102002.7   -676.02631 
  959000       958498   -7807.3572    547.46765   -8354.8249    4203.2161   -12558.041    89.461301   -749.93816   -424.55716   -855.90682    78.763558     20.64231   -156.60304      46.7237      46.7237      46.7237           90           90           90     102002.7   -676.80071 
  960000       959498    -7786.105    555.16238   -8341.2673    4193.3245   -12534.592    90.718691   -676.85133   -469.84979   -421.19292   -121.15352   -66.601062   -16.533306      46.7237      46.7237      46.7237           90           90           90     102002.7   -522.63135 
  961000       960498   -7767.8655    558.26638   -8326.1319    4211.2768   -12537.409    91.225913   -671.92263    -747.2014   -771.85375   -306.17418     19.48293    24.600543      46.7237      46.7237      46.7237           90           90           90     102002.7   -730.32593 
  962000       961498    -7769.354    564.67635   -8334.0304    4209.0743   -12543.105    92.273362    -1045.563   -335.75309   -1012.6832    78.577572   -71.519717  0.057331863      46.7237      46.7237      46.7237           90           90           90     102002.7   -797.99978 
  963000       962498   -7790.9538    545.74551   -8336.6993    4196.6235   -12533.323    89.179888   -358.52875   -821.08114   -540.01707   -15.079664   -322.09115     79.70135      46.7237      46.7237      46.7237           90           90           90     102002.7   -573.20899 
  964000       963498   -7776.0207    551.26788   -8327.2886    4215.3017    -12542.59    90.082294   -642.55762   -950.67162   -780.04251   -33.547394    20.860259   -218.40967      46.7237      46.7237      46.7237           90           90           90     102002.7   -791.09058 
  965000       964498   -7773.2341    558.21856   -8331.4526    4204.1516   -12535.604      91.2181   -1056.4341   -671.79457   -722.13403   -9.9962401   -166.16217    73.810027      46.7237      46.7237      46.7237           90           90           90     102002.7   -816.78758 
  966000       965498   -7772.4619    566.38379   -8338.8457    4204.8586   -12543.704    92.552375    -827.7548   -673.52584   -765.98315   -16.610536    28.171752    4.7418356      46.7237      46.7237      46.7237           90           90           90     102002.7    -755.7546 
  967000       966498    -7795.628    553.94157   -8349.5696    4197.2173   -12546.787      90.5192   -669.72278   -512.42328    -1088.259    65.771653    147.55923    41.497456      46.7237      46.7237      46.7237           90           90           90     102002.7   -756.80168 
  968000       967498    -7767.953    561.63576   -8329.5888    4212.1549   -12541.744    91.776502   -867.87903   -274.97832   -352.70163   -45.776876   -125.17311    71.683788      46.7237      46.7237      46.7237           90           90           90     102002.7   -498.51966 
  969000       968498   -7778.4655    553.64928   -8332.1148    4199.5934   -12531.708    90.471437   -714.78616   -709.36586   -866.53974   -111.30233    97.721252   -9.7223517      46.7237      46.7237      46.7237           90           90           90     102002.7   -763.56392 
  970000       969498   -7808.4765    546.87801   -8355.3545    4195.7542   -12551.109    89.364948   -1101.4674   -938.41756   -638.53623     159.7737   -103.08025   -35.554527      46.7237      46.7237      46.7237           90           90           90     102002.7   -892.80707 
  971000       970498   -7786.6554    546.44821   -8333.1036    4203.1665    -12536.27    89.294715   -745.62729   -893.81415   -737.07535   -42.119957    -256.4806   -56.140903      46.7237      46.7237      46.7237           90           90           90     102002.7   -792.17226 
  972000       971498   -7777.3275    564.85423   -8342.1817    4215.0257   -12557.207    92.302429   -525.61095    -1616.648   -948.97959     -25.9836   -120.06767    26.484225      46.7237      46.7237      46.7237           90           90           90     102002.7   -1030.4129 
  973000       972498   -7763.5705    576.02174   -8339.5922    4209.2877    -12548.88    94.127304   -477.72893   -1026.6834   -847.75641    42.475422   -43.426633   -68.261707      46.7237      46.7237      46.7237           90           90           90     102002.7   -784.05625 
  974000       973498   -7795.2594     547.3596    -8342.619    4201.2302   -12543.849    89.443645   -750.48131    -828.4615   -1079.5356    -210.4345   -23.745053   -90.023458      46.7237      46.7237      46.7237           90           90           90     102002.7   -886.15948 
  975000       974498   -7804.0947    550.66395   -8354.7587     4185.669   -12540.428    89.983606    -575.5177   -610.66851   -588.92507    109.03307   -45.874924    345.27178      46.7237      46.7237      46.7237           90           90           90     102002.7   -591.70376 
  976000       975498   -7776.5379    560.76475   -8337.3026    4200.3386   -12537.641    91.634171   -1021.0469   -870.92547   -816.58478    35.577106     24.91691   -27.286789      46.7237      46.7237      46.7237           90           90           90     102002.7   -902.85239 
  977000       976498   -7760.2309    555.40416   -8315.6351    4223.9951    -12539.63    90.758201   -883.92255   -619.93802   -623.01504   -17.524623    97.681362   -168.22659      46.7237      46.7237      46.7237           90           90           90     102002.7   -708.95854 
  978000       977498   -7805.9987    558.85055   -8364.8493    4170.3637   -12535.213    91.321373   -674.94884   -1083.5943   -759.20864    -161.2499    214.13538    32.309574      46.7237      46.7237      46.7237           90           90           90     102002.7   -839.25061 
  979000       978498   -7770.4956    576.11451   -8346.6101    4186.4381   -12533.048    94.142464   -338.65318   -730.69197   -965.05357   -6.5152091    46.680053    152.04799      46.7237      46.7237      46.7237           90           90           90     102002.7   -678.13291 
  980000       979498   -7781.0719    546.79558   -8327.8675    4217.3157   -12545.183    89.351479   -522.59407   -701.59294   -992.82123   -155.91504   -173.55019    -27.64692      46.7237      46.7237      46.7237           90           90           90     102002.7   -739.00274 
  981000       980498   -7761.0146    577.16563   -8338.1802    4199.6231   -12537.803    94.314227   -1012.6336   -1272.3504   -980.08691   -53.305087    140.11009   -259.07646      46.7237      46.7237      46.7237           90           90           90     102002.7    -1088.357 
  982000       981498   -7781.6863    557.70842   -8339.3947    4198.5308   -12537.926    91.134738   -305.28827   -727.42411    -555.1832    77.921294    85.146543   -24.563059      46.7237      46.7237      46.7237           90           90           90     102002.7   -529.29852 
  983000       982498   -7763.1607    558.16548   -8321.3262    4216.9255   -12538.252    91.209426   -1152.4176   -923.28724   -826.52081   -4.2288136    185.48424     316.6383      46.7237      46.7237      46.7237           90           90           90     102002.7   -967.40855 
  984000       983498   -7769.0777     546.5357   -8315.6134    4201.7677   -12517.381    89.309011   -995.81768   -932.88171   -951.39626     148.8176   -103.04967    97.892257      46.7237      46.7237      46.7237           90           90           90     102002.7   -960.03188 
  985000       984498   -7791.1921    550.80941   -8342.0015    4197.8319   -12539.833    90.007376   -735.87138   -1073.4671   -1131.8923    137.68295    6.5325389   -33.461913      46.7237      46.7237      46.7237           90           90           90     102002.7   -980.41024 
  986000       985498   -7773.4838    560.47692   -8333.9607    4206.9293    -12540.89    91.587137   -678.91838   -680.62239   -738.46049    25.550454    212.78468   -100.57442      46.7237      46.7237      46.7237           90           90           90     102002.7   -699.33375 
  987000       986498   -7799.9818     559.0508   -8359.0326    4177.4403   -12536.473    91.354096   -813.84505   -813.95277   -1029.2867   -44.715103   -146.66548    -84.23509      46.7237      46.7237      46.7237           90           90           90     102002.7   -885.69486 
  988000       987498   -7770.7173    559.98741   -8330.7047    4206.9939   -12537.699    91.507146   -869.68781   -782.65425   -1063.4336    80.700778   -107.96754   -156.49237      46.7237      46.7237      46.7237           90           90           90     102002.7   -905.25855 
  989000       988498   -7809.2811    556.30281    -8365.584    4165.5005   -12531.084    90.905048    -548.5228   -1016.7521   -1219.0976    169.75169   -35.711883    108.46597      46.7237      46.7237      46.7237           90           90           90     102002.7   -928.12417 
  990000       989498    -7771.156    550.16354   -8321.3196    4205.8087   -12527.128    89.901835   -958.09366   -914.88684   -549.73684    188.66133   -115.95089   -62.255871      46.7237      46.7237      46.7237           90           90           90     102002.7   -807.57244 
  991000       990498   -7801.3225    539.49791   -8340.8204    4207.5294    -12548.35    88.158972   -815.97767   -1072.4019   -546.70121   -34.453924   -269.55577    22.909229      46.7237      46.7237      46.7237           90           90           90     102002.7    -811.6936 
  992000       991498   -7787.5782    555.46047   -8343.0386    4206.5106   -12549.549    90.767403   -723.54666   -977.84705   -860.51871    250.15882    230.11518   -195.47427      46.7237      46.7237      46.7237           90           90           90     102002.7   -853.97081 
  993000       992498   -7779.8183    550.27068    -8330.089    4225.6357   -12555.725    89.919342   -882.04515   -583.75607   -822.01333   -36.782803   -214.07252   -221.12169      46.7237      46.7237      46.7237           90           90           90     102002.7   -762.60485 
  994000       993498   -7831.0614    525.80389   -8356.8653    4164.7169   -12521.582    85.921241   -838.31377    -871.9365   -979.03124    131.68379   -79.598344    176.56295      46.7237      46.7237      46.7237           90           90           90     102002.7   -896.42717 
  995000       994498   -7802.8873    550.31077   -8353.1981    4187.1128   -12540.311    89.925893   -1423.0368   -1010.3225   -978.52702    -11.80593   -152.65062    155.75638      46.7237      46.7237      46.7237           90           90           90     102002.7   -1137.2954 
  996000       995498   -7784.4551    550.81881   -8335.2739    4225.7676   -12561.042    90.008912   -1096.9891   -862.16224   -937.67436     27.54073   -155.47491    169.99657      46.7237      46.7237      46.7237           90           90           90     102002.7   -965.60857 
  997000       996498   -7762.9866    566.20553   -8329.1921    4194.6285   -12523.821    92.523244   -745.04089   -757.26919   -482.35302   0.94707937    9.1292626    177.97111      46.7237      46.7237      46.7237           90           90           90     102002.7   -661.55437 
  998000       997498   -7793.7409    544.43473   -8338.1757    4188.4752   -12526.651    88.965694   -633.98697   -678.68902   -1152.8478   -123.64271   -106.53234  -0.37345044      46.7237      46.7237      46.7237           90           90           90     102002.7   -821.84126 
  999000       998498    -7804.094    543.09439   -8347.1884     4189.643   -12536.831     88.74667   -487.50398   -554.90535    -636.0007    -24.90101   -123.95465    12.840341      46.7237      46.7237      46.7237           90           90           90     102002.7   -559.47001 
 1000000       999498   -7787.1018    548.27814     -8335.38     4185.698   -12521.078    89.593742   -554.15355   -1059.5674    -999.6756   -239.08824    -83.44084    67.049814      46.7237      46.7237      46.7237           90           90           90     102002.7   -871.13218 
 1000502      1000000   -7778.6136    540.75706   -8319.3707    4211.3715   -12530.742    88.364728   -995.40394   -605.84818   -592.73504   -154.74279    88.909041   -72.736147      46.7237      46.7237      46.7237           90           90           90     102002.7   -731.32905 
Loop time of 1557.18 on 16 procs for 500000 steps with 2054 atoms

Performance: 27.742 ns/day, 0.865 hours/ns, 321.093 timesteps/s
99.8% CPU use with 16 MPI tasks x no OpenMP threads

MPI task timing breakdown:
Section |  min time  |  avg time  |  max time  |%varavg| %total
---------------------------------------------------------------
Pair    | 641.92     | 905.52     | 1112.2     | 513.7 | 58.15
Bond    | 166.82     | 183.72     | 207.92     |  73.8 | 11.80
Neigh   | 6.1724     | 6.2071     | 6.2435     |   0.9 |  0.40
Comm    | 231.92     | 433.03     | 702.84     | 737.0 | 27.81
Output  | 0.10505    | 0.11042    | 0.11092    |   0.4 |  0.01
Modify  | 22.195     | 23.03      | 23.806     |  11.3 |  1.48
Other   |            | 5.57       |            |       |  0.36

Nlocal:    128.375 ave 158 max 96 min
Histogram: 1 3 0 1 1 5 1 1 0 3
Nghost:    2566.38 ave 2589 max 2529 min
Histogram: 2 1 1 0 0 1 1 5 1 4
Neighs:    11458.6 ave 16718 max 7020 min
Histogram: 3 1 3 0 1 2 2 1 1 2

Total # of neighbors = 183337
Ave neighs/atom = 89.2585
Ave special neighs/atom = 5.60857
Neighbor list builds = 3849
Dangerous builds = 0
Total wall time: 0:48:25
