LAMMPS (30 Mar 2018)
Reading data file ...
  orthogonal box = (0 0 0) to (46.7237 46.7237 46.7237)
  2 by 2 by 4 MPI processor grid
  reading atoms ...
  3353 atoms
  scanning bonds ...
  5 = max bonds/atom
  scanning angles ...
  10 = max angles/atom
  scanning dihedrals ...
  32 = max dihedrals/atom
  scanning impropers ...
  3 = max impropers/atom
  reading bonds ...
  2064 bonds
  reading angles ...
  3696 angles
  reading dihedrals ...
  6240 dihedrals
  reading impropers ...
  1008 impropers
Finding 1-2 1-3 1-4 neighbors ...
  special bond factors lj:   0          0          0         
  special bond factors coul: 0          0          0         
  5 = max # of 1-2 neighbors
  8 = max # of 1-3 neighbors
  20 = max # of 1-4 neighbors
  19 = max # of special neighbors
Finding 1-2 1-3 1-4 neighbors ...
  special bond factors lj:   0          0          1         
  special bond factors coul: 1          1          1         
  5 = max # of 1-2 neighbors
  8 = max # of 1-3 neighbors
  19 = max # of special neighbors
WARNING: Using 'neigh_modify every 1 delay 0 check yes' setting during minimization (../min.cpp:168)
Neighbor list info ...
  update every 1 steps, delay 0 steps, check yes
  max neighbors/atom: 2000, page size: 100000
  master list distance cutoff = 16
  ghost atom cutoff = 16
  binsize = 8, bins = 6 6 6
  3 neighbor lists, perpetual/occasional/extra = 3 0 0
  (1) pair buck6d/coul/gauss/dsf, perpetual, skip from (3)
      attributes: half, newton on
      pair build: skip
      stencil: none
      bin: none
  (2) pair lj/cut, perpetual, skip from (3)
      attributes: half, newton on
      pair build: skip
      stencil: none
      bin: none
  (3) neighbor class addition, perpetual
      attributes: half, newton on
      pair build: half/bin/newton
      stencil: half/bin/3d/newton
      bin: standard
Setting up cg style minimization ...
  Unit style    : real
  Current step  : 0
WARNING: Inconsistent image flags (../domain.cpp:786)
Per MPI rank memory allocation (min/avg/max) = 23.03 | 23.48 | 23.93 Mbytes
Step Temp E_pair E_mol TotEng Press 
       0            0   -16073.784    6482.8914   -9590.8929    6994.2342 
     500            0   -16475.939    3822.7151   -12653.224   -963.53881 
Loop time of 4.63453 on 16 procs for 500 steps with 3353 atoms

99.8% CPU use with 16 MPI tasks x no OpenMP threads

Minimization stats:
  Stopping criterion = max force evaluations
  Energy initial, next-to-last, final = 
        -9590.89286883     -12653.1652237      -12653.224289
  Force two-norm initial, final = 2574.96 10.4605
  Force max component initial, final = 152.127 1.75355
  Final line search alpha, max atom move = 0.00885437 0.0155266
  Iterations, force evaluations = 500 1000

MPI task timing breakdown:
Section |  min time  |  avg time  |  max time  |%varavg| %total
---------------------------------------------------------------
Pair    | 2.7176     | 3.1727     | 3.6717     |  14.5 | 68.46
Bond    | 0.26226    | 0.35988    | 0.43942    |   8.0 |  7.77
Neigh   | 0.029497   | 0.029559   | 0.029613   |   0.0 |  0.64
Comm    | 0.49006    | 1.0182     | 1.4885     |  26.6 | 21.97
Output  | 0          | 0          | 0          |   0.0 |  0.00
Modify  | 0          | 0          | 0          |   0.0 |  0.00
Other   |            | 0.05413    |            |       |  1.17

Nlocal:    209.562 ave 229 max 193 min
Histogram: 2 2 1 2 3 0 2 1 2 1
Nghost:    4181.62 ave 4208 max 4159 min
Histogram: 2 1 1 1 3 3 3 1 0 1
Neighs:    11508.7 ave 16592 max 8140 min
Histogram: 2 4 0 1 4 3 0 0 1 1

Total # of neighbors = 184139
Ave neighs/atom = 54.9177
Ave special neighs/atom = 3.43573
Neighbor list builds = 8
Dangerous builds = 0
Neighbor list info ...
  update every 1 steps, delay 10 steps, check yes
  max neighbors/atom: 2000, page size: 100000
  master list distance cutoff = 16
  ghost atom cutoff = 16
  binsize = 8, bins = 6 6 6
  3 neighbor lists, perpetual/occasional/extra = 3 0 0
  (1) pair buck6d/coul/gauss/dsf, perpetual, skip from (3)
      attributes: half, newton on
      pair build: skip
      stencil: none
      bin: none
  (2) pair lj/cut, perpetual, skip from (3)
      attributes: half, newton on
      pair build: skip
      stencil: none
      bin: none
  (3) neighbor class addition, perpetual
      attributes: half, newton on
      pair build: half/bin/newton
      stencil: half/bin/3d/newton
      bin: standard
Setting up Verlet run ...
  Unit style    : real
  Current step  : 500
  Time step     : 1
WARNING: Inconsistent image flags (../domain.cpp:786)
Per MPI rank memory allocation (min/avg/max) = 22.67 | 22.74 | 22.8 Mbytes
Step Temp PotEng TotEng Press Volume Lx Ly Lz 
     500           91   -12653.224   -11743.982    -556.0639     102002.7      46.7237      46.7237      46.7237 
    1000    77.024584   -11904.453   -11134.849    739.77171     102002.7      46.7237      46.7237      46.7237 
    2000    92.874565   -11749.682    -10821.71    804.49445     102002.7      46.7237      46.7237      46.7237 
    3000    91.712668   -11774.199   -10857.835    866.18859     102002.7      46.7237      46.7237      46.7237 
    4000    91.058492   -11780.336   -10870.509    1196.5715     102002.7      46.7237      46.7237      46.7237 
    5000    91.607984   -11782.467    -10867.15     860.6618     102002.7      46.7237      46.7237      46.7237 
    6000    90.918369    -11776.61   -10868.183    1040.9479     102002.7      46.7237      46.7237      46.7237 
    7000    91.320915   -11788.674   -10876.225    930.53912     102002.7      46.7237      46.7237      46.7237 
    8000    90.801189   -11788.991   -10881.735    931.96962     102002.7      46.7237      46.7237      46.7237 
    9000    91.022362   -11773.221   -10863.755    995.96825     102002.7      46.7237      46.7237      46.7237 
   10000    91.322927   -11795.748   -10883.279    891.48381     102002.7      46.7237      46.7237      46.7237 
   11000    93.011084   -11772.288   -10842.951    996.93213     102002.7      46.7237      46.7237      46.7237 
   12000    91.202944   -11785.329   -10874.059    1175.2479     102002.7      46.7237      46.7237      46.7237 
   13000    88.428879   -11788.522    -10904.97    1025.8344     102002.7      46.7237      46.7237      46.7237 
   14000    92.177432   -11778.933   -10857.926    919.16109     102002.7      46.7237      46.7237      46.7237 
   15000    90.258147   -11789.305   -10887.475    1115.5241     102002.7      46.7237      46.7237      46.7237 
   16000    89.287908   -11804.089   -10911.953    576.90913     102002.7      46.7237      46.7237      46.7237 
   17000     90.49713   -11782.781   -10878.563    796.05906     102002.7      46.7237      46.7237      46.7237 
   18000     90.34922   -11811.665   -10908.925    851.09264     102002.7      46.7237      46.7237      46.7237 
   19000    88.546277   -11790.221   -10905.495    912.23241     102002.7      46.7237      46.7237      46.7237 
   20000    90.218767   -11764.735   -10863.298    1017.4139     102002.7      46.7237      46.7237      46.7237 
   21000    90.009052   -11815.835   -10916.494    883.66951     102002.7      46.7237      46.7237      46.7237 
   22000    90.945213   -11804.598   -10895.903    934.51199     102002.7      46.7237      46.7237      46.7237 
   23000    92.356176   -11796.687   -10873.894    1153.4811     102002.7      46.7237      46.7237      46.7237 
   24000    92.558673   -11786.943   -10862.127      895.339     102002.7      46.7237      46.7237      46.7237 
   25000    90.899421   -11818.675   -10910.438    879.36998     102002.7      46.7237      46.7237      46.7237 
   26000    89.237989   -11796.352   -10904.715    798.37964     102002.7      46.7237      46.7237      46.7237 
   27000    91.231409   -11800.169   -10888.615    949.36737     102002.7      46.7237      46.7237      46.7237 
   28000    91.951374   -11805.468   -10886.719      944.312     102002.7      46.7237      46.7237      46.7237 
   29000    93.377457   -11800.185   -10867.188    1150.7235     102002.7      46.7237      46.7237      46.7237 
   30000    91.395851   -11816.551   -10903.353    1022.2545     102002.7      46.7237      46.7237      46.7237 
   31000    91.836779   -11782.839   -10865.236    1166.8863     102002.7      46.7237      46.7237      46.7237 
   32000    90.777967   -11800.409   -10893.385    877.43635     102002.7      46.7237      46.7237      46.7237 
   33000    91.033964   -11813.833   -10904.251    957.13188     102002.7      46.7237      46.7237      46.7237 
   34000    91.250318    -11797.88   -10886.137    900.57532     102002.7      46.7237      46.7237      46.7237 
   35000    93.149774   -11811.333   -10880.611    974.34576     102002.7      46.7237      46.7237      46.7237 
   36000    89.603596   -11784.629   -10889.339    1067.2435     102002.7      46.7237      46.7237      46.7237 
   37000    93.228969   -11813.068   -10881.555    1252.0876     102002.7      46.7237      46.7237      46.7237 
   38000    91.415856   -11824.432   -10911.034    1017.1603     102002.7      46.7237      46.7237      46.7237 
   39000    93.058303   -11799.821   -10870.013    1093.4973     102002.7      46.7237      46.7237      46.7237 
   40000    91.618299   -11798.833   -10883.413    1085.2643     102002.7      46.7237      46.7237      46.7237 
   41000    91.223963   -11830.045   -10918.565    862.85469     102002.7      46.7237      46.7237      46.7237 
   42000    91.527308   -11793.517   -10879.006    868.31873     102002.7      46.7237      46.7237      46.7237 
   43000    90.979118   -11821.529   -10912.495    851.50913     102002.7      46.7237      46.7237      46.7237 
   44000    89.969376   -11814.219   -10915.274    828.44954     102002.7      46.7237      46.7237      46.7237 
   45000      91.9383   -11781.696   -10863.078    1054.4602     102002.7      46.7237      46.7237      46.7237 
   46000    89.920271   -11813.027   -10914.573    963.26961     102002.7      46.7237      46.7237      46.7237 
   47000    91.193872   -11798.869   -10887.689    859.19853     102002.7      46.7237      46.7237      46.7237 
   48000    89.752563   -11824.902   -10928.123    784.42252     102002.7      46.7237      46.7237      46.7237 
   49000    90.782218    -11819.11   -10912.044    1143.2072     102002.7      46.7237      46.7237      46.7237 
   50000    90.562625   -11802.763   -10897.891    1216.1878     102002.7      46.7237      46.7237      46.7237 
   51000    89.778455   -11838.569   -10941.532     1051.146     102002.7      46.7237      46.7237      46.7237 
   52000    89.949718    -11803.24   -10904.491    866.49168     102002.7      46.7237      46.7237      46.7237 
   53000    90.581164   -11835.168    -10930.11    902.80825     102002.7      46.7237      46.7237      46.7237 
   54000    94.023717   -11807.801   -10868.347    1157.5086     102002.7      46.7237      46.7237      46.7237 
   55000    89.198531   -11823.187   -10931.944    875.51907     102002.7      46.7237      46.7237      46.7237 
   56000    90.855574   -11815.018   -10907.218    1050.0327     102002.7      46.7237      46.7237      46.7237 
   57000    91.758125   -11814.976   -10898.159    809.14625     102002.7      46.7237      46.7237      46.7237 
   58000    91.103089   -11818.701   -10908.428    992.35041     102002.7      46.7237      46.7237      46.7237 
   59000    92.098387   -11816.243   -10896.026    863.33322     102002.7      46.7237      46.7237      46.7237 
   60000    90.816971   -11804.037   -10896.624    1127.7913     102002.7      46.7237      46.7237      46.7237 
   61000    89.889737   -11843.068   -10944.919    1086.8313     102002.7      46.7237      46.7237      46.7237 
   62000    89.659624   -11824.686   -10928.836    840.32294     102002.7      46.7237      46.7237      46.7237 
   63000     90.40812   -11828.392   -10925.063    1003.8535     102002.7      46.7237      46.7237      46.7237 
   64000    92.501779   -11813.748     -10889.5    826.34212     102002.7      46.7237      46.7237      46.7237 
   65000    93.159416   -11808.117   -10877.298    746.65667     102002.7      46.7237      46.7237      46.7237 
   66000     91.08202   -11801.509   -10891.447    1039.4351     102002.7      46.7237      46.7237      46.7237 
   67000    92.494614   -11803.881   -10879.705    814.99283     102002.7      46.7237      46.7237      46.7237 
   68000    88.711291   -11821.867   -10935.492    850.78274     102002.7      46.7237      46.7237      46.7237 
   69000    91.603038   -11836.466   -10921.198    821.55574     102002.7      46.7237      46.7237      46.7237 
   70000    92.848883   -11812.031   -10884.315    1028.9402     102002.7      46.7237      46.7237      46.7237 
   71000    90.394146   -11803.789     -10900.6    1031.9417     102002.7      46.7237      46.7237      46.7237 
   72000    93.781966   -11810.657   -10873.618    1088.1036     102002.7      46.7237      46.7237      46.7237 
   73000    90.302316   -11821.876   -10919.605    982.22655     102002.7      46.7237      46.7237      46.7237 
   74000    91.769894   -11806.111   -10889.176    1480.0052     102002.7      46.7237      46.7237      46.7237 
   75000    90.298046   -11804.049   -10901.821    994.95714     102002.7      46.7237      46.7237      46.7237 
   76000    88.298632   -11813.086   -10930.835    967.09278     102002.7      46.7237      46.7237      46.7237 
   77000    92.316481   -11803.387   -10880.991    967.04796     102002.7      46.7237      46.7237      46.7237 
   78000     91.99823   -11808.748   -10889.531     890.1008     102002.7      46.7237      46.7237      46.7237 
   79000    90.502831    -11834.21   -10929.936    756.25767     102002.7      46.7237      46.7237      46.7237 
   80000    91.327487   -11826.641   -10914.127    1061.6476     102002.7      46.7237      46.7237      46.7237 
   81000     90.56979   -11818.408   -10913.464    759.43947     102002.7      46.7237      46.7237      46.7237 
   82000     88.72286   -11801.875   -10915.385    947.89292     102002.7      46.7237      46.7237      46.7237 
   83000      90.4984   -11810.962   -10906.731     1060.725     102002.7      46.7237      46.7237      46.7237 
   84000     91.67222   -11826.478   -10910.519    877.46403     102002.7      46.7237      46.7237      46.7237 
   85000    92.715493   -11806.138   -10879.755    1016.9633     102002.7      46.7237      46.7237      46.7237 
   86000    91.287938   -11842.091   -10929.972    743.23223     102002.7      46.7237      46.7237      46.7237 
   87000     91.85441   -11838.968   -10921.188     1152.329     102002.7      46.7237      46.7237      46.7237 
   88000    91.671869   -11828.854   -10912.899    940.88285     102002.7      46.7237      46.7237      46.7237 
   89000     88.05137   -11806.344   -10926.564    1030.6571     102002.7      46.7237      46.7237      46.7237 
   90000    90.428889   -11842.802   -10939.266    923.45847     102002.7      46.7237      46.7237      46.7237 
   91000    92.936748   -11826.651   -10898.058    1143.2191     102002.7      46.7237      46.7237      46.7237 
   92000    90.707184   -11850.705   -10944.388    899.15484     102002.7      46.7237      46.7237      46.7237 
   93000    90.898688   -11820.182   -10911.952    983.51014     102002.7      46.7237      46.7237      46.7237 
   94000    90.699226    -11828.17   -10921.933    1094.9721     102002.7      46.7237      46.7237      46.7237 
   95000    91.946293   -11841.454   -10922.756    1062.4153     102002.7      46.7237      46.7237      46.7237 
   96000    90.814089   -11812.419   -10905.034    783.10361     102002.7      46.7237      46.7237      46.7237 
   97000    92.041618   -11837.705   -10918.055    918.98679     102002.7      46.7237      46.7237      46.7237 
   98000    91.429012   -11833.942   -10920.413    880.11162     102002.7      46.7237      46.7237      46.7237 
   99000    91.015037    -11830.86   -10921.467    1098.4363     102002.7      46.7237      46.7237      46.7237 
  100000    91.526151   -11851.599   -10937.099    826.94898     102002.7      46.7237      46.7237      46.7237 
  101000    91.608917   -11830.348   -10915.022    998.66117     102002.7      46.7237      46.7237      46.7237 
  102000    90.864174   -11811.297   -10903.411    905.81284     102002.7      46.7237      46.7237      46.7237 
  103000    90.514648   -11839.978   -10935.585    1161.1573     102002.7      46.7237      46.7237      46.7237 
  104000    91.386603   -11826.426   -10913.321    1056.4892     102002.7      46.7237      46.7237      46.7237 
  105000    89.940784   -11861.706   -10963.046    1078.7944     102002.7      46.7237      46.7237      46.7237 
  106000    89.121926   -11819.761   -10929.284    776.56729     102002.7      46.7237      46.7237      46.7237 
  107000    91.837626   -11823.043   -10905.431    811.65224     102002.7      46.7237      46.7237      46.7237 
  108000    89.057714   -11840.069   -10950.233    769.06382     102002.7      46.7237      46.7237      46.7237 
  109000     92.55965   -11822.063   -10897.237     997.2906     102002.7      46.7237      46.7237      46.7237 
  110000    89.413278   -11844.091   -10950.703    724.29741     102002.7      46.7237      46.7237      46.7237 
  111000    90.603643    -11843.36   -10938.078    893.18976     102002.7      46.7237      46.7237      46.7237 
  112000     89.80467   -11794.213   -10896.914    1179.7036     102002.7      46.7237      46.7237      46.7237 
  113000    92.116608    -11825.05    -10904.65    1038.4588     102002.7      46.7237      46.7237      46.7237 
  114000    90.190263   -11821.289   -10920.138    714.86908     102002.7      46.7237      46.7237      46.7237 
  115000    91.563219   -11821.471   -10906.601     878.2889     102002.7      46.7237      46.7237      46.7237 
  116000    90.403033   -11823.687   -10920.409    839.85014     102002.7      46.7237      46.7237      46.7237 
  117000    91.694594   -11821.722   -10905.539    1224.7491     102002.7      46.7237      46.7237      46.7237 
  118000     90.45579   -11835.386   -10931.581    1193.0751     102002.7      46.7237      46.7237      46.7237 
  119000    90.088298   -11820.227   -10920.094    987.37125     102002.7      46.7237      46.7237      46.7237 
  120000     89.09739     -11818.3   -10928.068    1054.7032     102002.7      46.7237      46.7237      46.7237 
  121000    91.318283   -11853.771   -10941.348     811.1421     102002.7      46.7237      46.7237      46.7237 
  122000    89.603171   -11814.822   -10919.536    851.06177     102002.7      46.7237      46.7237      46.7237 
  123000    93.905034   -11845.801   -10907.533    1073.6222     102002.7      46.7237      46.7237      46.7237 
  124000     91.03886   -11819.219   -10909.588    1104.0215     102002.7      46.7237      46.7237      46.7237 
  125000    89.512879   -11828.193    -10933.81    743.01223     102002.7      46.7237      46.7237      46.7237 
  126000    89.738064   -11836.451   -10939.817    659.56866     102002.7      46.7237      46.7237      46.7237 
  127000    92.096161   -11833.302   -10913.107    1004.8863     102002.7      46.7237      46.7237      46.7237 
  128000    90.489922   -11857.325   -10953.179    605.33964     102002.7      46.7237      46.7237      46.7237 
  129000    91.525009   -11835.631   -10921.143    935.90252     102002.7      46.7237      46.7237      46.7237 
  130000    89.360302   -11832.512   -10939.652    1086.7746     102002.7      46.7237      46.7237      46.7237 
  131000    92.630487   -11832.694    -10907.16    907.93235     102002.7      46.7237      46.7237      46.7237 
  132000    88.464508   -11825.697   -10941.788    631.66387     102002.7      46.7237      46.7237      46.7237 
  133000    92.831642   -11824.389   -10896.845    733.19063     102002.7      46.7237      46.7237      46.7237 
  134000    90.840835   -11851.247   -10943.595    671.78099     102002.7      46.7237      46.7237      46.7237 
  135000    91.184772   -11814.101   -10903.013    806.18706     102002.7      46.7237      46.7237      46.7237 
  136000    89.526483   -11841.844   -10947.325    930.92093     102002.7      46.7237      46.7237      46.7237 
  137000    88.361807   -11836.208   -10953.325    621.24301     102002.7      46.7237      46.7237      46.7237 
  138000    91.151988   -11822.234   -10911.473    941.54631     102002.7      46.7237      46.7237      46.7237 
  139000    90.483176   -11850.774   -10946.696    677.29431     102002.7      46.7237      46.7237      46.7237 
  140000    89.849161   -11843.302   -10945.558    993.52867     102002.7      46.7237      46.7237      46.7237 
  141000     91.38735   -11824.657   -10911.544    1051.2436     102002.7      46.7237      46.7237      46.7237 
  142000    92.649997   -11842.886   -10917.157    950.66041     102002.7      46.7237      46.7237      46.7237 
  143000    92.086435   -11833.792   -10913.694    873.04399     102002.7      46.7237      46.7237      46.7237 
  144000    89.201766   -11862.603   -10971.328    775.78245     102002.7      46.7237      46.7237      46.7237 
  145000    92.112576   -11828.951   -10908.592    860.50435     102002.7      46.7237      46.7237      46.7237 
  146000    90.532449   -11863.716   -10959.146    1092.3345     102002.7      46.7237      46.7237      46.7237 
  147000    89.887974   -11815.371    -10917.24    1087.0148     102002.7      46.7237      46.7237      46.7237 
  148000    89.559415   -11835.933   -10941.085    1065.9343     102002.7      46.7237      46.7237      46.7237 
  149000    92.399156   -11821.042    -10897.82    812.02105     102002.7      46.7237      46.7237      46.7237 
  150000    89.520203    -11822.75   -10928.294    861.29304     102002.7      46.7237      46.7237      46.7237 
  151000    91.295615    -11825.32   -10913.124    754.77166     102002.7      46.7237      46.7237      46.7237 
  152000    92.171921   -11826.186   -10905.234    639.24568     102002.7      46.7237      46.7237      46.7237 
  153000    91.476799   -11842.127    -10928.12    935.27878     102002.7      46.7237      46.7237      46.7237 
  154000    89.806232   -11834.248   -10936.933    862.86325     102002.7      46.7237      46.7237      46.7237 
  155000    90.899234    -11849.19   -10940.954    1017.2358     102002.7      46.7237      46.7237      46.7237 
  156000    89.557118   -11853.056    -10958.23    893.61307     102002.7      46.7237      46.7237      46.7237 
  157000    91.742836   -11836.112   -10919.448     1058.133     102002.7      46.7237      46.7237      46.7237 
  158000    89.147416   -11826.872    -10936.14    1105.9169     102002.7      46.7237      46.7237      46.7237 
  159000    90.331662   -11813.259   -10910.694    969.64145     102002.7      46.7237      46.7237      46.7237 
  160000    91.463068   -11849.764   -10935.895    1032.3353     102002.7      46.7237      46.7237      46.7237 
  161000    92.196398   -11835.189   -10913.992    649.00972     102002.7      46.7237      46.7237      46.7237 
  162000     90.58578   -11837.408   -10932.305     957.6096     102002.7      46.7237      46.7237      46.7237 
  163000    92.910895   -11828.596   -10900.261    974.55876     102002.7      46.7237      46.7237      46.7237 
  164000    90.435262   -11841.133   -10937.533    778.82117     102002.7      46.7237      46.7237      46.7237 
  165000    90.550412   -11855.867   -10951.116     938.0866     102002.7      46.7237      46.7237      46.7237 
  166000    91.658982   -11849.643   -10933.816     727.1241     102002.7      46.7237      46.7237      46.7237 
  167000    89.902645   -11826.186   -10927.908    609.19055     102002.7      46.7237      46.7237      46.7237 
  168000    91.283316   -11848.876   -10936.803    742.21816     102002.7      46.7237      46.7237      46.7237 
  169000     92.91963   -11836.678   -10908.255    556.66972     102002.7      46.7237      46.7237      46.7237 
  170000    91.595584   -11810.854   -10895.661      819.018     102002.7      46.7237      46.7237      46.7237 
  171000    91.147777   -11819.579    -10908.86    968.24005     102002.7      46.7237      46.7237      46.7237 
  172000    91.315807   -11844.599   -10932.201    971.26412     102002.7      46.7237      46.7237      46.7237 
  173000    92.006629   -11824.525   -10905.224    681.46678     102002.7      46.7237      46.7237      46.7237 
  174000    90.242639   -11840.827   -10939.152    849.61084     102002.7      46.7237      46.7237      46.7237 
  175000     91.68873   -11846.131   -10930.007    874.82356     102002.7      46.7237      46.7237      46.7237 
  176000    91.298698   -11822.433   -10910.206    825.11233     102002.7      46.7237      46.7237      46.7237 
  177000    90.069262   -11846.648   -10946.705    740.96954     102002.7      46.7237      46.7237      46.7237 
  178000    89.727261   -11861.136    -10964.61    610.04754     102002.7      46.7237      46.7237      46.7237 
  179000     92.26752   -11844.846   -10922.939    999.90512     102002.7      46.7237      46.7237      46.7237 
  180000    91.542967   -11849.655   -10934.987    791.60543     102002.7      46.7237      46.7237      46.7237 
  181000    91.016106   -11849.241   -10939.838    772.65653     102002.7      46.7237      46.7237      46.7237 
  182000    90.336916   -11848.974   -10946.357    669.68357     102002.7      46.7237      46.7237      46.7237 
  183000    89.453238   -11854.105   -10960.318    632.39552     102002.7      46.7237      46.7237      46.7237 
  184000    89.215403   -11828.937   -10937.526    934.32706     102002.7      46.7237      46.7237      46.7237 
  185000     90.11756   -11831.918   -10931.493    949.79359     102002.7      46.7237      46.7237      46.7237 
  186000    91.817953   -11808.496    -10891.08      830.181     102002.7      46.7237      46.7237      46.7237 
  187000    88.763633   -11846.285   -10959.388    640.71193     102002.7      46.7237      46.7237      46.7237 
  188000    90.835323   -11824.624   -10917.026     1111.089     102002.7      46.7237      46.7237      46.7237 
  189000    91.738333   -11862.739   -10946.119    590.65032     102002.7      46.7237      46.7237      46.7237 
  190000    87.002934   -11826.928   -10957.623    637.10387     102002.7      46.7237      46.7237      46.7237 
  191000    89.925404    -11837.67   -10939.164    907.21107     102002.7      46.7237      46.7237      46.7237 
  192000    90.977535    -11828.75   -10919.732    812.70557     102002.7      46.7237      46.7237      46.7237 
  193000    92.666075   -11836.862   -10910.973    1071.8299     102002.7      46.7237      46.7237      46.7237 
  194000     90.08443   -11855.377   -10955.282    1040.5042     102002.7      46.7237      46.7237      46.7237 
  195000     92.89156   -11817.117   -10888.974    773.29799     102002.7      46.7237      46.7237      46.7237 
  196000    88.815595   -11863.728   -10976.312    1045.5106     102002.7      46.7237      46.7237      46.7237 
  197000    91.135585   -11825.764   -10915.167    734.82591     102002.7      46.7237      46.7237      46.7237 
  198000    91.826654   -11833.951   -10916.448     718.2818     102002.7      46.7237      46.7237      46.7237 
  199000     89.14857   -11834.966   -10944.223    801.02609     102002.7      46.7237      46.7237      46.7237 
  200000     89.33528   -11825.921   -10933.312    721.23059     102002.7      46.7237      46.7237      46.7237 
  201000    91.972189    -11846.75   -10927.794    572.40619     102002.7      46.7237      46.7237      46.7237 
  202000    91.121408   -11839.757   -10929.302    1051.3944     102002.7      46.7237      46.7237      46.7237 
  203000    91.519081   -11854.532   -10940.103    775.14814     102002.7      46.7237      46.7237      46.7237 
  204000    91.974485   -11848.805   -10929.825    801.77192     102002.7      46.7237      46.7237      46.7237 
  205000    91.122291   -11851.329   -10940.864    597.17601     102002.7      46.7237      46.7237      46.7237 
  206000    90.747153   -11830.381   -10923.665    802.71039     102002.7      46.7237      46.7237      46.7237 
  207000    92.215259   -11848.743   -10927.359    966.11464     102002.7      46.7237      46.7237      46.7237 
  208000    92.278411   -11845.036    -10923.02    882.05429     102002.7      46.7237      46.7237      46.7237 
  209000    91.453916   -11818.692   -10904.915    872.04662     102002.7      46.7237      46.7237      46.7237 
  210000    90.114388    -11838.01   -10937.616    841.60129     102002.7      46.7237      46.7237      46.7237 
  211000    88.990085   -11838.012   -10948.852    928.14856     102002.7      46.7237      46.7237      46.7237 
  212000    92.296172   -11869.128   -10946.935    960.14983     102002.7      46.7237      46.7237      46.7237 
  213000    89.085428   -11842.933    -10952.82    842.22572     102002.7      46.7237      46.7237      46.7237 
  214000    90.774918   -11861.023    -10954.03    881.14776     102002.7      46.7237      46.7237      46.7237 
  215000    91.066762   -11833.314   -10923.404    1057.4842     102002.7      46.7237      46.7237      46.7237 
  216000    87.695829   -11859.208    -10982.98    852.67693     102002.7      46.7237      46.7237      46.7237 
  217000    90.552508   -11826.725   -10921.954    1087.3134     102002.7      46.7237      46.7237      46.7237 
  218000    91.438454   -11866.338   -10952.715    1117.5784     102002.7      46.7237      46.7237      46.7237 
  219000    91.486943   -11860.479   -10946.371    835.39947     102002.7      46.7237      46.7237      46.7237 
  220000    90.956774   -11817.073   -10908.263    983.34867     102002.7      46.7237      46.7237      46.7237 
  221000    91.613412   -11851.332    -10935.96    792.98706     102002.7      46.7237      46.7237      46.7237 
  222000    91.336963   -11863.575   -10950.965    988.32537     102002.7      46.7237      46.7237      46.7237 
  223000    91.684732    -11821.48   -10905.396    961.88782     102002.7      46.7237      46.7237      46.7237 
  224000      90.9286   -11854.321   -10945.792    826.60743     102002.7      46.7237      46.7237      46.7237 
  225000    90.950575    -11850.16   -10941.412    575.91958     102002.7      46.7237      46.7237      46.7237 
  226000    90.134952   -11828.211   -10927.612     762.5399     102002.7      46.7237      46.7237      46.7237 
  227000    90.034713   -11826.477   -10926.879    959.92707     102002.7      46.7237      46.7237      46.7237 
  228000    91.194595   -11852.723   -10941.536    1068.0032     102002.7      46.7237      46.7237      46.7237 
  229000    90.466023   -11838.136   -10934.229    717.45521     102002.7      46.7237      46.7237      46.7237 
  230000    90.938288   -11848.888   -10940.262    733.20082     102002.7      46.7237      46.7237      46.7237 
  231000    90.555554   -11832.992    -10928.19     1112.955     102002.7      46.7237      46.7237      46.7237 
  232000    93.510028   -11857.128   -10922.806    1238.6816     102002.7      46.7237      46.7237      46.7237 
  233000    89.144655   -11837.027   -10946.323    979.93075     102002.7      46.7237      46.7237      46.7237 
  234000      92.4831   -11844.024   -10919.963     873.5066     102002.7      46.7237      46.7237      46.7237 
  235000    91.176444   -11834.204   -10923.198    788.65871     102002.7      46.7237      46.7237      46.7237 
  236000    90.962228   -11829.275    -10920.41    792.48432     102002.7      46.7237      46.7237      46.7237 
  237000    91.508153   -11862.102   -10947.782    778.28184     102002.7      46.7237      46.7237      46.7237 
  238000    92.458829   -11868.164   -10944.345    829.04636     102002.7      46.7237      46.7237      46.7237 
  239000    91.417869   -11834.544   -10921.126    1062.8481     102002.7      46.7237      46.7237      46.7237 
  240000    90.672622   -11855.949   -10949.977    650.89117     102002.7      46.7237      46.7237      46.7237 
  241000    90.295923   -11839.597   -10937.389    950.24145     102002.7      46.7237      46.7237      46.7237 
  242000    90.638072   -11858.595   -10952.969    720.22006     102002.7      46.7237      46.7237      46.7237 
  243000    91.025399    -11838.75   -10929.254    774.68301     102002.7      46.7237      46.7237      46.7237 
  244000     94.54988   -11838.821   -10894.109    991.06009     102002.7      46.7237      46.7237      46.7237 
  245000    90.142637   -11837.456    -10936.78    913.14033     102002.7      46.7237      46.7237      46.7237 
  246000    91.633338   -11837.965   -10922.395    696.87567     102002.7      46.7237      46.7237      46.7237 
  247000    91.822537   -11840.253   -10922.792    778.12772     102002.7      46.7237      46.7237      46.7237 
  248000    91.265114   -11860.038   -10948.146    839.75809     102002.7      46.7237      46.7237      46.7237 
  249000    90.879719   -11843.077   -10935.036    934.47679     102002.7      46.7237      46.7237      46.7237 
  250000    91.870485    -11848.66    -10930.72    1134.4853     102002.7      46.7237      46.7237      46.7237 
  251000    89.674667   -11863.527   -10967.527     975.1207     102002.7      46.7237      46.7237      46.7237 
  252000    91.647808   -11840.994   -10925.279    1011.4613     102002.7      46.7237      46.7237      46.7237 
  253000     93.29252   -11855.121   -10922.973    879.91784     102002.7      46.7237      46.7237      46.7237 
  254000    91.050963   -11856.232    -10946.48    831.18812     102002.7      46.7237      46.7237      46.7237 
  255000    92.002594   -11843.675   -10924.415    828.22082     102002.7      46.7237      46.7237      46.7237 
  256000    91.696523   -11860.323   -10944.121    932.43768     102002.7      46.7237      46.7237      46.7237 
  257000    90.970504    -11847.86   -10938.912    965.40916     102002.7      46.7237      46.7237      46.7237 
  258000     90.96777   -11855.551   -10946.631     789.5585     102002.7      46.7237      46.7237      46.7237 
  259000     90.66288   -11846.095   -10940.221    1240.0672     102002.7      46.7237      46.7237      46.7237 
  260000    90.580177   -11860.344   -10955.297    1085.7575     102002.7      46.7237      46.7237      46.7237 
  261000    89.472815   -11831.696   -10937.713    998.62232     102002.7      46.7237      46.7237      46.7237 
  262000    91.895206   -11848.928   -10930.741    861.00276     102002.7      46.7237      46.7237      46.7237 
  263000    90.430487   -11844.425   -10940.873    821.12823     102002.7      46.7237      46.7237      46.7237 
  264000    90.581433   -11857.081   -10952.021    933.89743     102002.7      46.7237      46.7237      46.7237 
  265000    91.146534   -11854.791   -10944.084    671.50261     102002.7      46.7237      46.7237      46.7237 
  266000    92.183924   -11826.657   -10905.585     1039.511     102002.7      46.7237      46.7237      46.7237 
  267000    91.612055    -11850.14   -10934.782    962.26239     102002.7      46.7237      46.7237      46.7237 
  268000    92.304997   -11822.434   -10900.153    763.03161     102002.7      46.7237      46.7237      46.7237 
  269000     89.67276   -11839.058   -10943.077    992.70702     102002.7      46.7237      46.7237      46.7237 
  270000    92.953975   -11832.115   -10903.349    870.78665     102002.7      46.7237      46.7237      46.7237 
  271000    90.715568   -11851.811   -10945.411    941.18718     102002.7      46.7237      46.7237      46.7237 
  272000    91.248289   -11861.335   -10949.612     668.2986     102002.7      46.7237      46.7237      46.7237 
  273000    90.763244   -11846.817   -10939.941    819.09004     102002.7      46.7237      46.7237      46.7237 
  274000    89.811978   -11850.168   -10952.795    912.50485     102002.7      46.7237      46.7237      46.7237 
  275000    89.513243   -11844.225   -10949.837    881.58483     102002.7      46.7237      46.7237      46.7237 
  276000    91.263655   -11843.829   -10931.952    856.60916     102002.7      46.7237      46.7237      46.7237 
  277000    90.093551   -11840.353   -10940.168     744.0159     102002.7      46.7237      46.7237      46.7237 
  278000    91.745201   -11845.953   -10929.265    837.28236     102002.7      46.7237      46.7237      46.7237 
  279000    92.415855   -11842.624   -10919.235    885.32634     102002.7      46.7237      46.7237      46.7237 
  280000       87.978   -11842.008    -10962.96    868.70424     102002.7      46.7237      46.7237      46.7237 
  281000    91.903012   -11847.655    -10929.39    782.07241     102002.7      46.7237      46.7237      46.7237 
  282000    89.304474   -11836.537   -10944.236    939.04554     102002.7      46.7237      46.7237      46.7237 
  283000     91.11801   -11834.112    -10923.69    1259.8843     102002.7      46.7237      46.7237      46.7237 
  284000    90.429713   -11848.591   -10945.047    989.40702     102002.7      46.7237      46.7237      46.7237 
  285000    89.663665   -11850.013   -10954.122    956.90145     102002.7      46.7237      46.7237      46.7237 
  286000    90.113126   -11836.557   -10936.176    880.63169     102002.7      46.7237      46.7237      46.7237 
  287000    93.231955   -11846.405   -10914.862    1066.2455     102002.7      46.7237      46.7237      46.7237 
  288000    90.588211   -11843.239   -10938.111    754.82202     102002.7      46.7237      46.7237      46.7237 
  289000    92.865526   -11844.165   -10916.283    1061.1342     102002.7      46.7237      46.7237      46.7237 
  290000     90.42617    -11854.81   -10951.301    858.77099     102002.7      46.7237      46.7237      46.7237 
  291000    89.040149   -11847.923   -10958.263    1026.8107     102002.7      46.7237      46.7237      46.7237 
  292000    90.253556   -11836.329   -10934.545    880.35193     102002.7      46.7237      46.7237      46.7237 
  293000    90.346009   -11877.484   -10974.776     978.6449     102002.7      46.7237      46.7237      46.7237 
  294000    91.251047    -11839.14   -10927.389    1129.9352     102002.7      46.7237      46.7237      46.7237 
  295000    90.036276   -11858.868   -10959.255    1157.3693     102002.7      46.7237      46.7237      46.7237 
  296000    92.045013   -11849.879   -10930.196     766.2038     102002.7      46.7237      46.7237      46.7237 
  297000     89.23927   -11838.093   -10946.443    1130.6654     102002.7      46.7237      46.7237      46.7237 
  298000    90.743926   -11828.137   -10921.454    983.60629     102002.7      46.7237      46.7237      46.7237 
  299000     92.93952    -11835.93   -10907.309    723.55914     102002.7      46.7237      46.7237      46.7237 
  300000    92.833512   -11847.014   -10919.452    882.41032     102002.7      46.7237      46.7237      46.7237 
  301000     91.32922   -11833.712    -10921.18    878.55855     102002.7      46.7237      46.7237      46.7237 
  302000    90.210501   -11845.759   -10944.405    943.44621     102002.7      46.7237      46.7237      46.7237 
  303000    91.739743   -11825.594   -10908.961    1100.1457     102002.7      46.7237      46.7237      46.7237 
  304000     90.30742   -11833.735   -10931.412    835.94258     102002.7      46.7237      46.7237      46.7237 
  305000    92.131427   -11854.269   -10933.721    616.63729     102002.7      46.7237      46.7237      46.7237 
  306000    91.287481   -11842.879   -10930.764    935.02637     102002.7      46.7237      46.7237      46.7237 
  307000    89.753578   -11857.855   -10961.066    949.24318     102002.7      46.7237      46.7237      46.7237 
  308000    93.050606   -11824.402   -10894.671    922.59568     102002.7      46.7237      46.7237      46.7237 
  309000    89.058895    -11821.76   -10931.912    972.28217     102002.7      46.7237      46.7237      46.7237 
  310000    90.446309    -11871.41     -10967.7     697.8669     102002.7      46.7237      46.7237      46.7237 
  311000    91.099301   -11821.309   -10911.074    518.13192     102002.7      46.7237      46.7237      46.7237 
  312000    91.492556   -11830.339   -10916.175    897.85265     102002.7      46.7237      46.7237      46.7237 
  313000    90.104519   -11824.388   -10924.093    743.21634     102002.7      46.7237      46.7237      46.7237 
  314000    89.933667   -11836.442   -10937.854    767.15644     102002.7      46.7237      46.7237      46.7237 
  315000    92.818323   -11842.947   -10915.537    992.43152     102002.7      46.7237      46.7237      46.7237 
  316000    89.765755   -11854.502   -10957.592    939.27181     102002.7      46.7237      46.7237      46.7237 
  317000    90.745643   -11850.083   -10943.382    876.01804     102002.7      46.7237      46.7237      46.7237 
  318000    91.145513   -11824.114   -10913.418     1021.201     102002.7      46.7237      46.7237      46.7237 
  319000    89.843526   -11851.978    -10954.29    1030.8881     102002.7      46.7237      46.7237      46.7237 
  320000    90.579157   -11845.796   -10940.759    1273.5208     102002.7      46.7237      46.7237      46.7237 
  321000    91.123029   -11849.336   -10938.864    819.41919     102002.7      46.7237      46.7237      46.7237 
  322000    89.154221    -11831.27    -10940.47    748.86951     102002.7      46.7237      46.7237      46.7237 
  323000    89.829792   -11839.123   -10941.573    1102.4952     102002.7      46.7237      46.7237      46.7237 
  324000    91.340942   -11872.816   -10960.167    650.97375     102002.7      46.7237      46.7237      46.7237 
  325000    92.555476   -11863.325   -10938.541    565.31311     102002.7      46.7237      46.7237      46.7237 
  326000     90.95751   -11836.133   -10927.315    1089.9168     102002.7      46.7237      46.7237      46.7237 
  327000    88.862059   -11852.553   -10964.672    837.64731     102002.7      46.7237      46.7237      46.7237 
  328000    92.979183   -11861.176   -10932.159    860.09686     102002.7      46.7237      46.7237      46.7237 
  329000    91.742118   -11850.274   -10933.617    774.78729     102002.7      46.7237      46.7237      46.7237 
  330000    89.398577     -11832.9   -10939.658     727.2913     102002.7      46.7237      46.7237      46.7237 
  331000    91.087233   -11851.716   -10941.602    1023.5714     102002.7      46.7237      46.7237      46.7237 
  332000    89.538528   -11835.886   -10941.246    916.20233     102002.7      46.7237      46.7237      46.7237 
  333000    89.598554   -11852.324   -10957.085    834.06948     102002.7      46.7237      46.7237      46.7237 
  334000    90.513588    -11834.17   -10929.788    1058.9483     102002.7      46.7237      46.7237      46.7237 
  335000    91.300886   -11851.353   -10939.104    888.63133     102002.7      46.7237      46.7237      46.7237 
  336000    89.688679   -11847.631   -10951.491    691.66841     102002.7      46.7237      46.7237      46.7237 
  337000    90.976624   -11818.199    -10909.19    999.82475     102002.7      46.7237      46.7237      46.7237 
  338000    91.187213   -11861.084   -10949.971    854.00123     102002.7      46.7237      46.7237      46.7237 
  339000    90.769748   -11831.322   -10924.381     778.4073     102002.7      46.7237      46.7237      46.7237 
  340000    89.821008   -11862.337   -10964.875    809.12541     102002.7      46.7237      46.7237      46.7237 
  341000    90.402098   -11845.028   -10941.759    769.78342     102002.7      46.7237      46.7237      46.7237 
  342000    92.352309   -11855.347   -10932.592    813.20335     102002.7      46.7237      46.7237      46.7237 
  343000    91.975283    -11829.05   -10910.063    942.56004     102002.7      46.7237      46.7237      46.7237 
  344000    90.267152   -11842.081   -10940.161    735.62877     102002.7      46.7237      46.7237      46.7237 
  345000    88.965204   -11849.149   -10960.238    1100.5459     102002.7      46.7237      46.7237      46.7237 
  346000    93.411608   -11860.942   -10927.604    1117.2714     102002.7      46.7237      46.7237      46.7237 
  347000    90.891623    -11847.44    -10939.28    586.65521     102002.7      46.7237      46.7237      46.7237 
  348000    89.397934   -11847.667   -10954.432    638.05708     102002.7      46.7237      46.7237      46.7237 
  349000    90.657175   -11849.121   -10943.304    695.84847     102002.7      46.7237      46.7237      46.7237 
  350000    89.766507    -11839.37   -10942.452    801.72181     102002.7      46.7237      46.7237      46.7237 
  351000    91.626501   -11853.267   -10937.764     769.9382     102002.7      46.7237      46.7237      46.7237 
  352000    89.652692   -11849.119   -10953.339    761.71107     102002.7      46.7237      46.7237      46.7237 
  353000    88.633785   -11859.019   -10973.419    943.83271     102002.7      46.7237      46.7237      46.7237 
  354000    89.428548   -11838.875   -10945.334    805.30251     102002.7      46.7237      46.7237      46.7237 
  355000    93.113233   -11857.127    -10926.77    815.64427     102002.7      46.7237      46.7237      46.7237 
  356000    89.518642   -11857.823   -10963.382    950.00596     102002.7      46.7237      46.7237      46.7237 
  357000    90.984447   -11861.861   -10952.774    949.50285     102002.7      46.7237      46.7237      46.7237 
  358000    93.335448   -11845.357   -10912.779    774.27675     102002.7      46.7237      46.7237      46.7237 
  359000    90.964198   -11852.201   -10943.316    828.13773     102002.7      46.7237      46.7237      46.7237 
  360000    91.280166   -11856.274   -10944.232    770.98912     102002.7      46.7237      46.7237      46.7237 
  361000    92.083366   -11844.086   -10924.019    647.97085     102002.7      46.7237      46.7237      46.7237 
  362000    88.856687   -11860.804   -10972.976    633.47536     102002.7      46.7237      46.7237      46.7237 
  363000    93.120973   -11858.571   -10928.137    725.43035     102002.7      46.7237      46.7237      46.7237 
  364000    91.369282    -11848.21   -10935.278    783.69757     102002.7      46.7237      46.7237      46.7237 
  365000    90.004524   -11841.794   -10942.498    905.17456     102002.7      46.7237      46.7237      46.7237 
  366000    92.250933   -11843.639   -10921.898    906.82886     102002.7      46.7237      46.7237      46.7237 
  367000    91.655237   -11833.988   -10918.199    823.41272     102002.7      46.7237      46.7237      46.7237 
  368000    91.797799   -11849.665   -10932.451    670.61516     102002.7      46.7237      46.7237      46.7237 
  369000    90.891314   -11868.823   -10960.667    719.11332     102002.7      46.7237      46.7237      46.7237 
  370000    90.904059   -11847.624    -10939.34    508.72225     102002.7      46.7237      46.7237      46.7237 
  371000     90.94115   -11849.099   -10940.444    846.16876     102002.7      46.7237      46.7237      46.7237 
  372000    89.081902   -11856.723   -10966.646    764.81183     102002.7      46.7237      46.7237      46.7237 
  373000    89.311302   -11836.214   -10943.844    757.23329     102002.7      46.7237      46.7237      46.7237 
  374000    90.223248   -11867.817   -10966.336    824.53011     102002.7      46.7237      46.7237      46.7237 
  375000    91.209969   -11867.899   -10956.559    932.91186     102002.7      46.7237      46.7237      46.7237 
  376000    89.644084   -11863.936   -10968.241    901.55021     102002.7      46.7237      46.7237      46.7237 
  377000    90.831247   -11867.732   -10960.175    943.50285     102002.7      46.7237      46.7237      46.7237 
  378000    90.501994   -11824.995   -10920.728    880.44183     102002.7      46.7237      46.7237      46.7237 
  379000    90.980363   -11846.338   -10937.292    930.28456     102002.7      46.7237      46.7237      46.7237 
  380000    89.736595   -11863.834   -10967.215    742.05137     102002.7      46.7237      46.7237      46.7237 
  381000    90.270614    -11836.32   -10934.365    776.45402     102002.7      46.7237      46.7237      46.7237 
  382000    89.654681    -11850.01   -10954.209    655.40928     102002.7      46.7237      46.7237      46.7237 
  383000    91.860823   -11840.964    -10923.12     1089.597     102002.7      46.7237      46.7237      46.7237 
  384000    90.636908   -11872.237   -10966.622    668.67435     102002.7      46.7237      46.7237      46.7237 
  385000    91.166075   -11866.858   -10955.957    817.80121     102002.7      46.7237      46.7237      46.7237 
  386000    90.541617   -11863.134   -10958.471    826.61614     102002.7      46.7237      46.7237      46.7237 
  387000     92.07052   -11860.483   -10940.545     633.4822     102002.7      46.7237      46.7237      46.7237 
  388000    92.372248   -11835.736   -10912.783    897.17818     102002.7      46.7237      46.7237      46.7237 
  389000    90.552829    -11861.17   -10956.395    797.25171     102002.7      46.7237      46.7237      46.7237 
  390000    91.993819   -11854.852    -10935.68    877.91431     102002.7      46.7237      46.7237      46.7237 
  391000    94.224953   -11853.281   -10911.816    1179.9071     102002.7      46.7237      46.7237      46.7237 
  392000    90.439717   -11860.454    -10956.81    1003.0838     102002.7      46.7237      46.7237      46.7237 
  393000    90.167605   -11852.842   -10951.917    748.32438     102002.7      46.7237      46.7237      46.7237 
  394000    90.856014    -11836.15   -10928.346    1193.9955     102002.7      46.7237      46.7237      46.7237 
  395000    93.786208   -11849.758   -10912.677    900.23812     102002.7      46.7237      46.7237      46.7237 
  396000    92.304466   -11860.897   -10938.621    757.79227     102002.7      46.7237      46.7237      46.7237 
  397000    91.023952   -11854.544   -10945.062    1041.7586     102002.7      46.7237      46.7237      46.7237 
  398000    94.537757    -11858.87   -10914.279    793.90965     102002.7      46.7237      46.7237      46.7237 
  399000    92.745285   -11885.002   -10958.321    835.16722     102002.7      46.7237      46.7237      46.7237 
  400000    92.247288   -11842.254   -10920.549    1063.9643     102002.7      46.7237      46.7237      46.7237 
  401000    91.246293   -11858.722   -10947.019    631.41784     102002.7      46.7237      46.7237      46.7237 
  402000    91.869756   -11839.861   -10921.928    777.44689     102002.7      46.7237      46.7237      46.7237 
  403000    91.251142   -11849.524   -10937.773    862.63222     102002.7      46.7237      46.7237      46.7237 
  404000    92.318612    -11853.53   -10931.113    809.86145     102002.7      46.7237      46.7237      46.7237 
  405000     92.84039   -11841.283   -10913.652    902.55626     102002.7      46.7237      46.7237      46.7237 
  406000    93.298082    -11845.19   -10912.986    883.87575     102002.7      46.7237      46.7237      46.7237 
  407000    90.873856   -11838.798   -10930.816    897.70215     102002.7      46.7237      46.7237      46.7237 
  408000    90.316506   -11869.946   -10967.532    789.79767     102002.7      46.7237      46.7237      46.7237 
  409000    91.294017   -11869.435   -10957.255    1099.0161     102002.7      46.7237      46.7237      46.7237 
  410000     93.49473   -11843.733   -10909.564    1319.8227     102002.7      46.7237      46.7237      46.7237 
  411000     89.62458   -11840.591   -10945.091     788.9247     102002.7      46.7237      46.7237      46.7237 
  412000    90.912463   -11842.163   -10933.795    858.00668     102002.7      46.7237      46.7237      46.7237 
  413000    90.395775    -11856.85   -10953.645    1026.3516     102002.7      46.7237      46.7237      46.7237 
  414000    92.137428   -11841.958   -10921.351    668.08112     102002.7      46.7237      46.7237      46.7237 
  415000    91.647982   -11852.359   -10936.642    854.98821     102002.7      46.7237      46.7237      46.7237 
  416000    91.648401   -11855.417   -10939.696    1015.2427     102002.7      46.7237      46.7237      46.7237 
  417000    90.883563   -11850.665   -10942.586     785.4444     102002.7      46.7237      46.7237      46.7237 
  418000    90.998702   -11842.476   -10933.246    803.30571     102002.7      46.7237      46.7237      46.7237 
  419000    90.279563   -11827.431   -10925.387    1167.7112     102002.7      46.7237      46.7237      46.7237 
  420000    93.392913   -11852.851   -10919.699    1060.6102     102002.7      46.7237      46.7237      46.7237 
  421000    90.809262   -11855.604   -10948.267    833.04141     102002.7      46.7237      46.7237      46.7237 
  422000    92.470371    -11832.08   -10908.146    876.72276     102002.7      46.7237      46.7237      46.7237 
  423000    90.161313   -11855.065   -10954.202    1042.3837     102002.7      46.7237      46.7237      46.7237 
  424000    89.106422   -11842.394   -10952.071    784.00737     102002.7      46.7237      46.7237      46.7237 
  425000     89.69235    -11837.82   -10941.643    929.92318     102002.7      46.7237      46.7237      46.7237 
  426000    91.594324   -11843.457   -10928.276    839.34208     102002.7      46.7237      46.7237      46.7237 
  427000    90.002328   -11861.283   -10962.009    866.17511     102002.7      46.7237      46.7237      46.7237 
  428000    90.770171   -11857.666    -10950.72     1152.283     102002.7      46.7237      46.7237      46.7237 
  429000    93.489277   -11838.744    -10904.63    924.78834     102002.7      46.7237      46.7237      46.7237 
  430000    90.067485   -11850.778   -10950.853    699.19333     102002.7      46.7237      46.7237      46.7237 
  431000    89.511571   -11849.655   -10955.284    935.85916     102002.7      46.7237      46.7237      46.7237 
  432000    90.801965   -11840.963   -10933.699    771.14581     102002.7      46.7237      46.7237      46.7237 
  433000    93.098557   -11836.115   -10905.904    841.07376     102002.7      46.7237      46.7237      46.7237 
  434000    90.146148   -11845.362   -10944.651    871.56959     102002.7      46.7237      46.7237      46.7237 
  435000    89.443624   -11828.939   -10935.247    810.10049     102002.7      46.7237      46.7237      46.7237 
  436000    91.014742     -11860.6    -10951.21    922.21316     102002.7      46.7237      46.7237      46.7237 
  437000    89.549622   -11850.839   -10956.088    839.61396     102002.7      46.7237      46.7237      46.7237 
  438000    92.733625   -11839.997   -10913.432    482.48337     102002.7      46.7237      46.7237      46.7237 
  439000    90.700381   -11822.127   -10915.879    798.65189     102002.7      46.7237      46.7237      46.7237 
  440000     91.64627   -11862.686   -10946.986    869.82385     102002.7      46.7237      46.7237      46.7237 
  441000    89.337617    -11833.03   -10940.398    757.42472     102002.7      46.7237      46.7237      46.7237 
  442000    90.650153   -11865.452   -10959.705    959.78389     102002.7      46.7237      46.7237      46.7237 
  443000    90.336491   -11874.166   -10971.554    1039.3028     102002.7      46.7237      46.7237      46.7237 
  444000    91.031606   -11818.813   -10909.254    1015.9774     102002.7      46.7237      46.7237      46.7237 
  445000    92.624229   -11875.276   -10949.805    907.64664     102002.7      46.7237      46.7237      46.7237 
  446000    89.808831   -11854.312   -10956.971    900.59249     102002.7      46.7237      46.7237      46.7237 
  447000    89.824733   -11837.273   -10939.774     929.7813     102002.7      46.7237      46.7237      46.7237 
  448000    93.816943   -11837.046   -10899.657    1208.3836     102002.7      46.7237      46.7237      46.7237 
  449000    93.160357   -11841.933   -10911.105    892.66019     102002.7      46.7237      46.7237      46.7237 
  450000    91.388008   -11845.218   -10932.099    930.40776     102002.7      46.7237      46.7237      46.7237 
  451000    91.190351    -11836.56   -10925.415    1194.8001     102002.7      46.7237      46.7237      46.7237 
  452000    90.223905   -11842.456   -10940.968    861.90468     102002.7      46.7237      46.7237      46.7237 
  453000    90.818547   -11821.056   -10913.627    818.47312     102002.7      46.7237      46.7237      46.7237 
  454000    90.496793   -11863.874    -10959.66    924.80392     102002.7      46.7237      46.7237      46.7237 
  455000    92.143849   -11842.743   -10922.072    847.90953     102002.7      46.7237      46.7237      46.7237 
  456000    90.494788   -11838.267   -10934.073    894.60243     102002.7      46.7237      46.7237      46.7237 
  457000    90.530565   -11837.518   -10932.966    915.39873     102002.7      46.7237      46.7237      46.7237 
  458000     91.60155   -11828.992   -10913.739    755.69178     102002.7      46.7237      46.7237      46.7237 
  459000    91.551388   -11818.793   -10904.041    1004.7753     102002.7      46.7237      46.7237      46.7237 
  460000    91.153599   -11850.113   -10939.336    1105.2107     102002.7      46.7237      46.7237      46.7237 
  461000    91.739435   -11838.349   -10921.718    1166.9433     102002.7      46.7237      46.7237      46.7237 
  462000    88.483061   -11837.005   -10952.911    925.77301     102002.7      46.7237      46.7237      46.7237 
  463000     87.19567   -11837.845   -10966.614    893.13463     102002.7      46.7237      46.7237      46.7237 
  464000    89.619851   -11837.739   -10942.287    1031.3168     102002.7      46.7237      46.7237      46.7237 
  465000     93.27144    -11878.86   -10946.922    782.74287     102002.7      46.7237      46.7237      46.7237 
  466000    94.340117    -11810.73   -10868.114    964.24808     102002.7      46.7237      46.7237      46.7237 
  467000    92.357038    -11851.19   -10928.389    802.96898     102002.7      46.7237      46.7237      46.7237 
  468000    92.323094   -11849.816   -10927.354    876.86967     102002.7      46.7237      46.7237      46.7237 
  469000    91.984385   -11849.509   -10930.431    1026.9093     102002.7      46.7237      46.7237      46.7237 
  470000    92.990293   -11823.814   -10894.685    892.43066     102002.7      46.7237      46.7237      46.7237 
  471000    89.376108   -11840.496   -10947.479    1069.1504     102002.7      46.7237      46.7237      46.7237 
  472000    87.921565   -11850.746   -10972.262    952.83694     102002.7      46.7237      46.7237      46.7237 
  473000    89.373017   -11844.845   -10951.859    1000.9004     102002.7      46.7237      46.7237      46.7237 
  474000    89.492422   -11852.922   -10958.743    869.36862     102002.7      46.7237      46.7237      46.7237 
  475000    89.252117   -11857.494   -10965.716    751.82563     102002.7      46.7237      46.7237      46.7237 
  476000    91.435818   -11837.181   -10923.584     867.3365     102002.7      46.7237      46.7237      46.7237 
  477000    91.958653   -11863.368   -10944.547    807.94893     102002.7      46.7237      46.7237      46.7237 
  478000    90.235562   -11843.152   -10941.548      1105.06     102002.7      46.7237      46.7237      46.7237 
  479000    90.523778   -11851.188   -10946.704    924.34866     102002.7      46.7237      46.7237      46.7237 
  480000    89.801739   -11866.079    -10968.81    961.84778     102002.7      46.7237      46.7237      46.7237 
  481000    90.406934   -11846.964   -10943.647    979.43866     102002.7      46.7237      46.7237      46.7237 
  482000    88.897227   -11867.057   -10978.825    981.84748     102002.7      46.7237      46.7237      46.7237 
  483000    90.306592   -11848.526   -10946.212    1008.2526     102002.7      46.7237      46.7237      46.7237 
  484000    88.572307   -11833.721   -10948.736    790.74068     102002.7      46.7237      46.7237      46.7237 
  485000    91.066155   -11852.746   -10942.843    980.44475     102002.7      46.7237      46.7237      46.7237 
  486000    89.285991   -11846.913   -10954.796    1049.5434     102002.7      46.7237      46.7237      46.7237 
  487000    91.593821   -11862.084   -10946.908    1002.7377     102002.7      46.7237      46.7237      46.7237 
  488000    90.457844   -11830.552   -10926.727     1031.022     102002.7      46.7237      46.7237      46.7237 
  489000    90.526219   -11832.405   -10927.896    842.07538     102002.7      46.7237      46.7237      46.7237 
  490000    90.677324   -11860.145   -10954.126    981.11342     102002.7      46.7237      46.7237      46.7237 
  491000    91.351719   -11863.257   -10950.501    818.91128     102002.7      46.7237      46.7237      46.7237 
  492000    88.837456   -11853.118   -10965.483    891.72041     102002.7      46.7237      46.7237      46.7237 
  493000    92.628382   -11851.784   -10926.271    1049.8564     102002.7      46.7237      46.7237      46.7237 
  494000    92.119052   -11859.495   -10939.071    1041.0429     102002.7      46.7237      46.7237      46.7237 
  495000    90.332583   -11867.001   -10964.427    831.25151     102002.7      46.7237      46.7237      46.7237 
  496000    89.741691   -11832.115   -10935.446    1034.2671     102002.7      46.7237      46.7237      46.7237 
  497000    90.685937   -11840.494   -10934.389    867.46096     102002.7      46.7237      46.7237      46.7237 
  498000    92.124407   -11821.561   -10901.083    862.96602     102002.7      46.7237      46.7237      46.7237 
  499000    91.489905   -11843.371   -10929.233    1006.8783     102002.7      46.7237      46.7237      46.7237 
  500000    87.480171    -11843.99   -10969.917    1012.7322     102002.7      46.7237      46.7237      46.7237 
  500500    90.314563   -11861.439   -10959.045    867.54711     102002.7      46.7237      46.7237      46.7237 
Loop time of 2015.95 on 16 procs for 500000 steps with 3353 atoms

Performance: 21.429 ns/day, 1.120 hours/ns, 248.022 timesteps/s
99.8% CPU use with 16 MPI tasks x no OpenMP threads

MPI task timing breakdown:
Section |  min time  |  avg time  |  max time  |%varavg| %total
---------------------------------------------------------------
Pair    | 842.27     | 1229.8     | 1578.1     | 604.9 | 61.00
Bond    | 126.2      | 174.76     | 222.24     | 210.7 |  8.67
Neigh   | 15.453     | 15.472     | 15.492     |   0.3 |  0.77
Comm    | 210.02     | 577.84     | 1014.9     | 977.3 | 28.66
Output  | 0.021666   | 0.022292   | 0.02665    |   0.8 |  0.00
Modify  | 9.5757     | 11.004     | 13.006     |  34.9 |  0.55
Other   |            | 7.027      |            |       |  0.35

Nlocal:    209.562 ave 244 max 171 min
Histogram: 2 2 2 0 0 0 4 3 2 1
Nghost:    4222.81 ave 4274 max 4184 min
Histogram: 4 0 1 3 1 3 0 1 1 2
Neighs:    11467.2 ave 18177 max 5350 min
Histogram: 3 1 0 2 3 1 1 2 2 1

Total # of neighbors = 183475
Ave neighs/atom = 54.7197
Ave special neighs/atom = 3.43573
Neighbor list builds = 4045
Dangerous builds = 0
Neighbor list info ...
  update every 1 steps, delay 10 steps, check yes
  max neighbors/atom: 2000, page size: 100000
  master list distance cutoff = 16
  ghost atom cutoff = 16
  binsize = 8, bins = 6 6 6
  3 neighbor lists, perpetual/occasional/extra = 3 0 0
  (1) pair buck6d/coul/gauss/dsf, perpetual, skip from (3)
      attributes: half, newton on
      pair build: skip
      stencil: none
      bin: none
  (2) pair lj/cut, perpetual, skip from (3)
      attributes: half, newton on
      pair build: skip
      stencil: none
      bin: none
  (3) neighbor class addition, perpetual
      attributes: half, newton on
      pair build: half/bin/newton
      stencil: half/bin/3d/newton
      bin: standard
Setting up Verlet run ...
  Unit style    : real
  Current step  : 500500
  Time step     : 1
WARNING: Inconsistent image flags (../domain.cpp:786)
Per MPI rank memory allocation (min/avg/max) = 22.67 | 23.18 | 23.45 Mbytes
Step Time TotEng KinEng PotEng E_mol E_pair Temp Pxx Pyy Pzz Pxy Pxz Pyz Cella Cellb Cellc CellAlpha CellBeta CellGamma Volume Press 
  500500       500000   -10959.045    902.39379   -11861.439    4163.2082   -16024.647    90.314563    914.14807    838.88777    849.60548    14.273498   -11.940821     199.9786      46.7237      46.7237      46.7237           90           90           90     102002.7    867.54711 
  501000       500500   -10946.647     895.4943   -11842.141    4152.7244   -15994.866    89.624039    1021.6636    605.02165    1078.6536   -165.14879     19.33833   -54.042888      46.7237      46.7237      46.7237           90           90           90     102002.7    901.77962 
  502000       501500   -10918.895    907.58368   -11826.479    4148.8705   -15975.349    90.833985    521.61299    1212.8339    673.21529    37.295425   -332.79229   -12.238421      46.7237      46.7237      46.7237           90           90           90     102002.7    802.55406 
  503000       502500   -10929.887    894.26781   -11824.155     4175.358   -15999.513    89.501288    1326.2092    874.52019    970.50772    1.0300085    159.04926   -139.39935      46.7237      46.7237      46.7237           90           90           90     102002.7     1057.079 
  504000       503500   -10935.211    894.75238   -11829.963    4166.2815   -15996.245    89.549786    879.54903    633.11799    648.98073    226.56326    101.85569    35.207627      46.7237      46.7237      46.7237           90           90           90     102002.7    720.54925 
  505000       504500    -10908.99    909.75639   -11818.746    4191.1612   -16009.908    91.051437    943.81184    668.99518    956.50812    138.78992    272.45722    53.469671      46.7237      46.7237      46.7237           90           90           90     102002.7    856.43838 
  506000       505500   -10917.941     912.0695    -11830.01    4175.7814   -16005.792     91.28294    874.07272     1120.851    826.10036   -65.284659     18.63217    41.938976      46.7237      46.7237      46.7237           90           90           90     102002.7    940.34135 
  507000       506500   -10944.213    919.53277   -11863.745    4153.2638   -16017.009    92.029889    710.56253    851.29596    1042.2465   -90.192544    -99.50372   -115.85451      46.7237      46.7237      46.7237           90           90           90     102002.7    868.03501 
  508000       507500   -10898.938    931.54049   -11830.479    4183.2483   -16013.727    93.231662    723.45279     888.7256    1122.9213    24.099477   -38.643879   -194.91692      46.7237      46.7237      46.7237           90           90           90     102002.7    911.69991 
  509000       508500   -10934.976    910.38062   -11845.357    4171.5316   -16016.889    91.113912    612.62595    796.90519     923.3063     161.9603    246.89784   -94.495467      46.7237      46.7237      46.7237           90           90           90     102002.7    777.61248 
  510000       509500   -10953.473    910.74725   -11864.221    4163.3649   -16027.586    91.150606    760.88267    1040.1992    809.44431   -40.614236    80.922759    184.08004      46.7237      46.7237      46.7237           90           90           90     102002.7     870.1754 
  511000       510500   -10949.271    912.59373   -11861.865    4176.8128   -16038.678    91.335407    325.42114    415.91977    846.02665    211.52457    113.58987   -169.13812      46.7237      46.7237      46.7237           90           90           90     102002.7    529.12252 
  512000       511500   -10933.779     908.9455   -11842.725    4164.6853    -16007.41    90.970281    1072.4081    719.58024    998.83391    90.504988    70.338585    2.5857072      46.7237      46.7237      46.7237           90           90           90     102002.7    930.27408 
  513000       512500    -10922.39    913.15135   -11835.542    4173.0928   -16008.634    91.391215    1226.5385    839.50855    895.34693    192.46969   -29.446845   -87.688896      46.7237      46.7237      46.7237           90           90           90     102002.7    987.13131 
  514000       513500   -10941.507    903.01758   -11844.525    4162.6975   -16007.222    90.376995    809.78205     453.7528    669.29892    99.262203   -76.918345     -69.5161      46.7237      46.7237      46.7237           90           90           90     102002.7    644.27792 
  515000       514500   -10935.727     917.2683   -11852.996    4172.7177   -16025.714    91.803253    771.90341    897.17559    793.09232    141.84145    133.32077   -1.2116486      46.7237      46.7237      46.7237           90           90           90     102002.7    820.72377 
  516000       515500    -10918.01    922.31955    -11840.33     4181.025   -16021.355    92.308799    496.86259    955.54356    614.98068   -125.88091   -1.5792963   -74.420965      46.7237      46.7237      46.7237           90           90           90     102002.7    689.12894 
  517000       516500   -10935.811    899.45325   -11835.265    4184.8029   -16020.067    90.020264    618.25079     512.2912    904.94457     162.7398    34.779913    100.67304      46.7237      46.7237      46.7237           90           90           90     102002.7    678.49552 
  518000       517500   -10954.233    908.49182   -11862.724    4166.0106   -16028.735    90.924875     1115.683    1035.1432      734.225    237.88949    128.31063   -166.28017      46.7237      46.7237      46.7237           90           90           90     102002.7    961.68375 
  519000       518500   -10908.654    928.85491   -11837.509    4172.9596   -16010.468     92.96288    869.51199    427.07865    633.67614    300.01525    169.05859   -160.13242      46.7237      46.7237      46.7237           90           90           90     102002.7    643.42226 
  520000       519500   -10928.201    919.16891    -11847.37    4160.4898    -16007.86    91.993473    1097.9868    615.17226    704.04242   -12.166766   -97.604567    40.065327      46.7237      46.7237      46.7237           90           90           90     102002.7    805.73381 
  521000       520500   -10948.017    907.06089   -11855.078    4161.5137   -16016.591    90.781663    1250.6139    912.39658    684.64704   -239.59842    139.81834    48.851862      46.7237      46.7237      46.7237           90           90           90     102002.7    949.21917 
  522000       521500   -10943.011    901.85878    -11844.87    4163.8481   -16008.718    90.261018    1035.0715    981.21846    814.97394    143.05778   -197.77154    211.41636      46.7237      46.7237      46.7237           90           90           90     102002.7    943.75462 
  523000       522500   -10923.989    923.29322   -11847.283     4178.751   -16026.034    92.406248    943.36513     987.3508    767.11695   -92.179157     302.3802    87.263785      46.7237      46.7237      46.7237           90           90           90     102002.7    899.27763 
  524000       523500   -10957.517    896.17918   -11853.697    4168.4571   -16022.154    89.692584    774.25175    819.06352     963.2409    132.52647   -9.1863876    224.91828      46.7237      46.7237      46.7237           90           90           90     102002.7    852.18539 
  525000       524500    -10945.61    907.29063   -11852.901    4173.8154   -16026.716    90.804655    1001.5858    708.07029    980.84463    89.071395    93.594297    62.262648      46.7237      46.7237      46.7237           90           90           90     102002.7    896.83358 
  526000       525500   -10923.988    917.83288   -11841.821    4171.0837   -16012.905    91.859759    1312.4172    924.15684    1049.6229   -73.645876   -100.75287  -0.77960114      46.7237      46.7237      46.7237           90           90           90     102002.7     1095.399 
  527000       526500   -10926.566    903.23007   -11829.796    4173.0808   -16002.877    90.398261    666.32806    704.84698    822.40486   -82.069125   -27.652144    88.429735      46.7237      46.7237      46.7237           90           90           90     102002.7     731.1933 
  528000       527500   -10942.945    894.03102   -11836.976    4167.2225   -16004.199     89.47759    810.24671     868.8844    879.74653   -20.511723   -106.86457    82.079944      46.7237      46.7237      46.7237           90           90           90     102002.7    852.95921 
  529000       528500   -10962.242    916.32061   -11878.562    4148.0352   -16026.598    91.708406    975.71122    769.21737     827.7095     140.3139    43.979274    151.00089      46.7237      46.7237      46.7237           90           90           90     102002.7    857.54603 
  530000       529500    -10951.67    908.44564   -11860.116    4159.7862   -16019.902    90.920253    825.79007    755.28017    1123.0658    36.299752    194.80751   -64.533224      46.7237      46.7237      46.7237           90           90           90     102002.7    901.37867 
  531000       530500   -10942.567    917.39466   -11859.962    4161.5741   -16021.536      91.8159    811.54421    1191.9872    606.86339    33.074462    261.11724   -65.361049      46.7237      46.7237      46.7237           90           90           90     102002.7    870.13161 
  532000       531500   -10944.282    899.10999   -11843.392    4183.5864   -16026.978     89.98591    1073.3383    543.57511    524.92288   -189.11062    59.834372   -65.589156      46.7237      46.7237      46.7237           90           90           90     102002.7    713.94542 
  533000       532500   -10915.792    912.61591   -11828.408    4170.6639   -15999.072    91.337627    932.95897      1231.22    1150.6704   -89.077334   -72.463449    -205.9846      46.7237      46.7237      46.7237           90           90           90     102002.7    1104.9498 
  534000       533500   -10910.544    917.65891   -11828.203     4163.025   -15991.228    91.842347    1438.5165    815.58074    1277.1631     126.1273     389.3652   -58.044335      46.7237      46.7237      46.7237           90           90           90     102002.7    1177.0868 
  535000       534500   -10943.658    906.98426   -11850.643    4178.6135   -16029.256    90.773993    730.28175    659.55044    981.74543    66.015016   -10.296478   -150.53792      46.7237      46.7237      46.7237           90           90           90     102002.7    790.52587 
  536000       535500   -10940.404    909.33025   -11849.734    4154.5985   -16004.333    91.008787    928.08477    931.04111    960.37338    211.75525   -187.66123   -194.06712      46.7237      46.7237      46.7237           90           90           90     102002.7    939.83309 
  537000       536500   -10896.616    924.02325   -11820.639    4184.0559   -16004.695    92.479311    768.44421    883.92074    696.51127   -97.019189   -100.43012     120.3818      46.7237      46.7237      46.7237           90           90           90     102002.7    782.95874 
  538000       537500   -10954.142    910.73222   -11864.874    4174.7968   -16039.671    91.149101     639.6702    723.01513    1146.7827    6.8016194    85.229523   -22.743543      46.7237      46.7237      46.7237           90           90           90     102002.7    836.48933 
  539000       538500   -10948.866     913.4652   -11862.331    4156.0018   -16018.333    91.422627    869.02442    420.25266    1105.4488   -95.320043   -85.976661   -88.201157      46.7237      46.7237      46.7237           90           90           90     102002.7    798.24195 
  540000       539500   -10942.002    912.29527   -11854.297    4164.7052   -16019.002    91.305536     593.8831    686.81591    886.51874   -156.95458   -176.88109   -69.321535      46.7237      46.7237      46.7237           90           90           90     102002.7    722.40592 
  541000       540500    -10929.89    904.25948   -11834.149    4174.9869   -16009.136    90.501287    1041.0099     739.7944    1148.6845    113.85771    144.25406    40.057778      46.7237      46.7237      46.7237           90           90           90     102002.7    976.49624 
  542000       541500   -10914.475    928.00895   -11842.484    4164.1101   -16006.594    92.878214    831.13111    741.54856     914.6175   -121.43133    84.663952    137.07691      46.7237      46.7237      46.7237           90           90           90     102002.7    829.09906 
  543000       542500   -10931.327    898.90475   -11830.231    4194.4598   -16024.691    89.965368    686.08063    102.74036    741.90137    102.95304     30.71046   -116.85112      46.7237      46.7237      46.7237           90           90           90     102002.7    510.24079 
  544000       543500   -10937.494     908.6897   -11846.183    4162.0237   -16008.207    90.944678    1205.0809    315.57774    794.55703   -262.16952    323.25601   -182.28793      46.7237      46.7237      46.7237           90           90           90     102002.7    771.73856 
  545000       544500   -10970.439    893.46388   -11863.903    4158.3372    -16022.24    89.420828    1007.9388    765.02617     772.0721    30.930284   -31.824238    -14.16535      46.7237      46.7237      46.7237           90           90           90     102002.7    848.34569 
  546000       545500   -10910.957    910.36877   -11821.326    4176.1088   -15997.435    91.112726    807.67916    893.69959    1271.0179    79.899184   -253.36999   -268.94146      46.7237      46.7237      46.7237           90           90           90     102002.7    990.79888 
  547000       546500   -10932.976    916.91259   -11849.888    4149.6055   -15999.494    91.767653    1053.8196    1148.8533     1027.108    228.69134   -58.145924   -10.741052      46.7237      46.7237      46.7237           90           90           90     102002.7    1076.5936 
  548000       547500   -10937.958    898.89155   -11836.849    4185.2509     -16022.1    89.964047    676.56498    495.40357     661.2279    62.610844      42.4103   -192.89893      46.7237      46.7237      46.7237           90           90           90     102002.7    611.06548 
  549000       548500   -10945.982    906.09016   -11852.072    4170.7382    -16022.81    90.684508    1068.7915    1013.6062     880.3848      31.0295    17.918986   -12.845283      46.7237      46.7237      46.7237           90           90           90     102002.7    987.59416 
  550000       549500   -10914.121    928.90571   -11843.027    4173.2815   -16016.308    92.967965    714.72867    594.67476    1115.3844    207.39913    128.66483    103.01875      46.7237      46.7237      46.7237           90           90           90     102002.7     808.2626 
  551000       550500   -10921.335     923.2292   -11844.564    4169.9805   -16014.544     92.39984    969.66102    668.42204    526.43961   -54.548676    5.9783276    -129.2534      46.7237      46.7237      46.7237           90           90           90     102002.7    721.50755 
  552000       551500   -10919.703    918.24393   -11837.947    4177.4089   -16015.356    91.900897    773.86968    554.11515    851.49628    209.26553   -111.85572   -236.95268      46.7237      46.7237      46.7237           90           90           90     102002.7     726.4937 
  553000       552500   -10942.675    911.09648   -11853.771    4165.3158   -16019.087    91.185558    620.48168    821.21841    681.29017    418.34896    137.72459   -25.432422      46.7237      46.7237      46.7237           90           90           90     102002.7    707.66342 
  554000       553500   -10928.214    934.54448   -11862.758    4179.5969   -16042.355    93.532311    1141.9103    824.72652    921.38678    150.61969   -66.854814    164.65626      46.7237      46.7237      46.7237           90           90           90     102002.7    962.67454 
  555000       554500   -10946.231     901.6832   -11847.914    4156.6106   -16004.525    90.243445    1276.5164    507.75887    917.51519   -35.621736    35.376564    27.037884      46.7237      46.7237      46.7237           90           90           90     102002.7    900.59683 
[...]
  936000       935500   -10964.703     898.0808   -11862.784    4146.5575   -16009.342    89.882905    872.95096    871.49918    760.84627    366.76285    144.96961    113.75075      46.7237      46.7237      46.7237           90           90           90     102002.7     835.0988 
  937000       936500   -10964.162    898.79871   -11862.961    4144.5549   -16007.516    89.954755    899.77539    809.36627    826.09551   -106.31085   -95.241482   -178.43729      46.7237      46.7237      46.7237           90           90           90     102002.7    845.07906 
  938000       937500   -10916.149    920.90824   -11837.057    4146.1437   -15983.201    92.167551    593.86019    856.13827    1097.7795    88.882936   -46.543199    103.99038      46.7237      46.7237      46.7237           90           90           90     102002.7    849.25932 
  939000       938500   -10928.713    908.94032   -11837.653    4165.6766    -16003.33    90.969761    660.72033    1343.7178    612.37644    188.67144    -178.4073   -186.50473      46.7237      46.7237      46.7237           90           90           90     102002.7    872.27151 
  940000       939500   -10908.965    932.54248   -11841.507    4165.7349   -16007.242    93.331944    591.80826    674.80662      1370.48    7.6080291     -54.1006   -79.077782      46.7237      46.7237      46.7237           90           90           90     102002.7    879.03162 
  941000       940500   -10941.137    928.23447   -11869.371    4141.5355   -16010.907    92.900784    1423.1722    1019.3353    768.37431   -284.30905    154.66552    87.049454      46.7237      46.7237      46.7237           90           90           90     102002.7    1070.2939 
  942000       941500   -10920.325     931.5667   -11851.891    4157.7482   -16009.639    93.234285    1379.5198    884.40269    815.44711    209.18392   -11.411843   -193.44927      46.7237      46.7237      46.7237           90           90           90     102002.7    1026.4565 
  943000       942500   -10958.089    902.02001   -11860.109    4146.5334   -16006.643    90.277155    943.25841    987.24897    717.74818   -67.219674    224.72025   -19.165608      46.7237      46.7237      46.7237           90           90           90     102002.7    882.75185 
  944000       943500   -10940.301    909.57578   -11849.876    4160.4594   -16010.336    91.033361    1136.8142    825.70825     462.8895   -16.611312    65.194661    49.784649      46.7237      46.7237      46.7237           90           90           90     102002.7    808.47064 
  945000       944500   -10951.564    908.53517   -11860.099    4163.3591   -16023.458    90.929213    919.92806    800.64602    873.75809   -112.27219    78.026831    142.80133      46.7237      46.7237      46.7237           90           90           90     102002.7    864.77739 
  946000       945500   -10939.503     897.0205   -11836.524    4156.2738   -15992.797    89.776787    1071.1096    1218.7995    862.76461    -236.7919    111.06755    163.47793      46.7237      46.7237      46.7237           90           90           90     102002.7    1050.8912 
  947000       946500   -10937.987    912.88319    -11850.87    4151.3683   -16002.238    91.364378    887.37994    755.29564    850.09648    137.38192   -33.469978   -11.394948      46.7237      46.7237      46.7237           90           90           90     102002.7    830.92402 
  948000       947500   -10951.296    906.17321   -11857.469    4172.6088   -16030.078     90.69282    533.53451    912.45214    1147.9001    210.03055   -123.39729   -281.67027      46.7237      46.7237      46.7237           90           90           90     102002.7    864.62891 
  949000       948500    -10953.28    904.51878   -11857.798    4150.0491   -16007.847    90.527239    900.37422    800.27163    1165.7667    124.07805   -377.40769    24.118859      46.7237      46.7237      46.7237           90           90           90     102002.7    955.47084 
  950000       949500   -10920.997    924.67259    -11845.67    4152.3834   -15998.053      92.5443    705.46724    1291.3598    1007.4327   -71.237472    132.91526    -76.59445      46.7237      46.7237      46.7237           90           90           90     102002.7    1001.4199 
  951000       950500   -10927.697    920.40708   -11848.104    4165.0803   -16013.184    92.117393    647.24112    774.34307    896.66051   -323.62771   -92.530763    29.043666      46.7237      46.7237      46.7237           90           90           90     102002.7    772.74823 
  952000       951500   -10942.531    924.26397   -11866.795    4121.8729   -15988.668    92.503403    1037.8957    727.63163    1040.0952   -144.43586   -57.238916   -31.115087      46.7237      46.7237      46.7237           90           90           90     102002.7    935.20749 
  953000       952500   -10940.243    929.79108   -11870.034    4140.7832   -16010.817    93.056575    1020.8926    923.02875    1406.5989   -52.108699   -35.393118   -214.57676      46.7237      46.7237      46.7237           90           90           90     102002.7    1116.8401 
  954000       953500   -10929.958     911.4669   -11841.425    4154.5407   -15995.965     91.22263    1543.0522    790.81683     1082.322   -33.995648    64.107648   -40.991446      46.7237      46.7237      46.7237           90           90           90     102002.7    1138.7303 
  955000       954500    -10957.28    914.05795   -11871.338    4155.3069   -16026.645    91.481952    1077.4016    281.33871    650.49351   -195.04924     -10.2057   -37.019777      46.7237      46.7237      46.7237           90           90           90     102002.7    669.74461 
  956000       955500   -10934.997    908.68278    -11843.68    4173.5823   -16017.262    90.943986    768.14822      485.478    662.50704   -128.12676    275.33156   -7.6297069      46.7237      46.7237      46.7237           90           90           90     102002.7    638.71109 
  957000       956500   -10975.361    890.74808   -11866.109    4150.9941   -16017.103    89.149022    934.98472    390.39313    690.90757   -47.696511   -1.9983417    91.583295      46.7237      46.7237      46.7237           90           90           90     102002.7    672.09514 
  958000       957500   -10911.562    916.39387   -11827.955    4172.8601   -16000.816    91.715737    1369.6065    965.49954    1216.8499    112.30991    186.26018    78.213261      46.7237      46.7237      46.7237           90           90           90     102002.7    1183.9853 
  959000       958500   -10943.917    910.56106   -11854.478    4164.5602   -16019.038     91.13197    1098.2379    532.84385    805.94046    36.297119    80.218354   -50.730139      46.7237      46.7237      46.7237           90           90           90     102002.7    812.34074 
  960000       959500   -10975.543    892.70154   -11868.244    4156.3891   -16024.633    89.344531    1203.7728    729.30726    1064.8841    250.98519    92.009542    117.17125      46.7237      46.7237      46.7237           90           90           90     102002.7    999.32137 
  961000       960500   -10943.926    916.16518   -11860.092      4150.84   -16010.932     91.69285     987.3131    1073.5074     1049.772   -120.62102    32.855572    330.35405      46.7237      46.7237      46.7237           90           90           90     102002.7    1036.8642 
  962000       961500   -10939.913    909.77512   -11849.688    4158.3765   -16008.064    91.053311    952.97699    852.48795    1169.9085      96.2875   -86.302369    -42.48295      46.7237      46.7237      46.7237           90           90           90     102002.7    991.79116 
  963000       962500   -10923.104    924.23973   -11847.344    4158.8606   -16006.204    92.500977    1032.9112    812.39315     598.7323   -68.587423    233.34321   -38.512531      46.7237      46.7237      46.7237           90           90           90     102002.7    814.67887 
  964000       963500   -10927.625     908.1787   -11835.803    4178.3343   -16014.138    90.893537    997.88069    977.61472     451.4653    80.201325   -3.5409224   -201.60057      46.7237      46.7237      46.7237           90           90           90     102002.7     808.9869 
  965000       964500   -10952.533    907.39881   -11859.932    4147.0849   -16007.017    90.815482    1131.0612    575.18593    954.33841    288.32313     161.8289   -106.97825      46.7237      46.7237      46.7237           90           90           90     102002.7    886.86183 
  966000       965500   -10943.237    907.48754   -11850.725     4160.584   -16011.309    90.824363    952.31422    944.60217    1002.6553    87.276995   -7.3014177    57.288937      46.7237      46.7237      46.7237           90           90           90     102002.7    966.52388 
  967000       966500   -10940.183      908.538   -11848.721    4161.8674   -16010.589    90.929497    1002.2886    180.22658     840.5706   -12.180905    45.328669    6.7881905      46.7237      46.7237      46.7237           90           90           90     102002.7    674.36192 
  968000       967500   -10947.893    919.27985   -11867.173    4163.0828   -16030.255    92.004576    825.04233    890.48563    1083.3474   -45.650398    52.486952   -181.43947      46.7237      46.7237      46.7237           90           90           90     102002.7    932.95845 
  969000       968500   -10929.244    934.38113   -11863.625    4132.2366   -15995.862    93.515962    979.96089    692.46316    1092.6941    163.17589    401.64452   -121.84574      46.7237      46.7237      46.7237           90           90           90     102002.7    921.70604 
  970000       969500    -10956.24    918.72015    -11874.96    4127.8946   -16002.854     91.94856     1257.831    1353.5975    1024.2258    173.56016    97.760572   -26.108875      46.7237      46.7237      46.7237           90           90           90     102002.7    1211.8847 
  971000       970500   -10976.309    880.00901   -11856.318    4154.8887   -16011.206     88.07422    1041.7996    923.04401    996.70069    197.32969   -80.769205    84.783355      46.7237      46.7237      46.7237           90           90           90     102002.7    987.18143 
  972000       971500   -10966.453    905.06082   -11871.514    4154.6946   -16026.209    90.581489    1019.5586    427.41579    784.43891    113.51538    97.285052    296.93964      46.7237      46.7237      46.7237           90           90           90     102002.7    743.80444 
  973000       972500   -10930.031    920.08125   -11850.112    4170.5735   -16020.686    92.084783     1392.004    1230.4271    795.31551   -57.042323    76.024378    116.38614      46.7237      46.7237      46.7237           90           90           90     102002.7    1139.2489 
  974000       973500   -10944.052    912.74392   -11856.796    4155.2616   -16012.058    91.350439    1407.0178      1089.38     1360.265       172.11    2.5283958    1.0911733      46.7237      46.7237      46.7237           90           90           90     102002.7    1285.5543 
  975000       974500   -10934.463    913.19236   -11847.656    4156.4794   -16004.135     91.39532    1012.7882    902.83986    974.83436     62.97468   -26.429259    158.20009      46.7237      46.7237      46.7237           90           90           90     102002.7    963.48748 
  976000       975500   -10944.566    907.03614   -11851.602    4148.0394   -15999.641    90.779185    998.73789    928.74377    856.19766    35.052904   -101.20169    40.248053      46.7237      46.7237      46.7237           90           90           90     102002.7     927.8931 
  977000       976500   -10941.761    895.77451   -11837.535    4165.1027   -16002.638    89.652084    1204.1838    864.59322    801.91081    168.67504    40.041618    139.15326      46.7237      46.7237      46.7237           90           90           90     102002.7    956.89595 
  978000       977500   -10957.638     900.3591   -11857.997    4159.4762   -16017.474    90.110924    797.48796    437.42947    958.33819     288.1103     116.3528   -61.526476      46.7237      46.7237      46.7237           90           90           90     102002.7    731.08521 
  979000       978500   -10923.406    923.19573   -11846.602    4150.6427   -15997.245     92.39649    968.43051    979.01886    1239.0621   -64.280124    54.515922   -60.290199      46.7237      46.7237      46.7237           90           90           90     102002.7    1062.1705 
  980000       979500   -10951.547     906.1445   -11857.692    4163.1943   -16020.886    90.689947    856.87802    745.34713    1077.9276    44.523588   -63.784568    137.12124      46.7237      46.7237      46.7237           90           90           90     102002.7    893.38427 
  981000       980500   -10948.353    908.23269   -11856.586     4157.022   -16013.608    90.898939    946.86397    425.38317    953.66177    -262.7205   -53.624351    63.647968      46.7237      46.7237      46.7237           90           90           90     102002.7    775.30297 
  982000       981500   -10924.073    913.20986   -11837.283    4174.2012   -16011.484    91.397072    1309.5506    1226.7659    1459.4015   -112.54278   -153.03301    249.63997      46.7237      46.7237      46.7237           90           90           90     102002.7     1331.906 
  983000       982500   -10941.729    906.01669   -11847.746    4160.8651   -16008.611    90.677155    707.13976    969.86649    527.01709   -164.94591    68.115671   -63.173689      46.7237      46.7237      46.7237           90           90           90     102002.7    734.67445 
  984000       983500   -10924.149    929.21685   -11853.366    4160.4594   -16013.825    92.999104    352.35293    451.94874    715.23753   -172.20979    1.6210753   -103.32599      46.7237      46.7237      46.7237           90           90           90     102002.7    506.51307 
  985000       984500   -10942.093    905.36737    -11847.46    4166.0851   -16013.546    90.612169    942.68607    806.65009    1200.0202     69.96404    105.41765    108.39577      46.7237      46.7237      46.7237           90           90           90     102002.7    983.11878 
  986000       985500   -10938.586      903.985   -11842.571    4170.6584   -16013.229    90.473817    673.43622    1004.9348    770.90343   -250.16742   -212.84515     174.8738      46.7237      46.7237      46.7237           90           90           90     102002.7    816.42481 
  987000       986500   -10947.377    909.43022   -11856.807    4162.0594   -16018.867    91.018793    1062.2631    597.61249    952.64336    121.66154    146.31398    198.12992      46.7237      46.7237      46.7237           90           90           90     102002.7    870.83965 
  988000       987500   -10932.467    914.32758   -11846.795    4176.9293   -16023.724    91.508936    603.65257    1333.4048    1251.6644    43.735633    21.741726   -9.7144885      46.7237      46.7237      46.7237           90           90           90     102002.7    1062.9072 
  989000       988500    -10946.13    916.48239   -11862.612    4160.9839   -16023.596    91.724597    932.36428    726.51303    798.02645    93.139434    298.11548   -222.70402      46.7237      46.7237      46.7237           90           90           90     102002.7    818.96792 
  990000       989500   -10941.921    913.05139   -11854.972    4137.8644   -15992.836    91.381211    1249.6839    889.71665    529.61067    238.36904   -48.961163   -18.934442      46.7237      46.7237      46.7237           90           90           90     102002.7     889.6704 
  991000       990500    -10955.02    901.82482   -11856.845    4163.6708   -16020.516    90.257618    1151.5739    1021.0416    564.22272   -83.924594   -235.41577   -113.44083      46.7237      46.7237      46.7237           90           90           90     102002.7    912.27941 
  992000       991500   -10954.663    916.44145   -11871.105    4159.4966   -16030.601      91.7205    599.92008    850.38838    916.08997   -237.43833    -103.5076   -114.10503      46.7237      46.7237      46.7237           90           90           90     102002.7    788.79948 
  993000       992500   -10952.581    890.72776   -11843.309    4176.0319   -16019.341    89.146988    893.92281    1314.1559    841.66165    17.861079   -78.949532    36.284913      46.7237      46.7237      46.7237           90           90           90     102002.7    1016.5801 
  994000       993500   -10942.949    911.90662   -11854.855    4157.3433   -16012.198    91.266639    724.33625    1065.0146    804.38419   -13.360008    31.689447    110.04011      46.7237      46.7237      46.7237           90           90           90     102002.7    864.57835 
  995000       994500   -10934.662    914.38664   -11849.049    4175.8515     -16024.9    91.514847    1076.6599    943.38679    929.14512    173.64995    133.59017    306.33523      46.7237      46.7237      46.7237           90           90           90     102002.7    983.06393 
  996000       995500   -10944.221    923.21977   -11867.441    4152.1002   -16019.541    92.398897    1351.6318    1191.2169    653.45345   -14.345328    189.31198   -1.2746316      46.7237      46.7237      46.7237           90           90           90     102002.7    1065.4341 
  997000       996500   -10918.155     922.0789   -11840.234    4162.1106   -16002.345    92.284714    916.79168    1198.7882    875.80348  -0.96514101   -43.980125    1.5006723      46.7237      46.7237      46.7237           90           90           90     102002.7    997.12779 
  998000       997500   -10935.897    917.07928   -11852.977    4158.0891   -16011.066    91.784335    1004.2118    907.88954     1070.942   -79.546568   -67.354947    19.208052      46.7237      46.7237      46.7237           90           90           90     102002.7    994.34775 
  999000       998500   -10917.463    931.09022   -11848.553    4174.0511   -16022.604    93.186597    1025.2547     1146.075    937.36581    33.513787   -114.72165    -171.9818      46.7237      46.7237      46.7237           90           90           90     102002.7    1036.2318 
 1000000       999500   -10931.818    905.74881   -11837.567     4175.916   -16013.483    90.650345    964.34457    106.84504    1112.0055   -38.027785    284.82004   -30.368201      46.7237      46.7237      46.7237           90           90           90     102002.7     727.7317 
 1000500      1000000   -10941.811    916.00746   -11857.819    4151.2171   -16009.036    91.677064    1281.3546    448.16452    1131.2559   -22.150088   -78.397779   -260.91212      46.7237      46.7237      46.7237           90           90           90     102002.7    953.59167 
Loop time of 2501.28 on 16 procs for 500000 steps with 3353 atoms

Performance: 17.271 ns/day, 1.390 hours/ns, 199.898 timesteps/s
99.8% CPU use with 16 MPI tasks x no OpenMP threads

MPI task timing breakdown:
Section |  min time  |  avg time  |  max time  |%varavg| %total
---------------------------------------------------------------
Pair    | 991.65     | 1566.2     | 2039.6     | 744.9 | 62.62
Bond    | 113.34     | 184.15     | 237.64     | 314.8 |  7.36
Neigh   | 15.611     | 15.629     | 15.647     |   0.3 |  0.62
Comm    | 193.37     | 702.27     | 1348.4     |1251.1 | 28.08
Output  | 0.13638    | 0.14359    | 0.14416    |   0.5 |  0.01
Modify  | 24.299     | 25.787     | 27.892     |  24.3 |  1.03
Other   |            | 7.068      |            |       |  0.28

Nlocal:    209.562 ave 242 max 168 min
Histogram: 2 1 0 1 0 2 6 1 2 1
Nghost:    4209.94 ave 4255 max 4179 min
Histogram: 2 1 4 3 1 1 1 1 0 2
Neighs:    11452.8 ave 17123 max 5092 min
Histogram: 2 0 1 4 1 1 2 2 1 2

Total # of neighbors = 183245
Ave neighs/atom = 54.6511
Ave special neighs/atom = 3.43573
Neighbor list builds = 4030
Dangerous builds = 0
Total wall time: 1:15:22
