LAMMPS (30 Mar 2018)
Reading data file ...
  orthogonal box = (0 0 0) to (46.7237 46.7237 46.7237)
  2 by 2 by 4 MPI processor grid
  reading atoms ...
  1799 atoms
  scanning bonds ...
  5 = max bonds/atom
  scanning angles ...
  10 = max angles/atom
  scanning dihedrals ...
  32 = max dihedrals/atom
  scanning impropers ...
  3 = max impropers/atom
  reading bonds ...
  2064 bonds
  reading angles ...
  3696 angles
  reading dihedrals ...
  6240 dihedrals
  reading impropers ...
  1008 impropers
Finding 1-2 1-3 1-4 neighbors ...
  special bond factors lj:   0          0          0         
  special bond factors coul: 0          0          0         
  5 = max # of 1-2 neighbors
  8 = max # of 1-3 neighbors
  20 = max # of 1-4 neighbors
  19 = max # of special neighbors
Finding 1-2 1-3 1-4 neighbors ...
  special bond factors lj:   0          0          1         
  special bond factors coul: 1          1          1         
  5 = max # of 1-2 neighbors
  8 = max # of 1-3 neighbors
  19 = max # of special neighbors
WARNING: Using 'neigh_modify every 1 delay 0 check yes' setting during minimization (../min.cpp:168)
Neighbor list info ...
  update every 1 steps, delay 0 steps, check yes
  max neighbors/atom: 2000, page size: 100000
  master list distance cutoff = 16
  ghost atom cutoff = 16
  binsize = 8, bins = 6 6 6
  3 neighbor lists, perpetual/occasional/extra = 3 0 0
  (1) pair buck6d/coul/gauss/dsf, perpetual, skip from (3)
      attributes: half, newton on
      pair build: skip
      stencil: none
      bin: none
  (2) pair lj/cut, perpetual, skip from (3)
      attributes: half, newton on
      pair build: skip
      stencil: none
      bin: none
  (3) neighbor class addition, perpetual
      attributes: half, newton on
      pair build: half/bin/newton
      stencil: half/bin/3d/newton
      bin: standard
Setting up cg style minimization ...
  Unit style    : real
  Current step  : 0
WARNING: Inconsistent image flags (../domain.cpp:786)
Per MPI rank memory allocation (min/avg/max) = 22.9 | 23.35 | 23.79 Mbytes
Step Temp E_pair E_mol TotEng Press 
       0            0   -11705.505    6482.8914    -5222.614    6200.6766 
     502            0   -11751.928    3725.7683   -8026.1595   -535.36869 
Loop time of 2.86582 on 16 procs for 502 steps with 1799 atoms

99.9% CPU use with 16 MPI tasks x no OpenMP threads

Minimization stats:
  Stopping criterion = max force evaluations
  Energy initial, next-to-last, final = 
        -5222.61399924     -8026.14984935     -8026.15946868
  Force two-norm initial, final = 2576.7 4.76479
  Force max component initial, final = 152.112 0.614818
  Final line search alpha, max atom move = 0.0134145 0.00824745
  Iterations, force evaluations = 502 1001

MPI task timing breakdown:
Section |  min time  |  avg time  |  max time  |%varavg| %total
---------------------------------------------------------------
Pair    | 1.183      | 1.6225     | 2.1404     |  20.2 | 56.62
Bond    | 0.27064    | 0.36098    | 0.48019    |   9.6 | 12.60
Neigh   | 0.017068   | 0.017215   | 0.017435   |   0.1 |  0.60
Comm    | 0.25362    | 0.82438    | 1.2686     |  30.6 | 28.77
Output  | 0          | 0          | 0          |   0.0 |  0.00
Modify  | 0          | 0          | 0          |   0.0 |  0.00
Other   |            | 0.04074    |            |       |  1.42

Nlocal:    112.438 ave 130 max 93 min
Histogram: 2 0 2 1 0 5 3 0 1 2
Nghost:    2251.44 ave 2272 max 2233 min
Histogram: 2 1 1 2 3 2 2 1 0 2
Neighs:    11455.5 ave 15675 max 8395 min
Histogram: 3 4 1 1 0 2 1 1 1 2

Total # of neighbors = 183288
Ave neighs/atom = 101.883
Ave special neighs/atom = 6.40356
Neighbor list builds = 13
Dangerous builds = 0
Neighbor list info ...
  update every 1 steps, delay 10 steps, check yes
  max neighbors/atom: 2000, page size: 100000
  master list distance cutoff = 16
  ghost atom cutoff = 16
  binsize = 8, bins = 6 6 6
  3 neighbor lists, perpetual/occasional/extra = 3 0 0
  (1) pair buck6d/coul/gauss/dsf, perpetual, skip from (3)
      attributes: half, newton on
      pair build: skip
      stencil: none
      bin: none
  (2) pair lj/cut, perpetual, skip from (3)
      attributes: half, newton on
      pair build: skip
      stencil: none
      bin: none
  (3) neighbor class addition, perpetual
      attributes: half, newton on
      pair build: half/bin/newton
      stencil: half/bin/3d/newton
      bin: standard
Setting up Verlet run ...
  Unit style    : real
  Current step  : 502
  Time step     : 1
WARNING: Inconsistent image flags (../domain.cpp:786)
Per MPI rank memory allocation (min/avg/max) = 22.54 | 22.66 | 23.05 Mbytes
Step Temp PotEng TotEng Press Volume Lx Ly Lz 
     502          130   -8026.1595   -7329.4249   -223.12871     102002.7      46.7237      46.7237      46.7237 
    1000    114.97344   -7410.0006   -6793.8008   -887.41142     102002.7      46.7237      46.7237      46.7237 
    2000     133.9148   -7300.0467   -6582.3308   -778.93555     102002.7      46.7237      46.7237      46.7237 
    3000    124.98467   -7285.3244   -6615.4695   -1169.5332     102002.7      46.7237      46.7237      46.7237 
    4000    130.84833    -7313.932   -6612.6508   -648.97008     102002.7      46.7237      46.7237      46.7237 
    5000    133.16227    -7309.345   -6595.6623   -1100.4358     102002.7      46.7237      46.7237      46.7237 
    6000    129.93655   -7313.9637   -6617.5693   -793.25177     102002.7      46.7237      46.7237      46.7237 
    7000     128.3434   -7278.7787   -6590.9227    -438.5832     102002.7      46.7237      46.7237      46.7237 
    8000    130.28753   -7304.9708   -6606.6953   -615.31013     102002.7      46.7237      46.7237      46.7237 
    9000    131.07312    -7325.867   -6623.3811   -639.13832     102002.7      46.7237      46.7237      46.7237 
   10000    132.44013   -7299.2986   -6589.4862   -647.64229     102002.7      46.7237      46.7237      46.7237 
   11000    129.76106   -7286.4838   -6591.0299   -708.29962     102002.7      46.7237      46.7237      46.7237 
   12000    129.73506   -7312.4933   -6617.1787   -737.14615     102002.7      46.7237      46.7237      46.7237 
   13000    131.54844   -7308.1515   -6603.1182   -811.99672     102002.7      46.7237      46.7237      46.7237 
   14000    128.62358   -7313.1498   -6623.7921   -627.61661     102002.7      46.7237      46.7237      46.7237 
   15000    130.95064    -7284.608   -6582.7785   -998.28111     102002.7      46.7237      46.7237      46.7237 
   16000    130.75831   -7313.1116   -6612.3129   -675.08511     102002.7      46.7237      46.7237      46.7237 
   17000     125.9706    -7318.264    -6643.125   -889.71639     102002.7      46.7237      46.7237      46.7237 
   18000    131.92815   -7310.4712   -6603.4027   -469.83673     102002.7      46.7237      46.7237      46.7237 
   19000    131.24878   -7297.1314    -6593.704    -712.3488     102002.7      46.7237      46.7237      46.7237 
   20000    128.16134   -7308.9419   -6622.0616   -724.44068     102002.7      46.7237      46.7237      46.7237 
   21000    129.16726   -7332.4144   -6640.1429   -644.77928     102002.7      46.7237      46.7237      46.7237 
   22000    128.92752   -7291.8959   -6600.9093   -761.85429     102002.7      46.7237      46.7237      46.7237 
   23000    132.62054   -7299.1129   -6588.3335   -591.08777     102002.7      46.7237      46.7237      46.7237 
   24000     126.3177   -7311.3528   -6634.3535   -847.45292     102002.7      46.7237      46.7237      46.7237 
   25000     128.1725   -7291.9621   -6605.0221   -597.13552     102002.7      46.7237      46.7237      46.7237 
   26000    128.32101   -7328.1562   -6640.4202   -736.53973     102002.7      46.7237      46.7237      46.7237 
   27000    131.60302   -7308.9067   -6603.5808   -693.32487     102002.7      46.7237      46.7237      46.7237 
   28000     131.7668   -7302.0699   -6595.8661    -352.3368     102002.7      46.7237      46.7237      46.7237 
   29000    128.03593   -7321.0979   -6634.8898   -645.69332     102002.7      46.7237      46.7237      46.7237 
   30000    126.13291   -7306.7583   -6630.7494   -838.24857     102002.7      46.7237      46.7237      46.7237 
   31000    127.79578   -7314.5499   -6629.6288   -1116.4643     102002.7      46.7237      46.7237      46.7237 
   32000    131.87492   -7309.0325   -6602.2493   -618.53488     102002.7      46.7237      46.7237      46.7237 
   33000    131.36117   -7300.1165   -6596.0867   -801.81567     102002.7      46.7237      46.7237      46.7237 
   34000    129.24873   -7330.6104   -6637.9023   -720.60701     102002.7      46.7237      46.7237      46.7237 
   35000    130.99763   -7297.3423   -6595.2609    -647.2649     102002.7      46.7237      46.7237      46.7237 
   36000     129.3072   -7312.7419   -6619.7204   -675.97636     102002.7      46.7237      46.7237      46.7237 
   37000     126.8326   -7293.6354   -6613.8765   -611.94584     102002.7      46.7237      46.7237      46.7237 
   38000    127.92355   -7301.3623   -6615.7565   -778.15452     102002.7      46.7237      46.7237      46.7237 
   39000    129.67291    -7280.878   -6585.8965    -970.0974     102002.7      46.7237      46.7237      46.7237 
   40000    128.95074   -7318.0551    -6626.944   -1001.7943     102002.7      46.7237      46.7237      46.7237 
   41000    126.69224   -7326.4018   -6647.3952   -891.17423     102002.7      46.7237      46.7237      46.7237 
   42000    130.49666   -7301.6247   -6602.2283   -819.58772     102002.7      46.7237      46.7237      46.7237 
   43000    129.63281   -7291.2615   -6596.4949   -661.40429     102002.7      46.7237      46.7237      46.7237 
   44000    132.24065   -7296.6301   -6587.8868   -654.67541     102002.7      46.7237      46.7237      46.7237 
   45000    131.31107   -7315.8516   -6612.0904   -618.08099     102002.7      46.7237      46.7237      46.7237 
   46000    129.48853   -7284.1626   -6590.1693   -707.08237     102002.7      46.7237      46.7237      46.7237 
   47000    127.99683   -7287.1481   -6601.1496   -787.84648     102002.7      46.7237      46.7237      46.7237 
   48000    128.56673   -7299.2898   -6610.2369   -661.08258     102002.7      46.7237      46.7237      46.7237 
   49000    131.84196   -7288.5194   -6581.9129   -882.25991     102002.7      46.7237      46.7237      46.7237 
   50000     128.3065   -7323.3492    -6635.691   -657.75638     102002.7      46.7237      46.7237      46.7237 
   51000    130.76206   -7312.0603   -6611.2415    -914.5648     102002.7      46.7237      46.7237      46.7237 
   52000    134.52429    -7307.541   -6586.5586   -604.32272     102002.7      46.7237      46.7237      46.7237 
   53000    124.71726   -7288.2281   -6619.8064   -713.36853     102002.7      46.7237      46.7237      46.7237 
   54000    130.90962    -7326.783   -6625.1733   -617.87251     102002.7      46.7237      46.7237      46.7237 
   55000    131.51207   -7295.0675   -6590.2291   -637.75688     102002.7      46.7237      46.7237      46.7237 
   56000    129.22391   -7309.0142   -6616.4392   -483.69479     102002.7      46.7237      46.7237      46.7237 
   57000    124.91234   -7287.6683   -6618.2011   -631.87926     102002.7      46.7237      46.7237      46.7237 
   58000    129.05407   -7291.2215   -6599.5567   -1025.8802     102002.7      46.7237      46.7237      46.7237 
   59000    129.18613   -7334.9401   -6642.5674   -517.65361     102002.7      46.7237      46.7237      46.7237 
   60000    129.30944   -7307.0931   -6614.0596   -738.64942     102002.7      46.7237      46.7237      46.7237 
   61000    130.09815    -7295.311   -6598.0504   -637.95336     102002.7      46.7237      46.7237      46.7237 
   62000    126.87709   -7311.8673     -6631.87   -658.54007     102002.7      46.7237      46.7237      46.7237 
   63000     131.4583   -7302.1698   -6597.6195   -712.03717     102002.7      46.7237      46.7237      46.7237 
   64000    132.44312   -7302.9815    -6593.153   -676.89855     102002.7      46.7237      46.7237      46.7237 
   65000    130.08702   -7300.5836   -6603.3827   -848.01196     102002.7      46.7237      46.7237      46.7237 
   66000    127.16372   -7309.0782   -6627.5447   -1011.0635     102002.7      46.7237      46.7237      46.7237 
   67000    130.52047    -7334.696    -6635.172   -946.64133     102002.7      46.7237      46.7237      46.7237 
   68000    132.11621   -7321.2689   -6613.1925   -1135.3638     102002.7      46.7237      46.7237      46.7237 
   69000    128.33932   -7292.8267   -6604.9926    -710.7517     102002.7      46.7237      46.7237      46.7237 
   70000    126.53601   -7292.9486   -6614.7793   -792.07267     102002.7      46.7237      46.7237      46.7237 
   71000    132.14122   -7290.7499   -6582.5395   -789.10586     102002.7      46.7237      46.7237      46.7237 
   72000    132.07748   -7331.7926   -6623.9238   -815.74848     102002.7      46.7237      46.7237      46.7237 
   73000    129.41329    -7291.073   -6597.4829   -728.95706     102002.7      46.7237      46.7237      46.7237 
   74000    131.50747   -7288.4362   -6583.6223   -740.84749     102002.7      46.7237      46.7237      46.7237 
   75000    131.11146   -7317.5519   -6614.8605    -625.7648     102002.7      46.7237      46.7237      46.7237 
   76000    129.44542   -7299.1818   -6605.4195   -595.59978     102002.7      46.7237      46.7237      46.7237 
   77000    126.88631     -7290.46   -6610.4133   -803.61289     102002.7      46.7237      46.7237      46.7237 
   78000    137.65328   -7310.1375   -6572.3852   -241.19483     102002.7      46.7237      46.7237      46.7237 
   79000    133.13392   -7312.9133   -6599.3826   -503.48799     102002.7      46.7237      46.7237      46.7237 
   80000    130.30338   -7315.0978   -6616.7373   -921.39222     102002.7      46.7237      46.7237      46.7237 
   81000    127.72949   -7324.2182   -6639.6525   -965.65048     102002.7      46.7237      46.7237      46.7237 
   82000    130.15787   -7290.7996    -6593.219   -970.80562     102002.7      46.7237      46.7237      46.7237 
   83000     128.5911   -7328.1264   -6638.9429   -707.30439     102002.7      46.7237      46.7237      46.7237 
   84000    131.69424   -7283.2665   -6577.4516   -690.52135     102002.7      46.7237      46.7237      46.7237 
   85000    132.44065   -7285.6781   -6575.8629   -677.36615     102002.7      46.7237      46.7237      46.7237 
   86000    127.75822   -7308.4484   -6623.7286   -709.12118     102002.7      46.7237      46.7237      46.7237 
   87000    131.16604   -7309.4028   -6606.4189   -769.15184     102002.7      46.7237      46.7237      46.7237 
   88000    130.26678   -7340.7032   -6642.5389   -718.40021     102002.7      46.7237      46.7237      46.7237 
   89000    129.33468   -7310.9709   -6617.8021   -337.08786     102002.7      46.7237      46.7237      46.7237 
   90000    133.03703   -7317.6803   -6604.6688   -655.47187     102002.7      46.7237      46.7237      46.7237 
   91000      128.704   -7293.9889   -6604.2003   -769.78341     102002.7      46.7237      46.7237      46.7237 
   92000    130.69434    -7310.274   -6609.8181   -432.28268     102002.7      46.7237      46.7237      46.7237 
   93000    131.32345   -7304.0516    -6600.224   -877.64125     102002.7      46.7237      46.7237      46.7237 
   94000    128.18351   -7311.6268   -6624.6278   -657.01893     102002.7      46.7237      46.7237      46.7237 
   95000    135.16529   -7306.0899    -6581.672   -882.32673     102002.7      46.7237      46.7237      46.7237 
   96000    131.50085   -7307.2012   -6602.4229   -853.72586     102002.7      46.7237      46.7237      46.7237 
   97000    127.73435   -7304.0263   -6619.4344   -536.10896     102002.7      46.7237      46.7237      46.7237 
   98000    128.21626   -7296.1882   -6609.0136   -697.98192     102002.7      46.7237      46.7237      46.7237 
   99000    128.86562    -7282.984   -6592.3292   -670.27013     102002.7      46.7237      46.7237      46.7237 
  100000    129.76623   -7310.0799   -6614.5983   -545.96193     102002.7      46.7237      46.7237      46.7237 
  101000    131.58728   -7283.5153   -6578.2738   -526.63148     102002.7      46.7237      46.7237      46.7237 
  102000    130.31221   -7305.2498    -6606.842   -596.33315     102002.7      46.7237      46.7237      46.7237 
  103000    132.14846   -7310.1157   -6601.8665   -655.59175     102002.7      46.7237      46.7237      46.7237 
  104000    130.56435   -7291.2935   -6591.5343    -629.6886     102002.7      46.7237      46.7237      46.7237 
  105000    125.64091   -7306.0632   -6632.6912   -519.05663     102002.7      46.7237      46.7237      46.7237 
  106000    136.43126   -7331.3463   -6600.1434   -635.93824     102002.7      46.7237      46.7237      46.7237 
  107000     124.5796   -7300.9384   -6633.2544   -928.11101     102002.7      46.7237      46.7237      46.7237 
  108000     134.4356   -7311.2963   -6590.7892    -319.1228     102002.7      46.7237      46.7237      46.7237 
  109000    133.30815   -7323.2013   -6608.7367    -381.8432     102002.7      46.7237      46.7237      46.7237 
  110000    130.82423   -7318.9047   -6617.7527   -755.66167     102002.7      46.7237      46.7237      46.7237 
  111000    127.97803   -7291.9239   -6606.0261   -476.21484     102002.7      46.7237      46.7237      46.7237 
  112000    128.38665   -7299.0421   -6610.9543   -359.51437     102002.7      46.7237      46.7237      46.7237 
  113000    130.57066   -7312.5812   -6612.7882   -386.78423     102002.7      46.7237      46.7237      46.7237 
  114000    132.94011   -7299.9181    -6587.426   -882.11836     102002.7      46.7237      46.7237      46.7237 
  115000    124.32249   -7292.8167   -6626.5107    -834.1482     102002.7      46.7237      46.7237      46.7237 
  116000    128.43309   -7313.2998   -6624.9631   -541.80364     102002.7      46.7237      46.7237      46.7237 
  117000    132.55731   -7280.9903   -6570.5498   -654.02879     102002.7      46.7237      46.7237      46.7237 
  118000    132.81064   -7315.4762    -6603.678   -720.08493     102002.7      46.7237      46.7237      46.7237 
  119000    135.14505   -7317.0416   -6592.7322   -566.35009     102002.7      46.7237      46.7237      46.7237 
  120000     130.0531   -7310.7611    -6613.742   -659.21672     102002.7      46.7237      46.7237      46.7237 
  121000    127.14592   -7285.2058   -6603.7676    -1012.871     102002.7      46.7237      46.7237      46.7237 
  122000    130.10419    -7295.346   -6598.0531   -642.59947     102002.7      46.7237      46.7237      46.7237 
  123000    127.72039   -7297.8618   -6613.3448   -903.18935     102002.7      46.7237      46.7237      46.7237 
  124000    132.28197   -7282.4864   -6573.5216   -716.03224     102002.7      46.7237      46.7237      46.7237 
  125000    130.28986   -7306.4576   -6608.1695   -515.86885     102002.7      46.7237      46.7237      46.7237 
  126000    130.86513   -7303.3618   -6601.9906   -908.96502     102002.7      46.7237      46.7237      46.7237 
  127000    131.57152   -7295.7743   -6590.6172   -302.30495     102002.7      46.7237      46.7237      46.7237 
  128000    135.52654   -7331.1459   -6604.7919   -570.92979     102002.7      46.7237      46.7237      46.7237 
  129000    126.19267    -7313.562   -6637.2328   -722.93324     102002.7      46.7237      46.7237      46.7237 
  130000    129.45282   -7313.3922   -6619.5903    -517.1366     102002.7      46.7237      46.7237      46.7237 
  131000     131.5468   -7291.0461   -6586.0214   -767.17286     102002.7      46.7237      46.7237      46.7237 
  132000    128.38699   -7301.2045   -6613.1149    -659.4763     102002.7      46.7237      46.7237      46.7237 
  133000     127.0264   -7313.2336   -6632.4361   -507.66017     102002.7      46.7237      46.7237      46.7237 
  134000    132.33976   -7294.0988   -6584.8243   -665.28053     102002.7      46.7237      46.7237      46.7237 
  135000    126.53438   -7287.6621   -6609.5016   -256.48063     102002.7      46.7237      46.7237      46.7237 
  136000    132.38232    -7334.184   -6624.6814   -974.10937     102002.7      46.7237      46.7237      46.7237 
  137000    127.47492   -7293.9192   -6610.7178    -873.0761     102002.7      46.7237      46.7237      46.7237 
  138000    130.95112   -7306.2444   -6604.4124   -735.07307     102002.7      46.7237      46.7237      46.7237 
  139000    129.34761   -7321.7604   -6628.5223   -472.61401     102002.7      46.7237      46.7237      46.7237 
  140000    131.07175   -7270.9518   -6568.4733   -1058.2811     102002.7      46.7237      46.7237      46.7237 
  141000    129.82873   -7305.4427    -6609.626   -492.73159     102002.7      46.7237      46.7237      46.7237 
  142000    124.57208   -7293.8104   -6626.1668   -750.49708     102002.7      46.7237      46.7237      46.7237 
  143000    131.35391   -7312.3947   -6608.4039   -804.57958     102002.7      46.7237      46.7237      46.7237 
  144000    131.93135   -7335.3543   -6628.2687   -1003.8522     102002.7      46.7237      46.7237      46.7237 
  145000    129.82116   -7273.7879   -6578.0118   -722.92136     102002.7      46.7237      46.7237      46.7237 
  146000    131.53775    -7287.934   -6582.9579   -815.28257     102002.7      46.7237      46.7237      46.7237 
  147000     128.3266   -7295.8772   -6608.1113   -737.84255     102002.7      46.7237      46.7237      46.7237 
  148000    131.31826   -7303.0093   -6599.2096   -948.29145     102002.7      46.7237      46.7237      46.7237 
  149000    131.68171   -7285.8006   -6580.0529   -799.22286     102002.7      46.7237      46.7237      46.7237 
  150000    130.47139   -7310.7942   -6611.5333   -620.60757     102002.7      46.7237      46.7237      46.7237 
  151000    128.77643   -7300.9012   -6610.7244   -1080.7342     102002.7      46.7237      46.7237      46.7237 
  152000    128.78979   -7288.0778   -6597.8294   -746.34902     102002.7      46.7237      46.7237      46.7237 
  153000    130.25652   -7315.0544   -6616.9451   -757.53482     102002.7      46.7237      46.7237      46.7237 
  154000    132.98319   -7314.1703   -6601.4474   -941.32626     102002.7      46.7237      46.7237      46.7237 
  155000    132.21843   -7317.3935   -6608.7692   -196.41306     102002.7      46.7237      46.7237      46.7237 
  156000    128.57221   -7298.9727   -6609.8904    -656.4705     102002.7      46.7237      46.7237      46.7237 
  157000    130.65868   -7296.1968   -6595.9321   -943.66441     102002.7      46.7237      46.7237      46.7237 
  158000    124.31087   -7288.0474   -6621.8037   -492.67971     102002.7      46.7237      46.7237      46.7237 
  159000     128.6505   -7310.6577   -6621.1558   -560.08895     102002.7      46.7237      46.7237      46.7237 
  160000    130.20438   -7287.7498   -6589.9199   -936.87796     102002.7      46.7237      46.7237      46.7237 
  161000    128.41741   -7312.4994   -6624.2468   -696.25174     102002.7      46.7237      46.7237      46.7237 
  162000    133.27762   -7309.1816   -6594.8806   -775.70704     102002.7      46.7237      46.7237      46.7237 
  163000    128.46966   -7317.5247    -6628.992   -1058.0788     102002.7      46.7237      46.7237      46.7237 
  164000    127.51488   -7304.7617   -6621.3462   -774.74358     102002.7      46.7237      46.7237      46.7237 
  165000    129.30733   -7294.1728   -6601.1506    -720.0031     102002.7      46.7237      46.7237      46.7237 
  166000    133.04446   -7301.9053   -6588.8539   -818.16379     102002.7      46.7237      46.7237      46.7237 
  167000    132.48737   -7310.1854   -6600.1198   -928.32452     102002.7      46.7237      46.7237      46.7237 
  168000    129.79645   -7306.4752   -6610.8316   -650.20727     102002.7      46.7237      46.7237      46.7237 
  169000    124.44078   -7316.6011   -6649.6612   -795.43815     102002.7      46.7237      46.7237      46.7237 
  170000    129.50161    -7303.769   -6609.7055    -648.1122     102002.7      46.7237      46.7237      46.7237 
  171000    131.17888   -7278.4373   -6575.3846   -467.30534     102002.7      46.7237      46.7237      46.7237 
  172000    128.45946   -7313.4939   -6625.0158   -785.57149     102002.7      46.7237      46.7237      46.7237 
  173000    130.02089   -7295.0708   -6598.2243   -574.30209     102002.7      46.7237      46.7237      46.7237 
  174000    125.71493   -7283.3174   -6609.5487    -581.9162     102002.7      46.7237      46.7237      46.7237 
  175000     132.0414   -7304.3438   -6596.6684   -822.58339     102002.7      46.7237      46.7237      46.7237 
  176000    123.56243   -7324.7269   -6662.4945    -579.3622     102002.7      46.7237      46.7237      46.7237 
  177000    132.02519   -7307.6305    -6600.042   -810.15966     102002.7      46.7237      46.7237      46.7237 
  178000    129.00812    -7316.495   -6625.0765   -536.79876     102002.7      46.7237      46.7237      46.7237 
  179000    130.93335   -7279.9287   -6578.1919   -887.94279     102002.7      46.7237      46.7237      46.7237 
  180000    134.03849   -7307.7989   -6589.4201   -1023.1235     102002.7      46.7237      46.7237      46.7237 
  181000    127.79692   -7309.0895   -6624.1623   -815.55457     102002.7      46.7237      46.7237      46.7237 
  182000    132.18357   -7312.9462   -6604.5088   -997.33749     102002.7      46.7237      46.7237      46.7237 
  183000    135.22802   -7315.6914   -6590.9372   -966.21326     102002.7      46.7237      46.7237      46.7237 
  184000    132.28028   -7297.0713   -6588.1156   -607.74252     102002.7      46.7237      46.7237      46.7237 
  185000    128.82268    -7315.179   -6624.7543   -449.03578     102002.7      46.7237      46.7237      46.7237 
  186000    133.76684   -7311.2307   -6594.3078   -814.28065     102002.7      46.7237      46.7237      46.7237 
  187000    131.42768   -7302.5958   -6598.2096   -670.99739     102002.7      46.7237      46.7237      46.7237 
  188000    134.42347   -7300.2528   -6579.8106   -795.91312     102002.7      46.7237      46.7237      46.7237 
  189000    128.41543   -7312.2927   -6624.0507   -245.08115     102002.7      46.7237      46.7237      46.7237 
  190000    132.36715    -7300.818   -6591.3967   -716.03833     102002.7      46.7237      46.7237      46.7237 
  191000     130.4715   -7272.0629   -6572.8014   -649.60803     102002.7      46.7237      46.7237      46.7237 
  192000    127.58926   -7300.9397   -6617.1255   -746.34659     102002.7      46.7237      46.7237      46.7237 
  193000    124.18137   -7304.4382   -6638.8886   -923.29999     102002.7      46.7237      46.7237      46.7237 
  194000    129.82807   -7305.7191   -6609.9061   -716.55513     102002.7      46.7237      46.7237      46.7237 
  195000    129.91663   -7305.9592   -6609.6715   -944.63962     102002.7      46.7237      46.7237      46.7237 
  196000    123.59715   -7332.1541   -6669.7356   -393.20306     102002.7      46.7237      46.7237      46.7237 
  197000    130.57438   -7293.1576   -6593.3446   -778.40419     102002.7      46.7237      46.7237      46.7237 
  198000    130.93977   -7329.5746   -6627.8033    -572.4162     102002.7      46.7237      46.7237      46.7237 
  199000    132.08467   -7306.3824   -6598.4751   -585.44471     102002.7      46.7237      46.7237      46.7237 
  200000    126.15712   -7313.9328   -6637.7942   -741.81272     102002.7      46.7237      46.7237      46.7237 
  201000    127.09253   -7291.6786   -6610.5267   -646.34614     102002.7      46.7237      46.7237      46.7237 
  202000    131.64154   -7298.6179   -6593.0855   -839.53875     102002.7      46.7237      46.7237      46.7237 
  203000    127.23581   -7321.0496   -6639.1297   -835.94236     102002.7      46.7237      46.7237      46.7237 
  204000    130.34269   -7288.1236   -6589.5524   -668.56709     102002.7      46.7237      46.7237      46.7237 
  205000    135.20188   -7297.4737   -6572.8597   -1059.2005     102002.7      46.7237      46.7237      46.7237 
  206000    127.01288   -7282.4267   -6601.7016   -1027.6126     102002.7      46.7237      46.7237      46.7237 
  207000    127.81583   -7321.5898   -6636.5613   -451.08076     102002.7      46.7237      46.7237      46.7237 
  208000    127.16951   -7286.5217   -6604.9571   -805.87505     102002.7      46.7237      46.7237      46.7237 
  209000    132.48158   -7319.7809   -6609.7464    -797.5746     102002.7      46.7237      46.7237      46.7237 
  210000    129.37526   -7304.4051   -6611.0189   -638.77841     102002.7      46.7237      46.7237      46.7237 
  211000    132.87114   -7299.8346   -6587.7122   -913.95077     102002.7      46.7237      46.7237      46.7237 
  212000    132.02397   -7297.0097   -6589.4277   -730.86562     102002.7      46.7237      46.7237      46.7237 
  213000    133.35615   -7290.0756   -6575.3538    -633.0102     102002.7      46.7237      46.7237      46.7237 
  214000    128.48993   -7293.2333    -6604.592   -683.43592     102002.7      46.7237      46.7237      46.7237 
  215000    127.69862   -7323.7162   -6639.3159   -644.78956     102002.7      46.7237      46.7237      46.7237 
  216000     129.5274   -7291.2507   -6597.0491   -643.02646     102002.7      46.7237      46.7237      46.7237 
  217000    125.48717   -7293.2359   -6620.6879   -847.54282     102002.7      46.7237      46.7237      46.7237 
  218000     128.1109   -7286.7436   -6600.1337   -559.37342     102002.7      46.7237      46.7237      46.7237 
  219000    134.48161   -7281.0228   -6560.2691   -540.23149     102002.7      46.7237      46.7237      46.7237 
  220000    129.51975   -7291.0264   -6596.8658   -770.24306     102002.7      46.7237      46.7237      46.7237 
  221000    129.79359   -7291.3244   -6595.6961   -390.02884     102002.7      46.7237      46.7237      46.7237 
  222000    130.61102   -7297.6897   -6597.6804   -609.16026     102002.7      46.7237      46.7237      46.7237 
  223000    132.72185   -7287.2668   -6575.9445   -739.04367     102002.7      46.7237      46.7237      46.7237 
  224000    132.08665   -7312.1353   -6604.2173   -778.62573     102002.7      46.7237      46.7237      46.7237 
  225000    129.57647   -7296.5941   -6602.1295   -578.24253     102002.7      46.7237      46.7237      46.7237 
  226000    126.52694    -7298.298   -6620.1774   -734.51081     102002.7      46.7237      46.7237      46.7237 
  227000    128.76903   -7330.8147   -6640.6776   -691.71969     102002.7      46.7237      46.7237      46.7237 
  228000    127.17416   -7305.4348   -6623.8453   -564.99211     102002.7      46.7237      46.7237      46.7237 
  229000    130.45617   -7315.1664   -6615.9871   -670.71406     102002.7      46.7237      46.7237      46.7237 
  230000    127.80312   -7297.6991   -6612.7387   -690.42896     102002.7      46.7237      46.7237      46.7237 
  231000    132.28017    -7301.545   -6592.5899   -866.61107     102002.7      46.7237      46.7237      46.7237 
  232000    132.88214   -7296.8993    -6584.718   -646.98692     102002.7      46.7237      46.7237      46.7237 
  233000    127.09766   -7293.9761   -6612.7966   -744.74525     102002.7      46.7237      46.7237      46.7237 
  234000    128.73997    -7317.036   -6627.0545   -853.51092     102002.7      46.7237      46.7237      46.7237 
  235000    131.32601   -7308.9013     -6605.06   -481.63296     102002.7      46.7237      46.7237      46.7237 
  236000    133.11429   -7300.1107   -6586.6852    -709.5761     102002.7      46.7237      46.7237      46.7237 
  237000     131.4163     -7316.67   -6612.3448   -459.55906     102002.7      46.7237      46.7237      46.7237 
  238000    126.77952   -7327.2908   -6647.8165   -489.04195     102002.7      46.7237      46.7237      46.7237 
  239000    129.62591   -7308.6253   -6613.8957   -574.51417     102002.7      46.7237      46.7237      46.7237 
  240000    129.77389   -7297.6428     -6602.12   -848.99455     102002.7      46.7237      46.7237      46.7237 
  241000    124.25287   -7301.0643   -6635.1315   -581.70319     102002.7      46.7237      46.7237      46.7237 
  242000    130.82191   -7303.5829   -6602.4434   -739.73359     102002.7      46.7237      46.7237      46.7237 
  243000    128.54307   -7329.0751   -6640.1489   -703.84291     102002.7      46.7237      46.7237      46.7237 
  244000    129.00037   -7285.0624   -6593.6854   -881.21044     102002.7      46.7237      46.7237      46.7237 
  245000    124.69959   -7295.9022   -6627.5752    -714.2111     102002.7      46.7237      46.7237      46.7237 
  246000    133.36508   -7307.6762   -6592.9065   -857.17621     102002.7      46.7237      46.7237      46.7237 
  247000    127.74967   -7320.4202   -6635.7462   -945.75586     102002.7      46.7237      46.7237      46.7237 
  248000     132.7996   -7298.3673   -6586.6283   -821.07045     102002.7      46.7237      46.7237      46.7237 
  249000    129.77618   -7313.3788   -6617.8438   -691.52494     102002.7      46.7237      46.7237      46.7237 
  250000    130.85524   -7291.5308   -6590.2126   -498.86219     102002.7      46.7237      46.7237      46.7237 
  251000    133.01173   -7341.9691   -6629.0932    -826.4426     102002.7      46.7237      46.7237      46.7237 
  252000    131.33898    -7315.342   -6611.4312   -489.61748     102002.7      46.7237      46.7237      46.7237 
  253000    131.73164   -7303.6622    -6597.647   -837.71044     102002.7      46.7237      46.7237      46.7237 
  254000    134.12497   -7302.6045   -6583.7622   -851.70004     102002.7      46.7237      46.7237      46.7237 
  255000    130.15096   -7308.7887   -6611.2451   -849.00069     102002.7      46.7237      46.7237      46.7237 
  256000     132.0609   -7330.2632   -6622.4833   -522.79699     102002.7      46.7237      46.7237      46.7237 
  257000    131.59674   -7302.7827   -6597.4904   -895.84548     102002.7      46.7237      46.7237      46.7237 
  258000     130.7417   -7313.2838   -6612.5741   -815.51619     102002.7      46.7237      46.7237      46.7237 
  259000    129.87201   -7289.6055   -6593.5569    -488.4083     102002.7      46.7237      46.7237      46.7237 
  260000    132.66713   -7295.5342   -6584.5052   -547.51349     102002.7      46.7237      46.7237      46.7237 
  261000    130.29244   -7290.3393   -6592.0375   -690.43862     102002.7      46.7237      46.7237      46.7237 
  262000    124.84467   -7285.7875    -6616.683   -925.35009     102002.7      46.7237      46.7237      46.7237 
  263000    127.09813   -7287.0863   -6605.9044   -702.52285     102002.7      46.7237      46.7237      46.7237 
  264000    132.86678   -7313.9039   -6601.8048    -809.2353     102002.7      46.7237      46.7237      46.7237 
  265000    130.82412   -7318.7274    -6617.576   -925.94164     102002.7      46.7237      46.7237      46.7237 
  266000    136.28379   -7293.1433   -6562.7307   -773.79382     102002.7      46.7237      46.7237      46.7237 
  267000    132.77302   -7291.4537   -6579.8572   -970.01594     102002.7      46.7237      46.7237      46.7237 
  268000    132.96184   -7311.0209   -6598.4123   -927.66012     102002.7      46.7237      46.7237      46.7237 
  269000    128.03925   -7291.3183   -6605.0923   -972.44317     102002.7      46.7237      46.7237      46.7237 
  270000    127.47186   -7293.8189   -6610.6339   -614.36582     102002.7      46.7237      46.7237      46.7237 
  271000     130.5982   -7282.1252   -6582.1846   -897.59998     102002.7      46.7237      46.7237      46.7237 
  272000    127.48862   -7302.9927   -6619.7179   -774.27269     102002.7      46.7237      46.7237      46.7237 
  273000    128.66759   -7295.6448   -6606.0513   -927.45784     102002.7      46.7237      46.7237      46.7237 
  274000    127.45761   -7312.2195   -6629.1109   -517.79461     102002.7      46.7237      46.7237      46.7237 
  275000    129.16662   -7305.1653   -6612.8972   -733.99701     102002.7      46.7237      46.7237      46.7237 
  276000    130.54753   -7287.8069   -6588.1378     -957.692     102002.7      46.7237      46.7237      46.7237 
  277000    128.38712   -7316.6934   -6628.6031   -665.70372     102002.7      46.7237      46.7237      46.7237 
  278000    134.88798   -7307.6193   -6584.6876   -809.26626     102002.7      46.7237      46.7237      46.7237 
  279000    129.28649   -7293.2848   -6600.3743   -624.11441     102002.7      46.7237      46.7237      46.7237 
  280000    129.15902   -7332.2694    -6640.042   -714.73362     102002.7      46.7237      46.7237      46.7237 
  281000    132.04298   -7299.0959   -6591.4121   -473.33861     102002.7      46.7237      46.7237      46.7237 
  282000    130.66491   -7297.0314   -6596.7333   -898.60582     102002.7      46.7237      46.7237      46.7237 
  283000    131.05231   -7305.6865   -6603.3121   -459.08607     102002.7      46.7237      46.7237      46.7237 
  284000    132.15958   -7316.5752   -6608.2664    -595.2944     102002.7      46.7237      46.7237      46.7237 
  285000    130.73457   -7298.5517   -6597.8802   -708.93561     102002.7      46.7237      46.7237      46.7237 
  286000     126.7238   -7303.7281   -6624.5524   -697.65995     102002.7      46.7237      46.7237      46.7237 
  287000    131.02576   -7326.4197   -6624.1876   -674.72303     102002.7      46.7237      46.7237      46.7237 
  288000    130.03692   -7317.3947   -6620.4623   -335.50075     102002.7      46.7237      46.7237      46.7237 
  289000    133.44458   -7285.6312   -6570.4355   -661.28583     102002.7      46.7237      46.7237      46.7237 
  290000    129.19097   -7308.8702   -6616.4716   -856.75346     102002.7      46.7237      46.7237      46.7237 
  291000    131.08987   -7287.9765   -6585.4008   -854.06354     102002.7      46.7237      46.7237      46.7237 
  292000    127.55148   -7300.0797    -6616.468   -798.33634     102002.7      46.7237      46.7237      46.7237 
  293000    126.45677   -7308.7278   -6630.9832   -877.06616     102002.7      46.7237      46.7237      46.7237 
  294000    129.13039   -7298.4037   -6606.3298   -698.96155     102002.7      46.7237      46.7237      46.7237 
  295000    129.49015   -7322.5222   -6628.5202   -656.30873     102002.7      46.7237      46.7237      46.7237 
  296000    131.59005   -7295.6522   -6590.3958   -663.28984     102002.7      46.7237      46.7237      46.7237 
  297000    136.04512    -7322.085   -6592.9516   -419.15932     102002.7      46.7237      46.7237      46.7237 
  298000    126.41078   -7300.7283   -6623.2302   -832.73257     102002.7      46.7237      46.7237      46.7237 
  299000    132.17019    -7311.833   -6603.4674   -546.52263     102002.7      46.7237      46.7237      46.7237 
  300000    130.22541   -7287.3403   -6589.3977   -784.09042     102002.7      46.7237      46.7237      46.7237 
  301000    127.72963    -7310.599   -6626.0325   -538.44795     102002.7      46.7237      46.7237      46.7237 
  302000    130.28576   -7299.6606   -6601.3945   -658.40816     102002.7      46.7237      46.7237      46.7237 
  303000    131.92091   -7303.5324   -6596.5027    -344.7563     102002.7      46.7237      46.7237      46.7237 
  304000    132.89758   -7287.4446   -6575.1805   -818.34893     102002.7      46.7237      46.7237      46.7237 
  305000    126.12247   -7298.0295   -6622.0765   -771.19544     102002.7      46.7237      46.7237      46.7237 
  306000     130.3339   -7293.7677   -6595.2436   -819.79599     102002.7      46.7237      46.7237      46.7237 
  307000    130.86783    -7297.538   -6596.1523   -642.42452     102002.7      46.7237      46.7237      46.7237 
  308000    129.30538   -7320.3721   -6627.3603   -530.79093     102002.7      46.7237      46.7237      46.7237 
  309000    129.78784    -7302.052   -6606.4545   -554.33166     102002.7      46.7237      46.7237      46.7237 
  310000    133.68421   -7320.5623   -6604.0823    -619.2498     102002.7      46.7237      46.7237      46.7237 
  311000    129.51382   -7320.1408   -6626.0119   -356.26022     102002.7      46.7237      46.7237      46.7237 
  312000    129.47478    -7298.313   -6604.3934   -711.07363     102002.7      46.7237      46.7237      46.7237 
  313000    128.67081   -7323.9144   -6634.3037   -526.70888     102002.7      46.7237      46.7237      46.7237 
  314000    134.00919   -7325.2607   -6607.0389    -609.9343     102002.7      46.7237      46.7237      46.7237 
  315000    128.58151   -7311.3822   -6622.2501   -629.09188     102002.7      46.7237      46.7237      46.7237 
  316000    131.95226   -7321.4056   -6614.2079   -425.89111     102002.7      46.7237      46.7237      46.7237 
  317000    130.44975   -7295.0834   -6595.9384   -882.82812     102002.7      46.7237      46.7237      46.7237 
  318000    133.78137   -7293.5948    -6576.594   -1066.7704     102002.7      46.7237      46.7237      46.7237 
  319000    130.87377   -7321.3756    -6619.958   -888.92462     102002.7      46.7237      46.7237      46.7237 
  320000    125.75689   -7306.7254   -6632.7318   -781.45048     102002.7      46.7237      46.7237      46.7237 
  321000    129.82976   -7318.4033   -6622.5812   -633.19879     102002.7      46.7237      46.7237      46.7237 
  322000    128.47674   -7302.4478   -6613.8772   -715.24397     102002.7      46.7237      46.7237      46.7237 
  323000    135.06635   -7298.7886   -6574.9009   -1031.9958     102002.7      46.7237      46.7237      46.7237 
  324000    125.74336   -7306.2535   -6632.3324   -630.14435     102002.7      46.7237      46.7237      46.7237 
  325000    128.04943   -7308.5566   -6622.2762   -865.87589     102002.7      46.7237      46.7237      46.7237 
  326000    131.62753   -7311.7502   -6606.2929   -809.21143     102002.7      46.7237      46.7237      46.7237 
  327000    138.48058   -7300.7081    -6558.522   -750.96372     102002.7      46.7237      46.7237      46.7237 
  328000    132.74397   -7297.3413   -6585.9005   -660.31384     102002.7      46.7237      46.7237      46.7237 
  329000    128.60301   -7310.5395   -6621.2921   -798.86339     102002.7      46.7237      46.7237      46.7237 
  330000    130.47937    -7266.583   -6567.2793   -1032.7178     102002.7      46.7237      46.7237      46.7237 
  331000    131.75732   -7326.2198   -6620.0669    -500.1115     102002.7      46.7237      46.7237      46.7237 
  332000    131.56841   -7289.5002   -6584.3598   -412.00812     102002.7      46.7237      46.7237      46.7237 
  333000    130.03214   -7291.5072   -6594.6004    -641.1525     102002.7      46.7237      46.7237      46.7237 
  334000    123.12493   -7336.0806    -6676.193   -783.54601     102002.7      46.7237      46.7237      46.7237 
  335000    129.97154   -7298.4754   -6601.8934   -654.84446     102002.7      46.7237      46.7237      46.7237 
  336000    132.35787   -7296.6114   -6587.2398   -943.12769     102002.7      46.7237      46.7237      46.7237 
  337000     130.8695   -7314.7089   -6613.3143   -607.29685     102002.7      46.7237      46.7237      46.7237 
  338000    128.53583   -7305.3616   -6616.4742   -855.22305     102002.7      46.7237      46.7237      46.7237 
  339000    134.20506   -7283.7091   -6564.4376    -601.6215     102002.7      46.7237      46.7237      46.7237 
  340000    131.41621   -7296.0904   -6591.7657   -548.52337     102002.7      46.7237      46.7237      46.7237 
  341000    128.92838   -7318.0313     -6627.04   -1032.4745     102002.7      46.7237      46.7237      46.7237 
  342000    130.68882   -7290.4845   -6590.0583   -281.13731     102002.7      46.7237      46.7237      46.7237 
  343000    129.26388   -7306.7977   -6614.0084   -673.59259     102002.7      46.7237      46.7237      46.7237 
  344000    132.56679   -7294.0086   -6583.5174   -873.02578     102002.7      46.7237      46.7237      46.7237 
  345000    129.36329   -7323.1194   -6629.7973   -648.43292     102002.7      46.7237      46.7237      46.7237 
  346000    131.67585    -7295.657   -6589.9407   -823.60724     102002.7      46.7237      46.7237      46.7237 
  347000    130.44273   -7284.9348   -6585.8275   -887.68036     102002.7      46.7237      46.7237      46.7237 
  348000    131.50362   -7328.8261   -6624.0329     -796.402     102002.7      46.7237      46.7237      46.7237 
  349000    129.36636   -7298.7013   -6605.3628   -641.58007     102002.7      46.7237      46.7237      46.7237 
  350000    126.68855   -7311.3148   -6632.3279   -681.24745     102002.7      46.7237      46.7237      46.7237 
  351000    131.58074   -7308.2115    -6603.005   -344.12985     102002.7      46.7237      46.7237      46.7237 
  352000    127.38101   -7303.6423   -6620.9442   -614.11605     102002.7      46.7237      46.7237      46.7237 
  353000    129.01348   -7300.1435   -6608.6962    -378.2336     102002.7      46.7237      46.7237      46.7237 
  354000    130.93804   -7299.5415   -6597.7795   -873.42097     102002.7      46.7237      46.7237      46.7237 
  355000    129.47296   -7302.0695   -6608.1596   -743.97332     102002.7      46.7237      46.7237      46.7237 
  356000    134.73907   -7289.2815   -6567.1479   -590.08655     102002.7      46.7237      46.7237      46.7237 
  357000    128.73475    -7304.122   -6614.1686   -940.67711     102002.7      46.7237      46.7237      46.7237 
  358000    128.20153   -7322.2253   -6635.1297   -660.30282     102002.7      46.7237      46.7237      46.7237 
  359000    132.31051   -7332.8736   -6623.7559   -646.75007     102002.7      46.7237      46.7237      46.7237 
  360000    130.74805   -7305.0802   -6604.3365   -543.71085     102002.7      46.7237      46.7237      46.7237 
  361000     127.5455    -7307.821   -6624.2414   -793.76497     102002.7      46.7237      46.7237      46.7237 
  362000    130.08471   -7301.9019   -6604.7133   -626.77316     102002.7      46.7237      46.7237      46.7237 
  363000    130.59838   -7299.8817   -6599.9401   -727.13282     102002.7      46.7237      46.7237      46.7237 
  364000    128.45681   -7305.2327   -6616.7689   -837.50252     102002.7      46.7237      46.7237      46.7237 
  365000    133.67816   -7296.7097   -6580.2621   -588.89275     102002.7      46.7237      46.7237      46.7237 
  366000    129.31489   -7316.2108   -6623.1481   -879.97874     102002.7      46.7237      46.7237      46.7237 
  367000    127.62515   -7328.0523   -6644.0457   -1168.2112     102002.7      46.7237      46.7237      46.7237 
  368000    130.21986   -7296.1293   -6598.2165   -594.48733     102002.7      46.7237      46.7237      46.7237 
  369000    128.16158    -7302.038   -6615.1564   -472.71426     102002.7      46.7237      46.7237      46.7237 
  370000    126.60002   -7292.4463    -6613.934   -620.43045     102002.7      46.7237      46.7237      46.7237 
  371000    130.39126   -7325.4762   -6626.6447   -525.13988     102002.7      46.7237      46.7237      46.7237 
  372000    130.37956   -7306.4276   -6607.6588   -458.24581     102002.7      46.7237      46.7237      46.7237 
  373000    134.65399   -7299.2926   -6577.6151   -341.40309     102002.7      46.7237      46.7237      46.7237 
  374000    129.40369   -7298.2788   -6604.7402   -826.09625     102002.7      46.7237      46.7237      46.7237 
  375000    128.96762   -7274.2741   -6583.0726   -653.85863     102002.7      46.7237      46.7237      46.7237 
  376000    130.81623   -7316.5522   -6615.4431   -737.08298     102002.7      46.7237      46.7237      46.7237 
  377000     125.5563   -7306.4304   -6633.5118   -797.65772     102002.7      46.7237      46.7237      46.7237 
  378000    130.84459   -7306.5503   -6605.2891   -545.43553     102002.7      46.7237      46.7237      46.7237 
  379000    130.86716   -7316.9201    -6615.538   -503.20573     102002.7      46.7237      46.7237      46.7237 
  380000     129.4033   -7316.5915    -6623.055   -787.17692     102002.7      46.7237      46.7237      46.7237 
  381000    130.93174   -7311.3135   -6609.5853   -354.45195     102002.7      46.7237      46.7237      46.7237 
  382000    125.75817   -7289.1603   -6615.1599   -584.17924     102002.7      46.7237      46.7237      46.7237 
  383000    126.86462   -7321.6652   -6641.7347   -649.42027     102002.7      46.7237      46.7237      46.7237 
  384000    126.65779   -7296.4114   -6617.5895   -990.24746     102002.7      46.7237      46.7237      46.7237 
  385000    133.16249   -7316.7982   -6603.1143   -717.83941     102002.7      46.7237      46.7237      46.7237 
  386000    133.21981   -7294.9127   -6580.9216   -902.60751     102002.7      46.7237      46.7237      46.7237 
  387000    127.38073   -7285.9541   -6603.2575   -707.07674     102002.7      46.7237      46.7237      46.7237 
  388000    126.01245    -7319.364   -6644.0007   -1120.5003     102002.7      46.7237      46.7237      46.7237 
  389000    127.48968   -7283.6245    -6600.344   -863.90713     102002.7      46.7237      46.7237      46.7237 
  390000    131.27379   -7318.8315   -6615.2701   -733.11066     102002.7      46.7237      46.7237      46.7237 
  391000    129.58602   -7303.1881   -6608.6722   -800.44087     102002.7      46.7237      46.7237      46.7237 
  392000    130.62627    -7304.729   -6604.6379   -653.81285     102002.7      46.7237      46.7237      46.7237 
  393000    131.89943   -7324.6846   -6617.7701   -1061.6935     102002.7      46.7237      46.7237      46.7237 
  394000    129.08662   -7274.8868   -6583.0475   -1014.2892     102002.7      46.7237      46.7237      46.7237 
  395000    124.55913   -7278.3033   -6610.7291   -782.87085     102002.7      46.7237      46.7237      46.7237 
  396000    136.70718   -7296.5568   -6563.8752   -758.09703     102002.7      46.7237      46.7237      46.7237 
  397000    125.55624   -7290.4995   -6617.5813   -724.03841     102002.7      46.7237      46.7237      46.7237 
  398000     128.6799   -7279.1458   -6589.4863   -715.52238     102002.7      46.7237      46.7237      46.7237 
  399000    128.50795   -7307.3988   -6618.6608   -782.72713     102002.7      46.7237      46.7237      46.7237 
  400000    130.17313   -7337.6794   -6640.0169   -768.66535     102002.7      46.7237      46.7237      46.7237 
  401000     129.2644   -7299.5582   -6606.7661   -741.06138     102002.7      46.7237      46.7237      46.7237 
  402000    128.37088   -7305.6023   -6617.5991   -547.29366     102002.7      46.7237      46.7237      46.7237 
  403000    126.42624   -7317.7221   -6640.1411    -735.2386     102002.7      46.7237      46.7237      46.7237 
  404000    130.10174   -7310.2536   -6612.9738   -944.98882     102002.7      46.7237      46.7237      46.7237 
  405000    130.99487   -7296.8845    -6594.818   -867.74744     102002.7      46.7237      46.7237      46.7237 
  406000    130.62652   -7297.7399   -6597.6476   -786.85289     102002.7      46.7237      46.7237      46.7237 
  407000    129.09056   -7293.7606   -6601.9002   -493.13058     102002.7      46.7237      46.7237      46.7237 
  408000    131.51927   -7305.2191    -6600.342   -700.79889     102002.7      46.7237      46.7237      46.7237 
  409000    130.28282   -7288.6333    -6590.383   -754.60671     102002.7      46.7237      46.7237      46.7237 
  410000    128.77355   -7333.1224    -6642.961   -622.13321     102002.7      46.7237      46.7237      46.7237 
  411000    130.89944   -7285.3794   -6583.8243   -744.84385     102002.7      46.7237      46.7237      46.7237 
  412000    130.47651   -7304.0844   -6604.7959    -683.2127     102002.7      46.7237      46.7237      46.7237 
  413000    126.14861   -7286.5974   -6610.5044   -770.82375     102002.7      46.7237      46.7237      46.7237 
  414000    129.15105   -7301.9174   -6609.7328    -562.4447     102002.7      46.7237      46.7237      46.7237 
  415000     133.5515   -7305.3244   -6589.5556   -718.65133     102002.7      46.7237      46.7237      46.7237 
  416000    131.60631   -7300.6036   -6595.2601   -506.52776     102002.7      46.7237      46.7237      46.7237 
  417000    127.85714   -7306.7008   -6621.4509    -933.7791     102002.7      46.7237      46.7237      46.7237 
  418000    129.39944   -7310.5396   -6617.0238   -815.08328     102002.7      46.7237      46.7237      46.7237 
  419000    132.53305   -7315.4171   -6605.1067   -627.65092     102002.7      46.7237      46.7237      46.7237 
  420000    132.56556   -7306.7738   -6596.2892   -422.67038     102002.7      46.7237      46.7237      46.7237 
  421000    133.11498   -7306.3447   -6592.9155   -784.29207     102002.7      46.7237      46.7237      46.7237 
  422000    127.98669   -7306.1332    -6620.189   -840.06698     102002.7      46.7237      46.7237      46.7237 
  423000    131.06415   -7292.8367   -6590.3989   -821.80018     102002.7      46.7237      46.7237      46.7237 
  424000    129.12315   -7335.2299   -6643.1949   -621.18482     102002.7      46.7237      46.7237      46.7237 
  425000    128.57477   -7303.8419   -6614.7459   -673.11222     102002.7      46.7237      46.7237      46.7237 
  426000    126.84835   -7271.3284   -6591.4851   -1042.6838     102002.7      46.7237      46.7237      46.7237 
  427000    126.71815   -7284.4965    -6605.351   -896.25692     102002.7      46.7237      46.7237      46.7237 
  428000    127.96731   -7318.7307   -6632.8903   -903.70155     102002.7      46.7237      46.7237      46.7237 
  429000    130.15267   -7294.0793   -6596.5265   -916.48082     102002.7      46.7237      46.7237      46.7237 
  430000    129.28972   -7308.1928    -6615.265   -752.67236     102002.7      46.7237      46.7237      46.7237 
  431000    130.11762   -7300.1005   -6602.7356   -599.77365     102002.7      46.7237      46.7237      46.7237 
  432000    129.37341    -7280.381   -6587.0047   -967.17067     102002.7      46.7237      46.7237      46.7237 
  433000    130.43344   -7306.7613   -6607.7037   -662.52789     102002.7      46.7237      46.7237      46.7237 
  434000    134.33559   -7316.8883   -6596.9172   -537.91952     102002.7      46.7237      46.7237      46.7237 
  435000    128.33057   -7318.8224   -6631.0351   -1008.4758     102002.7      46.7237      46.7237      46.7237 
  436000    132.98413   -7305.7349   -6593.0069   -862.70222     102002.7      46.7237      46.7237      46.7237 
  437000    131.42546   -7296.9504   -6592.5761   -808.40423     102002.7      46.7237      46.7237      46.7237 
  438000    131.47124   -7295.8117    -6591.192   -1123.7719     102002.7      46.7237      46.7237      46.7237 
  439000    128.69986   -7327.0585    -6637.292   -794.61224     102002.7      46.7237      46.7237      46.7237 
  440000    130.64214   -7326.8892   -6626.7131   -824.26693     102002.7      46.7237      46.7237      46.7237 
  441000     130.3988   -7307.6984   -6608.8265   -807.39206     102002.7      46.7237      46.7237      46.7237 
  442000    131.20064   -7311.4174   -6608.2481   -1115.9744     102002.7      46.7237      46.7237      46.7237 
  443000    129.57023   -7254.2325   -6559.8013   -564.94655     102002.7      46.7237      46.7237      46.7237 
  444000    129.30096   -7309.3667   -6616.3787   -889.46071     102002.7      46.7237      46.7237      46.7237 
  445000     133.7604   -7301.4431   -6584.5547   -852.92187     102002.7      46.7237      46.7237      46.7237 
  446000    129.75454   -7310.7683   -6615.3493   -791.18155     102002.7      46.7237      46.7237      46.7237 
  447000    132.68444   -7294.3535   -6583.2317   -936.47265     102002.7      46.7237      46.7237      46.7237 
  448000    129.10107   -7326.1803   -6634.2636   -945.83631     102002.7      46.7237      46.7237      46.7237 
  449000    131.27115   -7323.3038   -6619.7565     -685.751     102002.7      46.7237      46.7237      46.7237 
  450000     133.2381   -7307.8618   -6593.7727    -647.8988     102002.7      46.7237      46.7237      46.7237 
  451000    123.32963   -7281.6702   -6620.6855   -845.95433     102002.7      46.7237      46.7237      46.7237 
  452000     126.7473   -7334.4933   -6655.1916   -825.58276     102002.7      46.7237      46.7237      46.7237 
  453000    127.41563   -7281.5394   -6598.6558   -461.96842     102002.7      46.7237      46.7237      46.7237 
  454000     129.3726   -7304.0224   -6610.6504   -563.13515     102002.7      46.7237      46.7237      46.7237 
  455000    132.33998   -7285.2099   -6575.9342   -751.41512     102002.7      46.7237      46.7237      46.7237 
  456000    131.92886   -7306.2065   -6599.1342   -735.75922     102002.7      46.7237      46.7237      46.7237 
  457000    126.79757    -7326.962   -6647.3909   -890.23135     102002.7      46.7237      46.7237      46.7237 
  458000    129.33738   -7307.2228   -6614.0396   -609.31556     102002.7      46.7237      46.7237      46.7237 
  459000    125.20456   -7289.1661   -6618.1327   -927.67329     102002.7      46.7237      46.7237      46.7237 
  460000    125.69547    -7314.325   -6640.6606   -765.74018     102002.7      46.7237      46.7237      46.7237 
  461000    132.42768   -7309.5792   -6599.8335   -973.14522     102002.7      46.7237      46.7237      46.7237 
  462000    124.20585   -7310.8681   -6645.1873   -769.65629     102002.7      46.7237      46.7237      46.7237 
  463000    131.91156   -7308.7525    -6601.773   -864.12142     102002.7      46.7237      46.7237      46.7237 
  464000    127.89339   -7298.6867   -6613.2425   -866.14883     102002.7      46.7237      46.7237      46.7237 
  465000    126.74924   -7286.2608   -6606.9487   -650.58943     102002.7      46.7237      46.7237      46.7237 
  466000    133.65077   -7298.1539    -6581.853   -506.79689     102002.7      46.7237      46.7237      46.7237 
  467000    126.06262   -7328.6606   -6653.0285   -875.52453     102002.7      46.7237      46.7237      46.7237 
  468000    127.07437   -7306.2863   -6625.2317   -366.40599     102002.7      46.7237      46.7237      46.7237 
  469000    133.40848   -7326.6876   -6611.6853   -965.46874     102002.7      46.7237      46.7237      46.7237 
  470000    124.39476   -7312.4863    -6645.793    -649.0887     102002.7      46.7237      46.7237      46.7237 
  471000    130.90698   -7313.0983   -6611.5028   -509.87314     102002.7      46.7237      46.7237      46.7237 
  472000    129.42915    -7304.391   -6610.7159   -938.54906     102002.7      46.7237      46.7237      46.7237 
  473000    137.49244   -7308.3097   -6571.4194   -552.19824     102002.7      46.7237      46.7237      46.7237 
  474000    130.35147   -7289.3734   -6590.7551   -926.08735     102002.7      46.7237      46.7237      46.7237 
  475000    131.18397    -7314.021    -6610.941   -730.24866     102002.7      46.7237      46.7237      46.7237 
  476000    124.57486   -7293.4407   -6625.7822    -982.1164     102002.7      46.7237      46.7237      46.7237 
  477000    131.44167   -7311.4889   -6607.0278   -543.77962     102002.7      46.7237      46.7237      46.7237 
  478000     129.7172   -7322.5527   -6627.3338   -698.18301     102002.7      46.7237      46.7237      46.7237 
  479000    130.06018   -7297.0659   -6600.0088   -799.88276     102002.7      46.7237      46.7237      46.7237 
  480000    136.37389   -7302.8029   -6571.9075    -678.4053     102002.7      46.7237      46.7237      46.7237 
  481000    130.32533    -7309.772   -6611.2939   -823.63973     102002.7      46.7237      46.7237      46.7237 
  482000    132.76526   -7313.9623   -6602.4074    -429.8006     102002.7      46.7237      46.7237      46.7237 
  483000    131.13612   -7295.6032   -6592.7796   -907.52631     102002.7      46.7237      46.7237      46.7237 
  484000    127.07674   -7314.7937   -6633.7264   -900.82925     102002.7      46.7237      46.7237      46.7237 
  485000    131.32752    -7294.089   -6590.2396   -655.13573     102002.7      46.7237      46.7237      46.7237 
  486000    127.25558   -7301.4082   -6619.3824   -974.87527     102002.7      46.7237      46.7237      46.7237 
  487000    129.28668   -7304.1923   -6611.2808   -815.34519     102002.7      46.7237      46.7237      46.7237 
  488000    125.59886   -7300.7103   -6627.5637   -1015.1059     102002.7      46.7237      46.7237      46.7237 
  489000    132.00808   -7283.8231   -6576.3263   -801.78396     102002.7      46.7237      46.7237      46.7237 
  490000     126.1817   -7294.1438   -6617.8734   -713.84465     102002.7      46.7237      46.7237      46.7237 
  491000    127.84383   -7290.0192   -6604.8406   -649.36453     102002.7      46.7237      46.7237      46.7237 
  492000    129.83086   -7305.7942   -6609.9662   -625.29086     102002.7      46.7237      46.7237      46.7237 
  493000    129.12599   -7292.0817   -6600.0315   -480.17521     102002.7      46.7237      46.7237      46.7237 
  494000    132.30185   -7301.6268   -6592.5555   -606.68773     102002.7      46.7237      46.7237      46.7237 
  495000    129.40811   -7305.2213    -6611.659   -630.31544     102002.7      46.7237      46.7237      46.7237 
  496000    131.54824   -7316.0598   -6611.0275   -733.78097     102002.7      46.7237      46.7237      46.7237 
  497000    134.09996   -7297.5557   -6578.8474   -568.18811     102002.7      46.7237      46.7237      46.7237 
  498000    129.69688   -7315.0247   -6619.9147   -431.75049     102002.7      46.7237      46.7237      46.7237 
  499000    134.12926    -7310.595   -6591.7298   -924.57629     102002.7      46.7237      46.7237      46.7237 
  500000    131.09099   -7296.9694   -6594.3877   -921.91561     102002.7      46.7237      46.7237      46.7237 
  500502    130.08608   -7273.0969   -6575.9011   -869.50325     102002.7      46.7237      46.7237      46.7237 
Loop time of 1302.56 on 16 procs for 500000 steps with 1799 atoms

Performance: 33.166 ns/day, 0.724 hours/ns, 383.860 timesteps/s
99.8% CPU use with 16 MPI tasks x no OpenMP threads

MPI task timing breakdown:
Section |  min time  |  avg time  |  max time  |%varavg| %total
---------------------------------------------------------------
Pair    | 513.64     | 702.9      | 875.16     | 453.3 | 53.96
Bond    | 167.87     | 174.12     | 180.39     |  23.7 | 13.37
Neigh   | 5.5472     | 5.5819     | 5.6583     |   1.8 |  0.43
Comm    | 227.87     | 406.03     | 595.78     | 595.7 | 31.17
Output  | 0.020456   | 0.020916   | 0.023487   |   0.5 |  0.00
Modify  | 8.0608     | 8.4567     | 9.0796     |  12.2 |  0.65
Other   |            | 5.449      |            |       |  0.42

Nlocal:    112.438 ave 137 max 74 min
Histogram: 1 0 2 1 0 1 4 4 2 1
Nghost:    2289.06 ave 2336 max 2258 min
Histogram: 2 0 4 5 0 1 2 1 0 1
Neighs:    11461.6 ave 15214 max 8942 min
Histogram: 2 2 2 5 1 0 1 1 0 2

Total # of neighbors = 183386
Ave neighs/atom = 101.938
Ave special neighs/atom = 6.40356
Neighbor list builds = 4393
Dangerous builds = 0
Neighbor list info ...
  update every 1 steps, delay 10 steps, check yes
  max neighbors/atom: 2000, page size: 100000
  master list distance cutoff = 16
  ghost atom cutoff = 16
  binsize = 8, bins = 6 6 6
  3 neighbor lists, perpetual/occasional/extra = 3 0 0
  (1) pair buck6d/coul/gauss/dsf, perpetual, skip from (3)
      attributes: half, newton on
      pair build: skip
      stencil: none
      bin: none
  (2) pair lj/cut, perpetual, skip from (3)
      attributes: half, newton on
      pair build: skip
      stencil: none
      bin: none
  (3) neighbor class addition, perpetual
      attributes: half, newton on
      pair build: half/bin/newton
      stencil: half/bin/3d/newton
      bin: standard
Setting up Verlet run ...
  Unit style    : real
  Current step  : 500502
  Time step     : 1
WARNING: Inconsistent image flags (../domain.cpp:786)
Per MPI rank memory allocation (min/avg/max) = 23.22 | 23.32 | 23.34 Mbytes
Step Time TotEng KinEng PotEng E_mol E_pair Temp Pxx Pyy Pzz Pxy Pxz Pyz Cella Cellb Cellc CellAlpha CellBeta CellGamma Volume Press 
  500502       500000   -6575.9011    697.19588   -7273.0969    4437.6618   -11710.759    130.08608   -798.58863   -1062.8357    -747.0854   -65.425594    -242.8779   -323.94306      46.7237      46.7237      46.7237           90           90           90     102002.7   -869.50325 
  501000       500498   -6596.2816    700.88519   -7297.1668      4390.89   -11688.057    130.77445     -733.097    -598.9992   -1278.7629    36.369973    21.644671   -243.48749      46.7237      46.7237      46.7237           90           90           90     102002.7   -870.28636 
  502000       501498     -6600.34    699.11911   -7299.4591    4403.8814    -11703.34    130.44492   -111.39928    -1097.322   -284.47887    121.99972   -35.150838   -33.519887      46.7237      46.7237      46.7237           90           90           90     102002.7   -497.73338 
  503000       502498   -6601.6521     702.1237   -7303.7758    4417.9251   -11721.701    131.00553   -824.67121   -954.33893    -400.1064    23.598562    10.394162   -247.78854      46.7237      46.7237      46.7237           90           90           90     102002.7   -726.37218 
  504000       503498    -6639.907    680.60679   -7320.5138    4383.3259    -11703.84    126.99081   -455.41412   -376.14948   -669.73366    17.285591   -210.78099    110.74492      46.7237      46.7237      46.7237           90           90           90     102002.7   -500.43242 
  505000       504498    -6592.306    708.65062   -7300.9566    4392.4442   -11693.401    132.22336   -847.24141   -1486.7719   -929.02487   -136.31478    272.19563   -19.606408      46.7237      46.7237      46.7237           90           90           90     102002.7   -1087.6794 
  506000       505498   -6598.4676    694.26846   -7292.7361    4411.9542    -11704.69    129.53987   -359.33925   -878.88448   -446.79448    276.53939    326.98692    160.70278      46.7237      46.7237      46.7237           90           90           90     102002.7   -561.67274 
  507000       506498   -6620.2869    688.88632   -7309.1732    4401.6361   -11710.809    128.53564   -947.42747   -747.13341   -438.12758   -193.58078   -267.76311    111.75124      46.7237      46.7237      46.7237           90           90           90     102002.7   -710.89615 
  508000       507498    -6615.993    695.32704   -7311.3201     4392.192   -11703.512    129.73738   -1035.0519   -859.98379   -656.55657   -397.77165    262.63926   -10.075604      46.7237      46.7237      46.7237           90           90           90     102002.7   -850.53074 
  509000       508498   -6592.9048    694.50654   -7287.4114    4402.7989    -11690.21    129.58429    -376.7994   -327.53136   -841.28947   -169.08958    280.57459    48.085659      46.7237      46.7237      46.7237           90           90           90     102002.7   -515.20674 
  510000       509498   -6584.8728    706.13473   -7291.0075    4412.2773   -11703.285    131.75393   -498.48615   -770.40365   -726.33424     190.8766    95.375998   -29.153413      46.7237      46.7237      46.7237           90           90           90     102002.7   -665.07468 
  511000       510498   -6607.3419    685.85662   -7293.1985    4407.4682   -11700.667    127.97035   -593.18502   -1375.6762   -419.82851   -37.491294   -154.23023    135.45685      46.7237      46.7237      46.7237           90           90           90     102002.7   -796.22991 
  512000       511498   -6593.3534    696.71715   -7290.0705      4426.67    -11716.74    129.99675   -1219.6127   -313.44545   -997.60015    118.90767    263.01123    97.525978      46.7237      46.7237      46.7237           90           90           90     102002.7   -843.55277 
  513000       512498   -6640.7831     680.4316   -7321.2146    4398.3423   -11719.557    126.95812   -479.24745   -1155.3813   -1197.4604   -5.1327242    274.99548   -68.286313      46.7237      46.7237      46.7237           90           90           90     102002.7    -944.0297 
  514000       513498    -6597.066    706.72324   -7303.7893    4396.8157   -11700.605    131.86374   -761.09392    -1192.356   -521.50024   -274.14037    157.34338   -37.340318      46.7237      46.7237      46.7237           90           90           90     102002.7   -824.98339 
  515000       514498    -6631.819    677.69247   -7309.5114    4403.5843   -11713.096    126.44704   -956.11761   -1308.2197   -624.33184    149.75719    53.442753     110.7203      46.7237      46.7237      46.7237           90           90           90     102002.7   -962.88972 
  516000       515498    -6613.678    691.84259   -7305.5206    4397.5552   -11703.076    129.08724   -393.97741   -516.63594    -1203.537   -22.361765    2.5371148    108.36336      46.7237      46.7237      46.7237           90           90           90     102002.7   -704.71677 
  517000       516498   -6591.3645    700.56048    -7291.925    4415.8102   -11707.735    130.71386   -605.40854   -983.32813   -607.63048    -44.05516   -53.415504    143.87012      46.7237      46.7237      46.7237           90           90           90     102002.7   -732.12238 
  518000       517498   -6613.6791    683.66727   -7297.3463    4403.9883   -11701.335    127.56185   -630.26794   -901.06116   -1079.4725    75.999458    11.602198    57.308294      46.7237      46.7237      46.7237           90           90           90     102002.7   -870.26721 
  519000       518498   -6639.9748    679.22969   -7319.2045    4399.8554    -11719.06    126.73386    -674.9967    -1061.461   -402.69055    -222.0246   -121.94847   -236.31707      46.7237      46.7237      46.7237           90           90           90     102002.7   -713.04942 
  520000       519498   -6613.5921    689.94151   -7303.5337    4414.3284   -11717.862    128.73252   -435.35127   -1270.6005   -1073.4034     208.5516   -139.20073    331.75418      46.7237      46.7237      46.7237           90           90           90     102002.7   -926.45173 
  521000       520498   -6626.3509    675.02489   -7301.3758    4391.8353   -11693.211    125.94931   -459.14796   -384.87484   -877.44688     210.0024   -144.55042   -10.301858      46.7237      46.7237      46.7237           90           90           90     102002.7   -573.82323 
  522000       521498   -6618.9906    659.86463   -7278.8552    4411.2304   -11690.086    123.12064   -323.85649   -797.92269   -82.348979   -44.769454   -336.38653   -312.39236      46.7237      46.7237      46.7237           90           90           90     102002.7   -401.37605 
  523000       522498   -6603.3958    709.08579   -7312.4816    4399.6015   -11712.083    132.30455   -1097.2247   -710.64438   -751.72077   -79.461706   -144.59483   -131.71109      46.7237      46.7237      46.7237           90           90           90     102002.7   -853.19663 
  524000       523498   -6627.5651    679.59996   -7307.1651    4387.9244   -11695.089    126.80295   -783.51286   -539.13756   -497.77514   -22.337339   -63.999961    228.97983      46.7237      46.7237      46.7237           90           90           90     102002.7   -606.80852 
  525000       524498    -6588.294    725.89387   -7314.1879    4383.7426    -11697.93    135.44068   -954.56291   -1132.5227   -848.34078   -196.26276    286.07269   -115.78367      46.7237      46.7237      46.7237           90           90           90     102002.7   -978.47545 
  526000       525498    -6606.132    694.57312   -7300.7051     4391.305    -11692.01    129.59671   -679.88286   -726.69216    70.998976   -58.449089    139.02867   -25.259509      46.7237      46.7237      46.7237           90           90           90     102002.7   -445.19201 
  527000       526498   -6619.2534    689.81869   -7309.0721    4388.6484   -11697.721    128.70961   -540.34049   -457.47612   -470.56287    380.93186    152.37351   -158.46868      46.7237      46.7237      46.7237           90           90           90     102002.7   -489.45983 
  528000       527498   -6601.6426    708.40045   -7310.0431    4388.6228   -11698.666    132.17668   -875.40032   -1154.0305   -1042.9976   -325.39483    32.475724   -280.78333      46.7237      46.7237      46.7237           90           90           90     102002.7   -1024.1428 
  529000       528498     -6623.78    694.62329   -7318.4032    4382.7765    -11701.18    129.60607   -592.26499   -464.19125   -682.87647   -208.36104   -216.57032   -194.13007      46.7237      46.7237      46.7237           90           90           90     102002.7   -579.77757 
  530000       529498   -6611.7701     687.7107   -7299.4808    4398.0701   -11697.551    128.31629   -952.86597   -841.43527   -601.97787    39.992065    38.194334   -70.872754      46.7237      46.7237      46.7237           90           90           90     102002.7   -798.75971 
  531000       530498   -6574.8799    723.91588   -7298.7958    4414.4747   -11713.271    135.07162   -784.38986   -888.77614   -1040.3246   -168.11477    332.26249   -315.44134      46.7237      46.7237      46.7237           90           90           90     102002.7   -904.49686 
  532000       531498   -6610.6769    694.69672   -7305.3736    4404.0797   -11709.453    129.61977   -991.69418   -1167.3233   -900.73987   -232.68526    166.78837   -101.54607      46.7237      46.7237      46.7237           90           90           90     102002.7   -1019.9191 
  533000       532498    -6629.975     682.1392   -7312.1142    4393.4675   -11705.582    127.27673   -626.86734   -403.29703   -605.49095    178.73828   0.63463377   -39.995993      46.7237      46.7237      46.7237           90           90           90     102002.7   -545.21844 
  534000       533498   -6578.7554    706.17749   -7284.9329    4423.8563   -11708.789    131.76191   -1219.2885   -1235.1465   -931.05601   -6.2896751    240.76396   -137.67104      46.7237      46.7237      46.7237           90           90           90     102002.7    -1128.497 
  535000       534498   -6610.7448    704.86001   -7315.6048    4397.8654    -11713.47    131.51609   -708.52401   -622.97437   -730.16879   -123.56011   -1.3323648     113.4686      46.7237      46.7237      46.7237           90           90           90     102002.7   -687.22239 
  536000       535498   -6583.7527    723.06109   -7306.8138    4403.5854   -11710.399    134.91213   -497.47974   -911.69517   -861.97579   -93.790041    19.229318   -20.979512      46.7237      46.7237      46.7237           90           90           90     102002.7   -757.05023 
  537000       536498   -6619.9226    712.26443    -7332.187    4376.6886   -11708.876    132.89764   -828.17722   -813.82831   -810.24577   -99.463868    100.13597   -38.371249      46.7237      46.7237      46.7237           90           90           90     102002.7    -817.4171 
  538000       537498   -6619.1938    702.36852   -7321.5623    4384.2211   -11705.783    131.05121   -276.79864   -531.34624   -254.06835   -210.10532   -149.36823    241.77929      46.7237      46.7237      46.7237           90           90           90     102002.7   -354.07107 
  539000       538498   -6635.1979    676.16859   -7311.3665    4373.4568   -11684.823    126.16271   -208.16785   -846.97149   -445.21807    43.235565   -95.828093   -18.399177      46.7237      46.7237      46.7237           90           90           90     102002.7   -500.11914 
  540000       539498   -6587.6687    715.67199   -7303.3406     4409.546   -11712.887    133.53344   -329.44017   -318.12434   -439.79663   -76.969256    162.31119   -79.575981      46.7237      46.7237      46.7237           90           90           90     102002.7   -362.45371 
  541000       540498   -6575.7093    700.39702   -7276.1064     4426.157   -11702.263    130.68336   -891.51049   -792.77283   -519.89943   -14.506374   -127.15054   -139.91636      46.7237      46.7237      46.7237           90           90           90     102002.7   -734.72758 
  542000       541498   -6618.3304    694.81803   -7313.1484    4389.4231   -11702.571    129.64241   -729.02703   -670.81252   -406.28533   -257.69517   -239.03135    171.66221      46.7237      46.7237      46.7237           90           90           90     102002.7   -602.04163 
  543000       542498   -6609.5537    712.89374   -7322.4474    4401.0388   -11723.486    133.01506    -765.8715    -1062.293   -330.10248   -113.94429    295.80495   -88.164978      46.7237      46.7237      46.7237           90           90           90     102002.7   -719.42233 
  544000       543498   -6614.6573    690.43501   -7305.0923    4405.2015   -11710.294     128.8246   -1327.5218   -488.95329   -691.50153   -34.439479    138.33301   -112.17424      46.7237      46.7237      46.7237           90           90           90     102002.7   -835.99221 
  545000       544498    -6639.024    690.21037   -7329.2343    4379.5679   -11708.802    128.78269   -1027.6273   -431.01464   -1111.5205    -38.29368    87.244169    3.0965045      46.7237      46.7237      46.7237           90           90           90     102002.7   -856.72081 
  546000       545498   -6599.2312    689.55439   -7288.7856    4414.6771   -11703.463    128.66029   -594.29052   -1014.9816    -748.1696     18.44777   -279.17256   -32.057688      46.7237      46.7237      46.7237           90           90           90     102002.7   -785.81391 
  547000       546498   -6635.9023    669.63533   -7305.5377    4403.9963   -11709.534     124.9437   -579.32577   -511.97879   -542.03516   -81.123842    17.071224    175.81881      46.7237      46.7237      46.7237           90           90           90     102002.7   -544.44658 
  548000       547498   -6623.4954    682.03476   -7305.5302    4399.7857   -11705.316    127.25725   -514.04576   -812.24757   -515.98891     17.99485    191.69349    114.54821      46.7237      46.7237      46.7237           90           90           90     102002.7   -614.09408 
  549000       548498   -6641.8117     688.5018   -7330.3135    4372.9619   -11703.275     128.4639   -691.37112   -539.99921   -870.98113   -265.84739    18.053567    253.86463      46.7237      46.7237      46.7237           90           90           90     102002.7   -700.78382 
  550000       549498   -6610.2373    705.63472    -7315.872    4391.0421   -11706.914    131.66064   -585.76142   -937.95939   -1144.4033    188.49325   -57.218805    36.327593      46.7237      46.7237      46.7237           90           90           90     102002.7   -889.37472 
  551000       550498   -6639.4716    683.96687   -7323.4385    4384.5039   -11707.942    127.61775   -753.19467   -1153.1192   -855.85989     66.67402   -153.15764   -263.51528      46.7237      46.7237      46.7237           90           90           90     102002.7   -920.72459 
  552000       551498   -6616.2877    679.34419   -7295.6319    4403.1676   -11698.799    126.75523   -634.83079   -857.75199   -926.37349    127.25165    92.726621    79.368828      46.7237      46.7237      46.7237           90           90           90     102002.7   -806.31876 
  553000       552498   -6570.4618    698.37197   -7268.8338    4447.5977   -11716.432    130.30552   -824.96143   -669.30953   -1139.8127    58.862183    71.612319   -247.10214      46.7237      46.7237      46.7237           90           90           90     102002.7   -878.02787 
  554000       553498   -6635.0011    673.97516   -7308.9762    4391.7944   -11700.771    125.75345   -1048.6801   -993.44731   -680.16766     11.42338    -74.94495   -71.444499      46.7237      46.7237      46.7237           90           90           90     102002.7    -907.4317 
  555000       554498   -6624.9889    700.53897   -7325.5279    4402.7989   -11728.327    130.70985   -469.06549   -740.31424   -542.23944   -62.747911    162.35838    104.40414      46.7237      46.7237      46.7237           90           90           90     102002.7   -583.87306 
[...]
  936000       935498   -6606.9744    692.31061    -7299.285    4397.6812   -11696.966    129.17456    -804.1853   -274.46428   -683.06524   -140.17674    63.459713   0.28105206      46.7237      46.7237      46.7237           90           90           90     102002.7   -587.23828 
  937000       936498   -6597.9338    718.92809   -7316.8619    4377.8735   -11694.735    134.14098   -534.39429   -415.19256   -847.80002   -214.34245    19.977808   -6.7269272      46.7237      46.7237      46.7237           90           90           90     102002.7   -599.12896 
  938000       937498   -6631.5655    695.34918   -7326.9147    4373.6657    -11700.58    129.74151   -675.74309   -520.37582   -163.02104   -368.54938    88.339693    43.910361      46.7237      46.7237      46.7237           90           90           90     102002.7   -453.04665 
  939000       938498   -6595.6034     705.7728   -7301.3762    4394.7892   -11696.165     131.6864   -685.28783   -792.48633   -676.26493    -221.8047   -294.91347    178.46054      46.7237      46.7237      46.7237           90           90           90     102002.7   -718.01303 
  940000       939498   -6608.1569    697.84117    -7305.998    4407.0278   -11713.026    130.20648   -484.05049   -216.40508   -441.40262     51.20189    181.93392   -23.871966      46.7237      46.7237      46.7237           90           90           90     102002.7   -380.61939 
  941000       940498   -6623.4807     688.4332   -7311.9139    4387.1546   -11699.068     128.4511   -590.30188   -505.99273   -435.13127   -33.049834   -63.621235    98.164454      46.7237      46.7237      46.7237           90           90           90     102002.7   -510.47529 
  942000       941498   -6611.1778    693.86016   -7305.0379    4394.4146   -11699.452    129.46368   -855.91667    -282.5047   -303.61013   -433.89086     122.2896   -101.86579      46.7237      46.7237      46.7237           90           90           90     102002.7   -480.67717 
  943000       942498   -6632.5463    675.87315   -7308.4194    4405.1425   -11713.562    126.10758   -655.15644   -370.70869   -811.11979   -51.418312    84.404614     180.7881      46.7237      46.7237      46.7237           90           90           90     102002.7    -612.3283 
  944000       943498   -6557.9049    722.93322   -7280.8381    4423.6064   -11704.445    134.88827   -774.42189   -282.44662   -839.42785    55.942251    70.294153  -0.74647219      46.7237      46.7237      46.7237           90           90           90     102002.7   -632.09879 
  945000       944498    -6597.104    702.41778   -7299.5218    4409.3308   -11708.853    131.06041   -387.30469     -676.949   -861.77357   -2.0812697    64.925461    493.75889      46.7237      46.7237      46.7237           90           90           90     102002.7   -642.00909 
  946000       945498   -6619.7323    702.00002   -7321.7323    4390.5311   -11712.263    130.98246   -501.74889   -697.73229   -630.68186    107.44088    161.37423    68.225871      46.7237      46.7237      46.7237           90           90           90     102002.7   -610.05435 
  947000       946498   -6589.6217    691.46365   -7281.0853    4439.7741   -11720.859    129.01653   -863.18716   -855.29441   -617.19333    43.510966   -79.433973    245.23612      46.7237      46.7237      46.7237           90           90           90     102002.7    -778.5583 
  948000       947498   -6601.5602    692.49715   -7294.0574    4442.5617   -11736.619    129.20937    -978.9768   -1153.7303    -764.5024   -182.55662    26.432873    16.373611      46.7237      46.7237      46.7237           90           90           90     102002.7   -965.73649 
  949000       948498   -6612.4624    695.30207   -7307.7645    4416.4367   -11724.201    129.73272   -1040.7164   -1143.9073    -759.8031    123.33135    275.35768   -94.331748      46.7237      46.7237      46.7237           90           90           90     102002.7   -981.47561 
  950000       949498   -6615.6862    705.16946   -7320.8557    4391.0648    -11711.92    131.57383   -1054.8982   -1401.4177   -458.76786   -303.63029   -243.74428    -6.707074      46.7237      46.7237      46.7237           90           90           90     102002.7   -971.69456 
  951000       950498   -6611.4006    698.34502   -7309.7456    4391.4921   -11701.238    130.30049   -909.64614     -394.663   -930.97003   -85.633679    117.56421    174.19424      46.7237      46.7237      46.7237           90           90           90     102002.7   -745.09306 
  952000       951498   -6651.4693    676.80827   -7328.2776    4362.9688   -11691.246    126.28206   -227.27803   -718.01333   -961.42395    119.54718    273.70556   -158.05955      46.7237      46.7237      46.7237           90           90           90     102002.7   -635.57177 
  953000       952498   -6590.3418    723.67625   -7314.0181     4371.471   -11685.489    135.02691    -415.9821   -719.72146   -608.09364    24.816958   -71.232819   -438.67025      46.7237      46.7237      46.7237           90           90           90     102002.7   -581.26573 
  954000       953498    -6610.773    683.12404   -7293.8971    4406.2997   -11700.197    127.46049   -90.579303   -621.09738   -885.24967   -7.8683532   -304.31896     32.92371      46.7237      46.7237      46.7237           90           90           90     102002.7   -532.30878 
  955000       954498   -6626.2184    688.80557    -7315.024    4382.9053   -11697.929    128.52058   -401.89149   -150.49305   -321.80527   -178.44043    55.222263   -264.27907      46.7237      46.7237      46.7237           90           90           90     102002.7    -291.3966 
  956000       955498   -6589.2203    699.05796   -7288.2783     4406.873   -11695.151    130.43351   -829.90093   -765.94565   -619.72488   -168.89921   -106.81001    8.1577995      46.7237      46.7237      46.7237           90           90           90     102002.7   -738.52382 
  957000       956498    -6621.943    682.11034   -7304.0533    4411.6137   -11715.667    127.27135   -994.28801   -925.01726   -260.68175    88.654366   -34.130458    108.14591      46.7237      46.7237      46.7237           90           90           90     102002.7   -726.66234 
  958000       957498   -6591.4083    689.50485   -7280.9131    4429.4923   -11710.405    128.65105   -728.74738   -1019.5271   -294.29338   -86.398283    134.73292   -212.99994      46.7237      46.7237      46.7237           90           90           90     102002.7   -680.85595 
  959000       958498   -6611.1946    704.70046    -7315.895    4372.6649    -11688.56    131.48632   -699.96104   -528.57965   -785.41442    54.219609   -488.63146   -139.56086      46.7237      46.7237      46.7237           90           90           90     102002.7   -671.31837 
  960000       959498   -6591.8018    701.71257   -7293.5144    4417.3774   -11710.892    130.92882   -480.01376   -843.45392   -399.97514   -369.18655    270.02013    25.371693      46.7237      46.7237      46.7237           90           90           90     102002.7   -574.48094 
  961000       960498   -6625.0975    700.21102   -7325.3085    4384.0247   -11709.333    130.64866   -1003.4874   -1212.1718   -737.34639   -138.51096    91.591989   -118.09327      46.7237      46.7237      46.7237           90           90           90     102002.7    -984.3352 
  962000       961498   -6609.2647    694.03186   -7303.2965    4399.3608   -11702.657    129.49572   -833.64188   -605.30288     -1145.66   -121.95816   -278.15032   -207.09513      46.7237      46.7237      46.7237           90           90           90     102002.7   -861.53491 
  963000       962498   -6620.3227    696.70104   -7317.0237    4381.7045   -11698.728    129.99375   -426.58031   -499.51582   -1032.0918    260.02192    273.89511    89.598828      46.7237      46.7237      46.7237           90           90           90     102002.7   -652.72932 
  964000       963498   -6599.0313    700.08165   -7299.1129    4407.2879   -11706.401    130.62452   -811.56491    -1080.906   -660.60851   -25.206343    192.59071    118.56297      46.7237      46.7237      46.7237           90           90           90     102002.7   -851.02648 
  965000       964498   -6626.2586    691.45773   -7317.7163    4392.3592   -11710.076    129.01543   -949.33899   -661.57208   -297.46559   -78.413267    265.50541    -419.7681      46.7237      46.7237      46.7237           90           90           90     102002.7   -636.12555 
  966000       965498   -6607.5879    715.03541   -7322.6234    4378.6648   -11701.288    133.41466   -795.31957   -705.33697   -857.60969    102.01841    66.561082   -159.61223      46.7237      46.7237      46.7237           90           90           90     102002.7   -786.08874 
  967000       966498   -6585.1545    708.86806   -7294.0225    4412.8415   -11706.864    132.26393   -629.12242   -885.67337   -858.67389    253.06234   -126.96434    249.05335      46.7237      46.7237      46.7237           90           90           90     102002.7   -791.15656 
  968000       967498   -6635.4795    683.51597   -7318.9955    4382.5919   -11701.587    127.53362   -1081.8503   -678.36857   -859.34159    80.742466   -59.821144   -322.31976      46.7237      46.7237      46.7237           90           90           90     102002.7   -873.18684 
  969000       968498   -6589.7878    716.13512   -7305.9229    4402.8136   -11708.737    133.61985    -889.2819   -1082.7327   -689.74374    91.955109    78.739251   -274.42013      46.7237      46.7237      46.7237           90           90           90     102002.7   -887.25278 
  970000       969498   -6627.7911    675.19562   -7302.9867    4389.4597   -11692.446    125.98117   -985.29689   -1522.5552   -849.54185   -117.40497    457.57806   -168.21595      46.7237      46.7237      46.7237           90           90           90     102002.7   -1119.1313 
  971000       970498    -6596.329    703.61223   -7299.9412    4391.3077   -11691.249    131.28327   -481.33289   -840.02217   -1077.4146   -27.924441    83.346485    -72.10965      46.7237      46.7237      46.7237           90           90           90     102002.7    -799.5899 
  972000       971498   -6579.8283    693.00431   -7272.8326    4449.9777    -11722.81      129.304   -439.51268   -677.00604   -386.47584   -126.66513   -112.71976   -316.69288      46.7237      46.7237      46.7237           90           90           90     102002.7   -500.99819 
  973000       972498   -6613.4163    709.21345   -7322.6298    4376.1859   -11698.816    132.32837   -984.45998   -782.32149   -696.43264    23.527268    25.245842    54.508371      46.7237      46.7237      46.7237           90           90           90     102002.7   -821.07137 
  974000       973498   -6582.3251    717.39064   -7299.7158    4383.0024   -11682.718    133.85411   -457.19075   -592.30896   -411.75178   -8.3446324   -81.227117   -18.697633      46.7237      46.7237      46.7237           90           90           90     102002.7   -487.08383 
  975000       974498   -6646.0179    674.87584   -7320.8937    4371.2103   -11692.104     125.9215   -555.99716    -939.7946   -725.80825    303.16209   -205.73431   -27.649899      46.7237      46.7237      46.7237           90           90           90     102002.7   -740.53334 
  976000       975498   -6613.8609    699.22157   -7313.0824    4387.5121   -11700.595    130.46404   -803.31041   -623.56442   -574.20764    107.43191    239.75955   -13.486852      46.7237      46.7237      46.7237           90           90           90     102002.7   -667.02749 
  977000       976498   -6591.3236    699.54615   -7290.8698    4393.2655   -11684.135     130.5246   -974.43053   -434.11435   -564.54837    136.53685    110.84433   -11.694369      46.7237      46.7237      46.7237           90           90           90     102002.7   -657.69775 
  978000       977498   -6613.3616    699.15837   -7312.5199    4368.7893   -11681.309    130.45225   -657.73542   -675.91215   -841.61985    23.807662    52.292242    109.97256      46.7237      46.7237      46.7237           90           90           90     102002.7   -725.08914 
  979000       978498   -6635.0924    698.41553   -7333.5079    4381.4837   -11714.992    130.31365   -549.07072    -631.2264   -829.35187    164.32733   -64.041717   -61.109774      46.7237      46.7237      46.7237           90           90           90     102002.7     -669.883 
  980000       979498   -6589.8959      694.093   -7283.9889    4429.6089   -11713.598    129.50713   -945.16463   -1342.9518   -654.06564   -25.737343    89.329136    154.63506      46.7237      46.7237      46.7237           90           90           90     102002.7   -980.72736 
  981000       980498   -6608.7362    682.60427   -7291.3405    4407.4008   -11698.741    127.36351   -554.92502   -991.79672   -1640.1947   -155.52236   -66.333402   -95.751315      46.7237      46.7237      46.7237           90           90           90     102002.7   -1062.3055 
  982000       981498   -6607.8122    698.86069   -7306.6729    4394.3463   -11701.019    130.39671   -518.82903   -790.65965    -1245.118    27.483869    41.683399   -152.81907      46.7237      46.7237      46.7237           90           90           90     102002.7   -851.53555 
  983000       982498   -6618.3416    686.29393   -7304.6356    4404.2007   -11708.836    128.05194    -1042.182   -1183.1192   -488.03382   -292.20637   -133.63202    154.59862      46.7237      46.7237      46.7237           90           90           90     102002.7   -904.44503 
  984000       983498   -6590.6691    702.96597    -7293.635    4405.6016   -11699.237    131.16269   -404.02585   -862.06288   -791.67349   -34.324611    28.833631    103.71962      46.7237      46.7237      46.7237           90           90           90     102002.7   -685.92074 
  985000       984498   -6599.3406     690.6277   -7289.9683    4414.9154   -11704.884    128.86056   -671.60711   -473.36661   -664.33294     165.9232    101.31962    336.45781      46.7237      46.7237      46.7237           90           90           90     102002.7   -603.10222 
  986000       985498   -6627.1576    678.87702   -7306.0346    4401.6037   -11707.638    126.66806    -619.8555    -236.5621   -687.13743     13.41106    45.220091    67.808877      46.7237      46.7237      46.7237           90           90           90     102002.7   -514.51834 
  987000       986498   -6598.3095    692.26925   -7290.5787    4397.6141   -11688.193    129.16685   -567.04506   -403.65633    -336.3259    124.97957   -254.07783    141.57056      46.7237      46.7237      46.7237           90           90           90     102002.7   -435.67576 
  988000       987498   -6590.3986    708.49332   -7298.8919    4376.8446   -11675.736    132.19401   -145.24146   -636.79834    -918.0461   -338.47063    66.673706     168.8393      46.7237      46.7237      46.7237           90           90           90     102002.7    -566.6953 
  989000       988498    -6624.768    684.33939   -7309.1074    4386.0091   -11695.116    127.68726   -513.34978   -752.85948   -196.13874    47.445422    -20.75506    67.315852      46.7237      46.7237      46.7237           90           90           90     102002.7   -487.44933 
  990000       989498    -6617.552    688.56967   -7306.1216    4390.9202   -11697.042    128.47656   -629.35148    65.300061   -589.49833   -57.833038   -275.23186   -104.67372      46.7237      46.7237      46.7237           90           90           90     102002.7   -384.51659 
  991000       990498   -6629.6703    685.25698   -7314.9273    4391.5845   -11706.512    127.85846   -799.29597    -778.9096   -363.96231    266.97326   -124.47106   -121.21354      46.7237      46.7237      46.7237           90           90           90     102002.7   -647.38929 
  992000       991498    -6598.206    691.09926   -7289.3052    4412.3753   -11701.681    128.94854   -179.05816   -768.47007   -621.83567    312.60936   -33.221884   -25.197027      46.7237      46.7237      46.7237           90           90           90     102002.7    -523.1213 
  993000       992498   -6624.4073    691.46742   -7315.8747    4374.3342   -11690.209    129.01724   -301.36877   -587.19099   -341.60457    151.31778   -13.483341    68.870538      46.7237      46.7237      46.7237           90           90           90     102002.7   -410.05478 
  994000       993498   -6632.0897     691.1628   -7323.2525    4397.4813   -11720.734     128.9604   -292.68308   -577.79169   -765.11426    37.369178   -104.23161   -71.185144      46.7237      46.7237      46.7237           90           90           90     102002.7   -545.19634 
  995000       994498   -6604.6446     691.3205   -7295.9651    4399.6578   -11695.623    128.98982   -674.01557   -900.20152   -587.11167    215.33634    -142.2285    30.441494      46.7237      46.7237      46.7237           90           90           90     102002.7   -720.44292 
  996000       995498   -6612.8086    709.22035    -7322.029    4368.4731   -11690.502    132.32966   -565.52107   -1034.2181   -142.08126   -177.16532    57.715551    236.64914      46.7237      46.7237      46.7237           90           90           90     102002.7   -580.60681 
  997000       996498   -6567.8903    693.91043   -7261.8008    4429.8788    -11691.68    129.47306   -127.55958   -992.94263   -739.38839   -191.70109   -184.78199   -19.588462      46.7237      46.7237      46.7237           90           90           90     102002.7   -619.96353 
  998000       997498   -6580.8382    697.82796   -7278.6662    4418.5241    -11697.19    130.20401   -1383.5985   -654.27357   -654.89748   -47.048604   -93.059337   -130.68322      46.7237      46.7237      46.7237           90           90           90     102002.7   -897.58984 
  999000       998498   -6591.3596    707.40191   -7298.7615    4400.7901   -11699.552    131.99037   -762.41482   -842.30782   -1171.8324   -132.48803   -158.65734   -23.590598      46.7237      46.7237      46.7237           90           90           90     102002.7   -925.51836 
 1000000       999498   -6571.9641    700.78091   -7272.7451    4434.9443   -11707.689    130.75499   -449.23788   -658.05508   -726.24451     -81.7347    216.35526   -2.2868363      46.7237      46.7237      46.7237           90           90           90     102002.7   -611.17916 
 1000502      1000000   -6598.7901    711.36373   -7310.1539    4410.2537   -11720.408    132.72958   -753.46055   -1497.6069   -909.37049    71.272417   -70.759268     38.40225      46.7237      46.7237      46.7237           90           90           90     102002.7   -1053.4793 
Loop time of 1385.63 on 16 procs for 500000 steps with 1799 atoms

Performance: 31.177 ns/day, 0.770 hours/ns, 360.845 timesteps/s
99.8% CPU use with 16 MPI tasks x no OpenMP threads

MPI task timing breakdown:
Section |  min time  |  avg time  |  max time  |%varavg| %total
---------------------------------------------------------------
Pair    | 659.82     | 793.75     | 927.63     | 257.4 | 57.28
Bond    | 131.39     | 183.16     | 237.1      | 361.4 | 13.22
Neigh   | 5.6068     | 5.6409     | 5.7129     |   1.7 |  0.41
Comm    | 188.63     | 374.03     | 553.03     | 581.7 | 26.99
Output  | 0.22631    | 0.22882    | 0.23736    |   0.9 |  0.02
Modify  | 21.718     | 23.397     | 24.792     |  25.8 |  1.69
Other   |            | 5.436      |            |       |  0.39

Nlocal:    112.438 ave 155 max 65 min
Histogram: 1 1 4 0 2 0 1 4 1 2
Nghost:    2295.81 ave 2342 max 2247 min
Histogram: 2 1 3 2 0 0 2 2 1 3
Neighs:    11470.9 ave 14677 max 8344 min
Histogram: 3 0 1 1 2 4 1 1 2 1

Total # of neighbors = 183535
Ave neighs/atom = 102.021
Ave special neighs/atom = 6.40356
Neighbor list builds = 4369
Dangerous builds = 0
Total wall time: 0:44:51
