LAMMPS (30 Mar 2018)
Reading data file ...
  orthogonal box = (0 0 0) to (46.7237 46.7237 46.7237)
  2 by 3 by 4 MPI processor grid
  reading atoms ...
  1730 atoms
  scanning bonds ...
  5 = max bonds/atom
  scanning angles ...
  10 = max angles/atom
  scanning dihedrals ...
  32 = max dihedrals/atom
  scanning impropers ...
  3 = max impropers/atom
  reading bonds ...
  2064 bonds
  reading angles ...
  3696 angles
  reading dihedrals ...
  6240 dihedrals
  reading impropers ...
  1008 impropers
Finding 1-2 1-3 1-4 neighbors ...
  special bond factors lj:   0          0          0         
  special bond factors coul: 0          0          0         
  5 = max # of 1-2 neighbors
  8 = max # of 1-3 neighbors
  20 = max # of 1-4 neighbors
  19 = max # of special neighbors
Finding 1-2 1-3 1-4 neighbors ...
  special bond factors lj:   0          0          1         
  special bond factors coul: 1          1          1         
  5 = max # of 1-2 neighbors
  8 = max # of 1-3 neighbors
  19 = max # of special neighbors
WARNING: Using 'neigh_modify every 1 delay 0 check yes' setting during minimization (../min.cpp:168)
Neighbor list info ...
  update every 1 steps, delay 0 steps, check yes
  max neighbors/atom: 2000, page size: 100000
  master list distance cutoff = 16
  ghost atom cutoff = 16
  binsize = 8, bins = 6 6 6
  3 neighbor lists, perpetual/occasional/extra = 3 0 0
  (1) pair buck6d/coul/gauss/dsf, perpetual, skip from (3)
      attributes: half, newton on
      pair build: skip
      stencil: none
      bin: none
  (2) pair lj/cut, perpetual, skip from (3)
      attributes: half, newton on
      pair build: skip
      stencil: none
      bin: none
  (3) neighbor class addition, perpetual
      attributes: half, newton on
      pair build: half/bin/newton
      stencil: half/bin/3d/newton
      bin: standard
Setting up cg style minimization ...
  Unit style    : real
  Current step  : 0
WARNING: Inconsistent image flags (../domain.cpp:786)
Per MPI rank memory allocation (min/avg/max) = 22.87 | 23.28 | 24.42 Mbytes
Step Temp E_pair E_mol TotEng Press 
       0            0   -11519.369    6482.8914   -5036.4779    6288.4778 
     503            0    -11539.32     3737.951   -7801.3694   -487.67163 
Loop time of 1.2317 on 24 procs for 503 steps with 1730 atoms

99.7% CPU use with 24 MPI tasks x no OpenMP threads

Minimization stats:
  Stopping criterion = max force evaluations
  Energy initial, next-to-last, final = 
        -5036.47790062     -7801.31479495     -7801.36942826
  Force two-norm initial, final = 2576.99 10.6127
  Force max component initial, final = 151.964 1.26399
  Final line search alpha, max atom move = 0.00997823 0.0126124
  Iterations, force evaluations = 503 1000

MPI task timing breakdown:
Section |  min time  |  avg time  |  max time  |%varavg| %total
---------------------------------------------------------------
Pair    | 0.49318    | 0.60662    | 0.71573    |   9.7 | 49.25
Bond    | 0.12564    | 0.15786    | 0.20263    |   5.0 | 12.82
Neigh   | 0.0068044  | 0.006975   | 0.0071813  |   0.1 |  0.57
Comm    | 0.29249    | 0.41429    | 0.53587    |  11.1 | 33.64
Output  | 0          | 0          | 0          |   0.0 |  0.00
Modify  | 0          | 0          | 0          |   0.0 |  0.00
Other   |            | 0.04594    |            |       |  3.73

Nlocal:    72.0833 ave 90 max 58 min
Histogram: 1 4 2 3 2 7 3 0 1 1
Nghost:    1968.42 ave 2137 max 1871 min
Histogram: 15 1 0 0 0 0 0 0 0 8
Neighs:    7633.08 ave 11067 max 4680 min
Histogram: 2 5 3 2 1 2 2 4 1 2

Total # of neighbors = 183194
Ave neighs/atom = 105.892
Ave special neighs/atom = 6.65896
Neighbor list builds = 13
Dangerous builds = 0
Neighbor list info ...
  update every 1 steps, delay 10 steps, check yes
  max neighbors/atom: 2000, page size: 100000
  master list distance cutoff = 16
  ghost atom cutoff = 16
  binsize = 8, bins = 6 6 6
  3 neighbor lists, perpetual/occasional/extra = 3 0 0
  (1) pair buck6d/coul/gauss/dsf, perpetual, skip from (3)
      attributes: half, newton on
      pair build: skip
      stencil: none
      bin: none
  (2) pair lj/cut, perpetual, skip from (3)
      attributes: half, newton on
      pair build: skip
      stencil: none
      bin: none
  (3) neighbor class addition, perpetual
      attributes: half, newton on
      pair build: half/bin/newton
      stencil: half/bin/3d/newton
      bin: standard
Setting up Verlet run ...
  Unit style    : real
  Current step  : 503
  Time step     : 1
WARNING: Inconsistent image flags (../domain.cpp:786)
Per MPI rank memory allocation (min/avg/max) = 22.52 | 22.7 | 23.29 Mbytes
Step Temp PotEng TotEng Press Volume Lx Ly Lz 
     503          110   -7801.3694   -7234.4492   -233.60761     102002.7      46.7237      46.7237      46.7237 
    1000    101.35979   -7319.2082   -6796.8181   -725.27777     102002.7      46.7237      46.7237      46.7237 
    2000    110.47865   -7217.9147   -6648.5275   -608.53924     102002.7      46.7237      46.7237      46.7237 
    3000    106.23107   -7211.5877   -6664.0918    -1021.279     102002.7      46.7237      46.7237      46.7237 
    4000    109.66524   -7241.0858   -6675.8909   -778.01718     102002.7      46.7237      46.7237      46.7237 
    5000    111.19288   -7217.7755   -6644.7074   -743.73963     102002.7      46.7237      46.7237      46.7237 
    6000    106.21977   -7236.7766    -6689.339   -712.94236     102002.7      46.7237      46.7237      46.7237 
    7000    109.36132    -7207.468   -6643.8394   -661.62172     102002.7      46.7237      46.7237      46.7237 
    8000     113.5943   -7230.9443   -6645.4996   -566.15943     102002.7      46.7237      46.7237      46.7237 
    9000    105.10846   -7240.5424   -6698.8323   -720.15868     102002.7      46.7237      46.7237      46.7237 
   10000    112.86835   -7231.3592    -6649.656   -736.38818     102002.7      46.7237      46.7237      46.7237 
   11000    110.44573    -7232.394   -6663.1765   -945.03434     102002.7      46.7237      46.7237      46.7237 
   12000    111.12203   -7230.9711   -6658.2681   -750.08733     102002.7      46.7237      46.7237      46.7237 
   13000    110.83971     -7217.23    -6645.982   -954.96865     102002.7      46.7237      46.7237      46.7237 
   14000    110.94611   -7239.8605   -6668.0641   -831.40686     102002.7      46.7237      46.7237      46.7237 
   15000    106.80859   -7207.1218   -6656.6495   -861.28848     102002.7      46.7237      46.7237      46.7237 
   16000     107.9274   -7232.3922   -6676.1537   -851.78959     102002.7      46.7237      46.7237      46.7237 
   17000     107.5186    -7215.446   -6661.3145   -506.67115     102002.7      46.7237      46.7237      46.7237 
   18000    108.49553   -7230.9745    -6671.808   -730.16217     102002.7      46.7237      46.7237      46.7237 
   19000    110.12116   -7196.8994   -6629.3547   -693.19738     102002.7      46.7237      46.7237      46.7237 
   20000    110.27636   -7226.3775   -6658.0329   -661.00072     102002.7      46.7237      46.7237      46.7237 
   21000    108.96975    -7241.676   -6680.0655   -690.23893     102002.7      46.7237      46.7237      46.7237 
   22000    109.39503   -7226.6067   -6662.8044   -520.37064     102002.7      46.7237      46.7237      46.7237 
   23000    108.01211   -7229.6849   -6673.0099   -536.96749     102002.7      46.7237      46.7237      46.7237 
   24000     111.1621   -7238.4962   -6665.5867   -635.26948     102002.7      46.7237      46.7237      46.7237 
   25000    109.37488   -7231.2333   -6667.5348   -567.75878     102002.7      46.7237      46.7237      46.7237 
   26000    108.47733   -7229.3133   -6670.2406   -818.69269     102002.7      46.7237      46.7237      46.7237 
   27000    108.79363   -7214.1618   -6653.4589   -887.78265     102002.7      46.7237      46.7237      46.7237 
   28000      109.529   -7244.0351   -6679.5423   -735.84988     102002.7      46.7237      46.7237      46.7237 
   29000    109.86485   -7223.9977   -6657.7739   -714.89213     102002.7      46.7237      46.7237      46.7237 
   30000    109.18723   -7244.5439   -6681.8125   -964.04816     102002.7      46.7237      46.7237      46.7237 
   31000    108.93315   -7215.4574   -6654.0355   -840.70992     102002.7      46.7237      46.7237      46.7237 
   32000    112.47147   -7232.8007   -6653.1429   -747.63261     102002.7      46.7237      46.7237      46.7237 
   33000    109.13108   -7248.8063   -6686.3643   -917.71213     102002.7      46.7237      46.7237      46.7237 
   34000    107.75878   -7208.2241   -6652.8547   -991.22256     102002.7      46.7237      46.7237      46.7237 
   35000    107.33766   -7215.7716   -6662.5726   -743.59718     102002.7      46.7237      46.7237      46.7237 
   36000    109.99044   -7205.2518   -6638.3808   -851.95401     102002.7      46.7237      46.7237      46.7237 
   37000    110.51967   -7235.5948   -6665.9962   -438.96209     102002.7      46.7237      46.7237      46.7237 
   38000    107.47673   -7238.9136   -6684.9978   -638.37644     102002.7      46.7237      46.7237      46.7237 
   39000    111.74002   -7224.1652   -6648.2771    -664.6624     102002.7      46.7237      46.7237      46.7237 
   40000    108.65581   -7249.1691   -6689.1766   -751.52309     102002.7      46.7237      46.7237      46.7237 
   41000    109.69868   -7213.9007   -6648.5334   -751.32482     102002.7      46.7237      46.7237      46.7237 
   42000    108.45266   -7245.7731   -6686.8276   -675.48303     102002.7      46.7237      46.7237      46.7237 
   43000    110.75539   -7223.5444   -6652.7309   -699.49308     102002.7      46.7237      46.7237      46.7237 
   44000    107.24077   -7223.0641   -6670.3644     -795.079     102002.7      46.7237      46.7237      46.7237 
   45000    109.19859   -7238.5599   -6675.7699   -800.63966     102002.7      46.7237      46.7237      46.7237 
   46000    111.70092   -7228.0039   -6652.3173   -726.72699     102002.7      46.7237      46.7237      46.7237 
   47000    111.65887   -7211.3206   -6635.8508    -695.7485     102002.7      46.7237      46.7237      46.7237 
   48000    106.50103    -7213.986   -6665.0988   -965.36114     102002.7      46.7237      46.7237      46.7237 
   49000    109.16094   -7234.8875   -6672.2916   -473.15137     102002.7      46.7237      46.7237      46.7237 
   50000    108.77979   -7213.4937   -6652.8622   -835.45456     102002.7      46.7237      46.7237      46.7237 
   51000    106.74826   -7233.2415   -6683.0802   -867.56298     102002.7      46.7237      46.7237      46.7237 
   52000    112.17053   -7232.6702   -6654.5634   -610.87019     102002.7      46.7237      46.7237      46.7237 
   53000     109.3309   -7242.9478    -6679.476   -537.49815     102002.7      46.7237      46.7237      46.7237 
   54000    112.46464   -7228.2876    -6648.665   -683.43563     102002.7      46.7237      46.7237      46.7237 
   55000     109.2834   -7219.5174   -6656.2904   -659.07804     102002.7      46.7237      46.7237      46.7237 
   56000     111.0486   -7230.0943   -6657.7697   -805.64124     102002.7      46.7237      46.7237      46.7237 
   57000    108.21617   -7230.2535   -6672.5268    -555.4569     102002.7      46.7237      46.7237      46.7237 
   58000    107.92289   -7221.4987   -6665.2835   -646.71083     102002.7      46.7237      46.7237      46.7237 
   59000    108.23708   -7221.3448   -6663.5103   -613.29042     102002.7      46.7237      46.7237      46.7237 
   60000    108.83179   -7230.8363   -6669.9367   -901.79922     102002.7      46.7237      46.7237      46.7237 
   61000    107.95453   -7228.6589   -6672.2806   -673.61275     102002.7      46.7237      46.7237      46.7237 
   62000    108.00173   -7215.9433   -6659.3218   -704.98815     102002.7      46.7237      46.7237      46.7237 
   63000     107.0015   -7233.0715   -6681.6049   -895.41631     102002.7      46.7237      46.7237      46.7237 
   64000     108.4256   -7231.6183   -6672.8122    -601.4309     102002.7      46.7237      46.7237      46.7237 
   65000    110.85641   -7229.7302   -6658.3962   -557.44518     102002.7      46.7237      46.7237      46.7237 
   66000    108.69889   -7239.7797   -6679.5651   -540.95689     102002.7      46.7237      46.7237      46.7237 
   67000    110.76973   -7228.4776   -6657.5903   -720.24824     102002.7      46.7237      46.7237      46.7237 
   68000    111.40097   -7225.9389   -6651.7983   -786.10175     102002.7      46.7237      46.7237      46.7237 
   69000    114.17857   -7213.7732   -6625.3174   -772.86835     102002.7      46.7237      46.7237      46.7237 
   70000    110.96087   -7236.6968   -6664.8244   -993.83977     102002.7      46.7237      46.7237      46.7237 
   71000    113.03797   -7222.7459   -6640.1685   -920.08857     102002.7      46.7237      46.7237      46.7237 
   72000    110.06341   -7223.6998   -6656.4527   -913.98893     102002.7      46.7237      46.7237      46.7237 
   73000    112.26261   -7240.3266   -6661.7453    -700.8762     102002.7      46.7237      46.7237      46.7237 
   74000    109.42584   -7233.5709   -6669.6097   -679.85895     102002.7      46.7237      46.7237      46.7237 
   75000    111.59792   -7227.1049   -6651.9492   -938.93356     102002.7      46.7237      46.7237      46.7237 
   76000     104.5412   -7228.2905    -6689.504   -544.54193     102002.7      46.7237      46.7237      46.7237 
   77000    108.88318   -7227.8435   -6666.6791   -884.74636     102002.7      46.7237      46.7237      46.7237 
   78000    111.52402   -7224.4645   -6649.6898   -833.38989     102002.7      46.7237      46.7237      46.7237 
   79000    106.38136   -7223.4144    -6675.144   -656.32991     102002.7      46.7237      46.7237      46.7237 
   80000    106.51768   -7216.8397   -6667.8667   -677.48635     102002.7      46.7237      46.7237      46.7237 
   81000    110.70322    -7238.424   -6667.8795   -391.60753     102002.7      46.7237      46.7237      46.7237 
   82000    111.13295   -7213.1238   -6640.3645   -851.58634     102002.7      46.7237      46.7237      46.7237 
   83000     112.1633   -7245.3156   -6667.2461   -722.49472     102002.7      46.7237      46.7237      46.7237 
   84000    107.76863    -7246.416   -6690.9958   -813.38114     102002.7      46.7237      46.7237      46.7237 
   85000    109.40157   -7229.5423   -6665.7063   -571.15547     102002.7      46.7237      46.7237      46.7237 
   86000    108.48949   -7232.9967   -6673.8613   -632.35726     102002.7      46.7237      46.7237      46.7237 
   87000    109.54732   -7229.9739   -6665.3867    -809.4967     102002.7      46.7237      46.7237      46.7237 
   88000    108.22119   -7210.4422   -6652.6896   -669.98674     102002.7      46.7237      46.7237      46.7237 
   89000    114.01111   -7226.4778    -6638.885   -819.87241     102002.7      46.7237      46.7237      46.7237 
   90000    110.92696   -7247.6219   -6675.9242   -789.08851     102002.7      46.7237      46.7237      46.7237 
   91000    111.62128   -7235.2643   -6659.9883   -887.02599     102002.7      46.7237      46.7237      46.7237 
   92000    111.63505   -7218.3942   -6643.0472   -996.57683     102002.7      46.7237      46.7237      46.7237 
   93000     111.2704   -7229.7397    -6656.272   -858.69642     102002.7      46.7237      46.7237      46.7237 
   94000    111.72797   -7240.6334   -6664.8076    -761.6758     102002.7      46.7237      46.7237      46.7237 
   95000    111.85799   -7224.9981   -6648.5021   -685.40346     102002.7      46.7237      46.7237      46.7237 
   96000    107.34476   -7234.5924   -6681.3568   -768.22802     102002.7      46.7237      46.7237      46.7237 
   97000    108.63555   -7250.8613   -6690.9732   -594.92749     102002.7      46.7237      46.7237      46.7237 
   98000    113.20074   -7230.4088   -6646.9924   -719.49075     102002.7      46.7237      46.7237      46.7237 
   99000    109.84981   -7229.3746   -6663.2284   -783.86575     102002.7      46.7237      46.7237      46.7237 
  100000    111.23357   -7218.4388    -6645.161   -973.68847     102002.7      46.7237      46.7237      46.7237 
  101000    109.29826   -7230.7322   -6667.4286   -820.67799     102002.7      46.7237      46.7237      46.7237 
  102000    107.30916   -7226.5731    -6673.521   -936.39122     102002.7      46.7237      46.7237      46.7237 
  103000    110.18573   -7223.2421   -6655.3646   -894.52794     102002.7      46.7237      46.7237      46.7237 
  104000    107.19246   -7242.8893   -6690.4385   -745.67837     102002.7      46.7237      46.7237      46.7237 
  105000    113.72109    -7237.719   -6651.6209   -761.79151     102002.7      46.7237      46.7237      46.7237 
  106000    110.68605    -7242.272    -6671.816    -1048.156     102002.7      46.7237      46.7237      46.7237 
  107000    112.04927   -7248.5904   -6671.1086   -780.22997     102002.7      46.7237      46.7237      46.7237 
  108000    112.18164   -7229.2755   -6651.1115   -849.76514     102002.7      46.7237      46.7237      46.7237 
  109000    111.85426   -7214.9212   -6638.4444   -823.21532     102002.7      46.7237      46.7237      46.7237 
  110000    111.87325   -7237.6105   -6661.0359   -738.87409     102002.7      46.7237      46.7237      46.7237 
  111000    111.25014   -7232.8815   -6659.5182   -755.30257     102002.7      46.7237      46.7237      46.7237 
  112000    114.09595   -7213.9867   -6625.9567    -497.7859     102002.7      46.7237      46.7237      46.7237 
  113000    108.37866     -7228.31   -6669.7458    -728.3857     102002.7      46.7237      46.7237      46.7237 
  114000    113.38749   -7219.5565   -6635.1778   -574.62865     102002.7      46.7237      46.7237      46.7237 
  115000    112.14842   -7240.9482   -6662.9554   -702.08497     102002.7      46.7237      46.7237      46.7237 
  116000    105.50675   -7214.8943   -6671.1314   -674.86771     102002.7      46.7237      46.7237      46.7237 
  117000    111.74284   -7231.9988   -6656.0962   -621.29378     102002.7      46.7237      46.7237      46.7237 
  118000    107.65704   -7218.0597   -6663.2147   -471.61333     102002.7      46.7237      46.7237      46.7237 
  119000      113.483   -7216.2838   -6631.4128   -848.56298     102002.7      46.7237      46.7237      46.7237 
  120000    104.65118   -7219.0716   -6679.7182   -294.73444     102002.7      46.7237      46.7237      46.7237 
  121000    109.99398   -7215.7948   -6648.9056   -539.14883     102002.7      46.7237      46.7237      46.7237 
  122000    108.93831   -7232.0155    -6670.567   -399.42681     102002.7      46.7237      46.7237      46.7237 
  123000    110.84116   -7210.2404    -6638.985   -436.13671     102002.7      46.7237      46.7237      46.7237 
  124000    108.96564   -7224.3231   -6662.7338    -231.5725     102002.7      46.7237      46.7237      46.7237 
  125000    111.68085    -7228.582   -6652.9989   -765.06129     102002.7      46.7237      46.7237      46.7237 
  126000    109.51299   -7262.1747   -6697.7644   -417.36315     102002.7      46.7237      46.7237      46.7237 
  127000    110.01498   -7237.0927   -6670.0952   -554.83955     102002.7      46.7237      46.7237      46.7237 
  128000    113.65676   -7208.5828   -6622.8162     -928.306     102002.7      46.7237      46.7237      46.7237 
  129000    109.28874   -7224.6475   -6661.3929   -698.73708     102002.7      46.7237      46.7237      46.7237 
  130000    108.80998   -7208.0223   -6647.2352   -856.07039     102002.7      46.7237      46.7237      46.7237 
  131000    106.46424   -7233.5863   -6684.8887   -789.02989     102002.7      46.7237      46.7237      46.7237 
  132000    112.03216   -7230.0431   -6652.6494   -946.50885     102002.7      46.7237      46.7237      46.7237 
  133000    113.16138   -7231.4068   -6648.1934   -745.47081     102002.7      46.7237      46.7237      46.7237 
  134000    111.35653    -7243.152   -6669.2404   -699.38723     102002.7      46.7237      46.7237      46.7237 
  135000    113.25385   -7226.0347   -6642.3447   -1059.1109     102002.7      46.7237      46.7237      46.7237 
  136000    108.72257   -7236.7033   -6676.3667   -492.73016     102002.7      46.7237      46.7237      46.7237 
  137000    111.27768    -7244.468   -6670.9628   -564.54857     102002.7      46.7237      46.7237      46.7237 
  138000     110.4718   -7235.6202   -6666.2683   -505.66175     102002.7      46.7237      46.7237      46.7237 
  139000    108.64451   -7230.1266   -6670.1923   -615.12826     102002.7      46.7237      46.7237      46.7237 
  140000    106.92113   -7225.1089   -6674.0566   -725.45739     102002.7      46.7237      46.7237      46.7237 
  141000    108.99367   -7215.5593   -6653.8255   -336.42375     102002.7      46.7237      46.7237      46.7237 
  142000    110.19168   -7218.7971    -6650.889   -785.12388     102002.7      46.7237      46.7237      46.7237 
  143000    109.83799   -7244.9602   -6678.8749   -770.89274     102002.7      46.7237      46.7237      46.7237 
  144000    108.17521   -7219.9661   -6662.4505   -898.65791     102002.7      46.7237      46.7237      46.7237 
  145000    109.69245   -7221.6967   -6656.3615   -940.69899     102002.7      46.7237      46.7237      46.7237 
  146000    107.31863   -7239.7277   -6686.6268   -602.22653     102002.7      46.7237      46.7237      46.7237 
  147000    108.99276   -7231.7766   -6670.0475    -812.5232     102002.7      46.7237      46.7237      46.7237 
  148000    109.34044   -7200.8268   -6637.3058   -760.23557     102002.7      46.7237      46.7237      46.7237 
  149000    111.70048   -7234.7927   -6659.1085   -765.85334     102002.7      46.7237      46.7237      46.7237 
  150000    106.45996    -7225.597   -6676.9215   -844.59757     102002.7      46.7237      46.7237      46.7237 
  151000    114.02988   -7229.1472   -6641.4576   -775.22157     102002.7      46.7237      46.7237      46.7237 
  152000    109.71984   -7224.6189   -6659.1426   -1015.4892     102002.7      46.7237      46.7237      46.7237 
  153000    108.66996   -7242.9985    -6682.933   -724.87765     102002.7      46.7237      46.7237      46.7237 
  154000    107.85551   -7227.7129    -6671.845   -807.13548     102002.7      46.7237      46.7237      46.7237 
  155000    111.81478   -7233.1002   -6656.8269    -382.0045     102002.7      46.7237      46.7237      46.7237 
  156000    110.66224   -7236.9665   -6666.6332   -501.85478     102002.7      46.7237      46.7237      46.7237 
  157000    110.71633   -7246.8965   -6676.2844   -607.00477     102002.7      46.7237      46.7237      46.7237 
  158000    109.45251   -7223.0369   -6658.9383   -660.99029     102002.7      46.7237      46.7237      46.7237 
  159000    107.77371   -7234.2202   -6678.7738   -802.50795     102002.7      46.7237      46.7237      46.7237 
  160000    113.24623   -7234.2738   -6650.6231   -764.86964     102002.7      46.7237      46.7237      46.7237 
  161000    109.70871   -7245.7495   -6680.3305   -527.07893     102002.7      46.7237      46.7237      46.7237 
  162000    112.50862   -7233.5588   -6653.7095   -590.80771     102002.7      46.7237      46.7237      46.7237 
  163000    107.32034   -7231.2856   -6678.1758   -805.94795     102002.7      46.7237      46.7237      46.7237 
  164000    112.45957    -7229.914   -6650.3176   -757.34516     102002.7      46.7237      46.7237      46.7237 
  165000     109.8788   -7243.7268   -6677.4312   -559.30112     102002.7      46.7237      46.7237      46.7237 
  166000    112.42128   -7229.6944   -6650.2953    -562.9795     102002.7      46.7237      46.7237      46.7237 
  167000    112.48969    -7224.004   -6644.2523    -337.5857     102002.7      46.7237      46.7237      46.7237 
  168000    111.27802   -7243.5551   -6670.0481   -924.41672     102002.7      46.7237      46.7237      46.7237 
  169000    109.21883   -7236.8101   -6673.9158   -423.71366     102002.7      46.7237      46.7237      46.7237 
  170000     112.5738   -7231.9696   -6651.7844   -374.69283     102002.7      46.7237      46.7237      46.7237 
  171000    110.53085   -7251.5347   -6681.8786   -735.62495     102002.7      46.7237      46.7237      46.7237 
  172000    116.80077   -7223.0308   -6621.0606    -538.4925     102002.7      46.7237      46.7237      46.7237 
  173000     109.0245   -7238.8374   -6676.9446    -470.7675     102002.7      46.7237      46.7237      46.7237 
  174000     110.4606   -7255.0196   -6685.7255   -645.31133     102002.7      46.7237      46.7237      46.7237 
  175000    112.36976   -7249.1253   -6669.9917   -689.58472     102002.7      46.7237      46.7237      46.7237 
  176000     112.7541   -7222.5264    -6641.412   -687.33522     102002.7      46.7237      46.7237      46.7237 
  177000    110.22371   -7223.1755   -6655.1022   -915.16467     102002.7      46.7237      46.7237      46.7237 
  178000     113.2438   -7252.5512    -6668.913   -599.24853     102002.7      46.7237      46.7237      46.7237 
  179000    113.35576   -7219.9265   -6635.7113   -782.85278     102002.7      46.7237      46.7237      46.7237 
  180000    109.04281   -7228.4473   -6666.4603   -867.34425     102002.7      46.7237      46.7237      46.7237 
  181000    105.51509   -7241.9772   -6698.1714    -992.3089     102002.7      46.7237      46.7237      46.7237 
  182000    112.14265   -7229.5492   -6651.5861   -821.54162     102002.7      46.7237      46.7237      46.7237 
  183000    106.92616   -7218.2632    -6667.185   -896.92027     102002.7      46.7237      46.7237      46.7237 
  184000    105.95984    -7225.358     -6679.26   -1080.4146     102002.7      46.7237      46.7237      46.7237 
  185000    112.32506   -7232.0038   -6653.1006   -764.88189     102002.7      46.7237      46.7237      46.7237 
  186000    110.13244    -7247.336   -6679.7331   -896.01234     102002.7      46.7237      46.7237      46.7237 
  187000    109.47748   -7223.3755   -6659.1482   -790.95931     102002.7      46.7237      46.7237      46.7237 
  188000    109.28051   -7229.4065   -6666.1944   -488.16472     102002.7      46.7237      46.7237      46.7237 
  189000    108.25493   -7226.6292   -6668.7028   -474.50461     102002.7      46.7237      46.7237      46.7237 
  190000    110.32296   -7226.7949   -6658.2102   -754.05441     102002.7      46.7237      46.7237      46.7237 
  191000    111.93328   -7226.9164   -6650.0324   -759.49475     102002.7      46.7237      46.7237      46.7237 
  192000     110.8675   -7221.8206   -6650.4294   -711.67651     102002.7      46.7237      46.7237      46.7237 
  193000    108.40477   -7219.0137    -6660.315   -596.65178     102002.7      46.7237      46.7237      46.7237 
  194000     112.1958   -7222.3606   -6644.1235   -672.77804     102002.7      46.7237      46.7237      46.7237 
  195000    108.17387   -7230.2996   -6672.7909   -811.45729     102002.7      46.7237      46.7237      46.7237 
  196000    109.69813   -7226.7213   -6661.3568   -673.34021     102002.7      46.7237      46.7237      46.7237 
  197000    110.68429   -7218.0395   -6647.5925   -773.69819     102002.7      46.7237      46.7237      46.7237 
  198000    113.01593   -7218.5328    -6636.069   -668.71099     102002.7      46.7237      46.7237      46.7237 
  199000    108.22514   -7213.4392   -6655.6662   -814.51658     102002.7      46.7237      46.7237      46.7237 
  200000     110.2348   -7236.1602   -6668.0298   -360.12123     102002.7      46.7237      46.7237      46.7237 
  201000    111.73818   -7211.0086     -6635.13   -852.34389     102002.7      46.7237      46.7237      46.7237 
  202000    110.78298   -7221.0768   -6650.1212   -606.38443     102002.7      46.7237      46.7237      46.7237 
  203000    110.56256   -7226.4462   -6656.6267   -664.64999     102002.7      46.7237      46.7237      46.7237 
  204000    106.60329   -7225.8473    -6676.433   -790.83353     102002.7      46.7237      46.7237      46.7237 
  205000    111.04668   -7250.9369   -6678.6223   -571.31664     102002.7      46.7237      46.7237      46.7237 
  206000    108.96353   -7217.8816   -6656.3031   -765.56641     102002.7      46.7237      46.7237      46.7237 
  207000    110.40813    -7224.958   -6655.9343   -667.59221     102002.7      46.7237      46.7237      46.7237 
  208000    108.56355   -7242.3811   -6682.8641   -824.86757     102002.7      46.7237      46.7237      46.7237 
  209000    107.68113   -7229.6744   -6674.7052   -639.06338     102002.7      46.7237      46.7237      46.7237 
  210000    109.20167   -7199.3291   -6636.5233   -999.97513     102002.7      46.7237      46.7237      46.7237 
  211000    112.18381   -7241.9421   -6663.7669   -1071.2671     102002.7      46.7237      46.7237      46.7237 
  212000    108.79191   -7222.1516   -6661.4576   -1055.9953     102002.7      46.7237      46.7237      46.7237 
  213000    111.78205   -7229.1538   -6653.0492   -1032.2293     102002.7      46.7237      46.7237      46.7237 
  214000    108.60782   -7254.0937   -6694.3485   -893.45921     102002.7      46.7237      46.7237      46.7237 
  215000    111.13893    -7216.881   -6644.0909   -867.92413     102002.7      46.7237      46.7237      46.7237 
  216000    110.42095   -7231.0527   -6661.9629   -574.02603     102002.7      46.7237      46.7237      46.7237 
  217000    111.18261   -7230.5722    -6657.557   -547.54705     102002.7      46.7237      46.7237      46.7237 
  218000     109.6288   -7203.6736   -6638.6664   -756.73257     102002.7      46.7237      46.7237      46.7237 
  219000    110.73278   -7226.8031   -6656.1062   -618.36869     102002.7      46.7237      46.7237      46.7237 
  220000    109.46422   -7241.1493   -6676.9903   -662.61771     102002.7      46.7237      46.7237      46.7237 
  221000    112.29296   -7222.0497   -6643.3119   -355.56795     102002.7      46.7237      46.7237      46.7237 
  222000    110.84874   -7223.0561   -6651.7616   -463.43255     102002.7      46.7237      46.7237      46.7237 
  223000    108.27572   -7222.5999   -6664.5663   -681.95405     102002.7      46.7237      46.7237      46.7237 
  224000    113.26362   -7218.5138   -6634.7735   -387.45168     102002.7      46.7237      46.7237      46.7237 
  225000    108.81584   -7234.2497   -6673.4324   -896.32261     102002.7      46.7237      46.7237      46.7237 
  226000    115.18323   -7230.1991   -6636.5654   -599.47057     102002.7      46.7237      46.7237      46.7237 
  227000    111.08375   -7217.8453   -6645.3396   -641.01666     102002.7      46.7237      46.7237      46.7237 
  228000    108.88344   -7215.8956   -6654.7298   -558.09581     102002.7      46.7237      46.7237      46.7237 
  229000    111.44636   -7211.6235   -6637.2489   -717.13174     102002.7      46.7237      46.7237      46.7237 
  230000    110.09545   -7238.0554   -6670.6432   -666.39132     102002.7      46.7237      46.7237      46.7237 
  231000    113.74177   -7243.2928   -6657.0881   -598.17017     102002.7      46.7237      46.7237      46.7237 
  232000    111.15152   -7220.1815   -6647.3265   -611.35098     102002.7      46.7237      46.7237      46.7237 
  233000    110.24975   -7219.7216   -6651.5142   -662.54663     102002.7      46.7237      46.7237      46.7237 
  234000    110.32709   -7246.5425   -6677.9365   -820.15722     102002.7      46.7237      46.7237      46.7237 
  235000    111.79224   -7243.9393   -6667.7822   -620.10214     102002.7      46.7237      46.7237      46.7237 
  236000    113.75185   -7213.6549   -6627.3983   -472.20038     102002.7      46.7237      46.7237      46.7237 
  237000    108.98696   -7232.7347   -6671.0355   -698.00578     102002.7      46.7237      46.7237      46.7237 
  238000     111.8186   -7236.6824   -6660.3894   -526.14775     102002.7      46.7237      46.7237      46.7237 
  239000    108.74513   -7217.0239    -6656.571   -939.38358     102002.7      46.7237      46.7237      46.7237 
  240000    110.36653   -7217.3914   -6648.5821   -770.60307     102002.7      46.7237      46.7237      46.7237 
  241000    110.51792   -7243.2562   -6673.6666   -881.88972     102002.7      46.7237      46.7237      46.7237 
  242000    108.86866   -7228.3233   -6667.2338   -587.26547     102002.7      46.7237      46.7237      46.7237 
  243000    106.12929   -7243.9203   -6696.9489   -628.50207     102002.7      46.7237      46.7237      46.7237 
  244000    109.00422   -7229.0986   -6667.3104   -730.70961     102002.7      46.7237      46.7237      46.7237 
  245000    108.33878   -7221.1141   -6662.7555   -614.04447     102002.7      46.7237      46.7237      46.7237 
  246000    108.67909     -7238.48   -6678.3674   -695.83098     102002.7      46.7237      46.7237      46.7237 
  247000    113.02884   -7203.0553   -6620.5249   -732.22272     102002.7      46.7237      46.7237      46.7237 
  248000     109.6296   -7232.1447   -6667.1334   -870.52719     102002.7      46.7237      46.7237      46.7237 
  249000    118.64157    -7230.395   -6618.9377   -619.34089     102002.7      46.7237      46.7237      46.7237 
  250000    110.80912   -7238.0364   -6666.9461   -685.53997     102002.7      46.7237      46.7237      46.7237 
  251000    107.88869   -7218.7294   -6662.6904   -558.10145     102002.7      46.7237      46.7237      46.7237 
  252000    110.31423   -7221.7854   -6653.2457   -662.17882     102002.7      46.7237      46.7237      46.7237 
  253000     112.9606   -7220.2528   -6638.0742   -581.19766     102002.7      46.7237      46.7237      46.7237 
  254000    110.91148   -7239.0776   -6667.4597   -768.08143     102002.7      46.7237      46.7237      46.7237 
  255000    106.93527   -7233.3544   -6682.2292   -686.71169     102002.7      46.7237      46.7237      46.7237 
  256000    112.12562   -7219.9518   -6642.0764     -634.324     102002.7      46.7237      46.7237      46.7237 
  257000     114.5686   -7239.4497   -6648.9837   -808.95964     102002.7      46.7237      46.7237      46.7237 
  258000    106.88004   -7237.5634   -6686.7229   -594.58114     102002.7      46.7237      46.7237      46.7237 
  259000    111.12868   -7235.3855   -6662.6483   -332.57159     102002.7      46.7237      46.7237      46.7237 
  260000    115.14599   -7230.5057    -6637.064   -729.55389     102002.7      46.7237      46.7237      46.7237 
  261000    109.97665   -7239.0467   -6672.2468   -622.32759     102002.7      46.7237      46.7237      46.7237 
  262000    111.27079   -7220.4355   -6646.9658   -810.37736     102002.7      46.7237      46.7237      46.7237 
  263000    113.28852   -7241.5458   -6657.6771   -1012.2528     102002.7      46.7237      46.7237      46.7237 
  264000    107.88723   -7247.0065   -6690.9751   -569.59679     102002.7      46.7237      46.7237      46.7237 
  265000    109.87487   -7239.0072   -6672.7318   -632.34432     102002.7      46.7237      46.7237      46.7237 
  266000    112.24392   -7212.3688   -6633.8838   -588.52571     102002.7      46.7237      46.7237      46.7237 
  267000    108.67196   -7230.7507   -6670.6749   -523.09654     102002.7      46.7237      46.7237      46.7237 
  268000    104.81206   -7226.1607   -6685.9782   -893.12365     102002.7      46.7237      46.7237      46.7237 
  269000    110.76909   -7216.4356   -6645.5516   -792.51785     102002.7      46.7237      46.7237      46.7237 
  270000    108.54449   -7233.3357   -6673.9169   -668.53394     102002.7      46.7237      46.7237      46.7237 
  271000    105.28251   -7203.0646   -6660.4574   -844.07412     102002.7      46.7237      46.7237      46.7237 
  272000    107.98303   -7234.1473   -6677.6222   -733.13553     102002.7      46.7237      46.7237      46.7237 
  273000    109.94492   -7217.5014    -6650.865   -626.02574     102002.7      46.7237      46.7237      46.7237 
  274000    111.92696   -7231.3672   -6654.5157   -883.12868     102002.7      46.7237      46.7237      46.7237 
  275000    109.85635   -7222.8312   -6656.6512   -676.29386     102002.7      46.7237      46.7237      46.7237 
  276000    112.75291   -7236.8653    -6655.757   -561.44737     102002.7      46.7237      46.7237      46.7237 
  277000    109.40662   -7237.0295   -6673.1674   -628.26511     102002.7      46.7237      46.7237      46.7237 
  278000    110.22962   -7246.3135   -6678.2098   -482.38798     102002.7      46.7237      46.7237      46.7237 
  279000    111.49828   -7226.5073   -6651.8652    -488.3233     102002.7      46.7237      46.7237      46.7237 
  280000    111.02115   -7215.4781    -6643.295   -816.20823     102002.7      46.7237      46.7237      46.7237 
  281000    109.42806   -7228.2847   -6664.3121   -792.34863     102002.7      46.7237      46.7237      46.7237 
  282000    112.02899   -7227.1683    -6649.791    -488.2879     102002.7      46.7237      46.7237      46.7237 
  283000    110.74768   -7221.6726   -6650.8989   -1033.1717     102002.7      46.7237      46.7237      46.7237 
  284000    107.11525   -7233.1189   -6681.0661   -880.75983     102002.7      46.7237      46.7237      46.7237 
  285000    110.70314    -7227.038   -6656.4938   -773.27339     102002.7      46.7237      46.7237      46.7237 
  286000    112.35974    -7210.665   -6631.5831    -794.6132     102002.7      46.7237      46.7237      46.7237 
  287000    110.28188   -7240.0035   -6671.6305   -567.15307     102002.7      46.7237      46.7237      46.7237 
  288000    110.40439   -7226.5639   -6657.5595   -613.69036     102002.7      46.7237      46.7237      46.7237 
  289000    111.34968   -7235.6662   -6661.7899   -559.84953     102002.7      46.7237      46.7237      46.7237 
  290000    108.79767   -7205.2039   -6644.4803   -462.50286     102002.7      46.7237      46.7237      46.7237 
  291000    109.96287   -7230.9534   -6664.2245   -638.62299     102002.7      46.7237      46.7237      46.7237 
  292000    110.87488   -7217.5893   -6646.1601   -328.67424     102002.7      46.7237      46.7237      46.7237 
  293000    107.80167   -7214.3324   -6658.7419   -778.16204     102002.7      46.7237      46.7237      46.7237 
  294000    105.58786   -7235.4006   -6691.2197   -662.26815     102002.7      46.7237      46.7237      46.7237 
  295000     112.5443    -7221.174   -6641.1409   -355.36565     102002.7      46.7237      46.7237      46.7237 
  296000     107.8758   -7232.1379   -6676.1654   -1009.7551     102002.7      46.7237      46.7237      46.7237 
  297000    109.85169   -7204.8329    -6638.677   -682.90017     102002.7      46.7237      46.7237      46.7237 
  298000    108.21714   -7227.4446   -6669.7129     -804.735     102002.7      46.7237      46.7237      46.7237 
  299000    116.53918   -7229.6305   -6629.0085   -959.08858     102002.7      46.7237      46.7237      46.7237 
  300000    113.96413   -7234.3678   -6647.0171   -775.37753     102002.7      46.7237      46.7237      46.7237 
  301000    107.44396   -7226.6143   -6672.8674   -754.54256     102002.7      46.7237      46.7237      46.7237 
  302000    112.53835   -7223.2203   -6643.2178   -579.33234     102002.7      46.7237      46.7237      46.7237 
  303000    109.35024   -7228.9076   -6665.3361   -568.70326     102002.7      46.7237      46.7237      46.7237 
  304000    108.56902   -7219.1731   -6659.6279   -654.70573     102002.7      46.7237      46.7237      46.7237 
  305000    111.81279   -7210.8218   -6634.5588   -540.09752     102002.7      46.7237      46.7237      46.7237 
  306000    108.25641   -7233.4482    -6675.514   -683.89218     102002.7      46.7237      46.7237      46.7237 
  307000     109.0384   -7218.8847   -6656.9203   -616.72971     102002.7      46.7237      46.7237      46.7237 
  308000    111.29411   -7239.7589   -6666.1691   -645.37668     102002.7      46.7237      46.7237      46.7237 
  309000    113.71621   -7233.6971   -6647.6241   -633.02504     102002.7      46.7237      46.7237      46.7237 
  310000    108.39004   -7240.9942   -6682.3713   -516.19369     102002.7      46.7237      46.7237      46.7237 
  311000    112.68986   -7226.6658   -6645.8825   -516.38289     102002.7      46.7237      46.7237      46.7237 
  312000    108.79566   -7235.1737   -6674.4604   -700.22934     102002.7      46.7237      46.7237      46.7237 
  313000    109.33802   -7225.0794   -6661.5708   -813.64818     102002.7      46.7237      46.7237      46.7237 
  314000    112.37996   -7224.9494   -6645.7633   -638.38957     102002.7      46.7237      46.7237      46.7237 
  315000    110.17583   -7238.4505    -6670.624   -620.52747     102002.7      46.7237      46.7237      46.7237 
  316000    110.18639   -7226.3675   -6658.4866   -1008.2742     102002.7      46.7237      46.7237      46.7237 
  317000    108.99568   -7202.7394   -6640.9953    -782.2751     102002.7      46.7237      46.7237      46.7237 
  318000    111.00257   -7244.4068   -6672.3195   -1070.9909     102002.7      46.7237      46.7237      46.7237 
  319000    106.62335   -7237.9718   -6688.4542   -846.50002     102002.7      46.7237      46.7237      46.7237 
  320000     113.0036   -7236.9482   -6654.5479   -931.38399     102002.7      46.7237      46.7237      46.7237 
  321000    109.36907   -7238.8433   -6675.1747   -665.55302     102002.7      46.7237      46.7237      46.7237 
  322000    109.48197    -7241.716   -6677.4656   -430.46244     102002.7      46.7237      46.7237      46.7237 
  323000    108.25165   -7216.7181   -6658.8085   -830.62295     102002.7      46.7237      46.7237      46.7237 
  324000    109.30681   -7219.1118   -6655.7641   -758.97113     102002.7      46.7237      46.7237      46.7237 
  325000    107.72824   -7242.7695   -6687.5575   -634.14489     102002.7      46.7237      46.7237      46.7237 
  326000    110.21405   -7231.1956   -6663.1722    -808.5999     102002.7      46.7237      46.7237      46.7237 
  327000    110.98691   -7236.2413   -6664.2347   -914.59729     102002.7      46.7237      46.7237      46.7237 
  328000    109.40317    -7236.313   -6672.4687   -489.83414     102002.7      46.7237      46.7237      46.7237 
  329000    114.59387   -7211.1108   -6620.5146   -658.64198     102002.7      46.7237      46.7237      46.7237 
  330000    111.25362   -7230.5154   -6657.1342   -829.72781     102002.7      46.7237      46.7237      46.7237 
  331000    111.52995   -7229.7509   -6654.9455    -781.1446     102002.7      46.7237      46.7237      46.7237 
  332000    107.71726   -7255.4285   -6700.2731   -719.12386     102002.7      46.7237      46.7237      46.7237 
  333000    110.70706   -7234.0418   -6663.4774    -866.1621     102002.7      46.7237      46.7237      46.7237 
  334000     109.6332   -7227.2827   -6662.2529    -730.7622     102002.7      46.7237      46.7237      46.7237 
  335000    108.10844   -7229.3287   -6672.1572   -884.55312     102002.7      46.7237      46.7237      46.7237 
  336000    111.57078   -7222.3917   -6647.3759   -531.93008     102002.7      46.7237      46.7237      46.7237 
  337000    106.61462   -7216.5363   -6667.0637   -764.89815     102002.7      46.7237      46.7237      46.7237 
  338000    109.65501     -7240.74   -6675.5978   -698.97986     102002.7      46.7237      46.7237      46.7237 
  339000    107.95131    -7214.087   -6657.7254   -805.86004     102002.7      46.7237      46.7237      46.7237 
  340000    106.69911   -7238.5938   -6688.6857   -899.27849     102002.7      46.7237      46.7237      46.7237 
  341000    111.21741   -7221.9114   -6648.7168   -858.28414     102002.7      46.7237      46.7237      46.7237 
  342000    110.20469   -7240.7734   -6672.7981   -694.69212     102002.7      46.7237      46.7237      46.7237 
  343000    111.12909    -7219.087   -6646.3476   -720.87931     102002.7      46.7237      46.7237      46.7237 
  344000    110.70752   -7228.0721   -6657.5053   -581.52087     102002.7      46.7237      46.7237      46.7237 
  345000    105.22024   -7207.5919   -6665.3057   -917.32141     102002.7      46.7237      46.7237      46.7237 
  346000    111.08996   -7230.7841   -6658.2463   -992.90012     102002.7      46.7237      46.7237      46.7237 
  347000    108.37164   -7225.3364   -6666.8084   -654.77555     102002.7      46.7237      46.7237      46.7237 
  348000    112.71484   -7216.5336   -6635.6216   -809.97267     102002.7      46.7237      46.7237      46.7237 
  349000    107.65562   -7232.2144   -6677.3766   -724.98162     102002.7      46.7237      46.7237      46.7237 
  350000     109.5274   -7218.5546   -6654.0701   -427.74371     102002.7      46.7237      46.7237      46.7237 
  351000     111.5953   -7224.3685   -6649.2263   -597.29959     102002.7      46.7237      46.7237      46.7237 
  352000     107.9185    -7229.998   -6673.8054   -831.79219     102002.7      46.7237      46.7237      46.7237 
  353000    114.21355   -7231.2957   -6642.6596   -510.41297     102002.7      46.7237      46.7237      46.7237 
  354000    111.87811   -7225.0631   -6648.4634   -620.12617     102002.7      46.7237      46.7237      46.7237 
  355000    110.90365   -7241.8203   -6670.2427   -620.34937     102002.7      46.7237      46.7237      46.7237 
  356000    110.46574   -7207.3327   -6638.0121   -711.47969     102002.7      46.7237      46.7237      46.7237 
  357000    108.15943   -7230.9411   -6673.5068   -673.08107     102002.7      46.7237      46.7237      46.7237 
  358000    107.18381   -7230.7967   -6678.3906   -449.88295     102002.7      46.7237      46.7237      46.7237 
  359000    108.52877    -7221.864   -6662.5262   -735.45741     102002.7      46.7237      46.7237      46.7237 
  360000    114.13036   -7247.8548   -6659.6473   -484.40141     102002.7      46.7237      46.7237      46.7237 
  361000    111.26636   -7220.0153   -6646.5685   -585.02147     102002.7      46.7237      46.7237      46.7237 
  362000    108.83917   -7218.0001   -6657.0625   -746.06899     102002.7      46.7237      46.7237      46.7237 
  363000    106.91947   -7240.1606   -6689.1169   -635.90023     102002.7      46.7237      46.7237      46.7237 
  364000    109.70793    -7241.141    -6675.726   -730.55175     102002.7      46.7237      46.7237      46.7237 
  365000    109.09365   -7244.8691     -6682.62   -646.27215     102002.7      46.7237      46.7237      46.7237 
  366000    111.35255   -7250.9675   -6677.0764   -540.75823     102002.7      46.7237      46.7237      46.7237 
  367000     109.7087   -7221.0031   -6655.5841   -830.96793     102002.7      46.7237      46.7237      46.7237 
  368000    110.92935   -7237.0151   -6665.3052   -550.66145     102002.7      46.7237      46.7237      46.7237 
  369000    107.48068   -7227.7948   -6673.8587   -813.46742     102002.7      46.7237      46.7237      46.7237 
  370000    107.68677    -7219.645   -6664.6467   -562.93789     102002.7      46.7237      46.7237      46.7237 
  371000    109.75698   -7224.8494   -6659.1817   -731.39558     102002.7      46.7237      46.7237      46.7237 
  372000    107.98507   -7225.9166    -6669.381   -502.37501     102002.7      46.7237      46.7237      46.7237 
  373000    110.74075    -7252.267   -6681.5291   -465.83792     102002.7      46.7237      46.7237      46.7237 
  374000    110.52407   -7224.7732    -6655.152   -768.02602     102002.7      46.7237      46.7237      46.7237 
  375000    108.20713   -7243.4656   -6685.7855    -689.8055     102002.7      46.7237      46.7237      46.7237 
  376000    112.28196   -7229.3225   -6650.6414   -1020.0992     102002.7      46.7237      46.7237      46.7237 
  377000    110.52605   -7202.1488   -6632.5174   -542.26032     102002.7      46.7237      46.7237      46.7237 
  378000    107.85297   -7226.1719    -6670.317   -791.80766     102002.7      46.7237      46.7237      46.7237 
  379000     111.1083   -7213.3362    -6640.704   -510.34007     102002.7      46.7237      46.7237      46.7237 
  380000    110.29837   -7219.4663   -6651.0082   -309.60344     102002.7      46.7237      46.7237      46.7237 
  381000    108.82862   -7245.3041    -6684.421   -524.50097     102002.7      46.7237      46.7237      46.7237 
  382000    111.05404   -7240.0974   -6667.7448    -575.5733     102002.7      46.7237      46.7237      46.7237 
  383000      111.799    -7227.112     -6650.92   -734.81249     102002.7      46.7237      46.7237      46.7237 
  384000    109.65347   -7216.4981   -6651.3637   -740.06143     102002.7      46.7237      46.7237      46.7237 
  385000    107.90187   -7234.7853   -6678.6784   -601.85665     102002.7      46.7237      46.7237      46.7237 
  386000    105.24023   -7219.9378   -6677.5485    -590.6813     102002.7      46.7237      46.7237      46.7237 
  387000     109.1129   -7216.2772   -6653.9289   -286.42759     102002.7      46.7237      46.7237      46.7237 
  388000    108.13249   -7237.1071   -6679.8116     -213.533     102002.7      46.7237      46.7237      46.7237 
  389000    112.43305   -7234.7182   -6655.2584   -681.26652     102002.7      46.7237      46.7237      46.7237 
  390000    112.01249   -7241.3143    -6664.022   -499.97042     102002.7      46.7237      46.7237      46.7237 
  391000     111.2336   -7247.1168   -6673.8388   -529.08951     102002.7      46.7237      46.7237      46.7237 
  392000    112.49525   -7230.7202   -6650.9399    -530.3155     102002.7      46.7237      46.7237      46.7237 
  393000    112.41776   -7228.7527   -6649.3718   -530.32887     102002.7      46.7237      46.7237      46.7237 
  394000    109.20997   -7234.1165   -6671.2679   -511.09789     102002.7      46.7237      46.7237      46.7237 
  395000    107.73528   -7220.3901   -6665.1418   -329.01794     102002.7      46.7237      46.7237      46.7237 
  396000    109.63746   -7208.4077   -6643.3559   -818.18809     102002.7      46.7237      46.7237      46.7237 
  397000    111.06129   -7208.2214   -6635.8314   -533.69437     102002.7      46.7237      46.7237      46.7237 
  398000    110.76317   -7224.5666   -6653.7131   -610.23799     102002.7      46.7237      46.7237      46.7237 
  399000     106.8838   -7233.2333   -6682.3734   -743.60608     102002.7      46.7237      46.7237      46.7237 
  400000    110.30817   -7248.2098   -6679.7012   -548.98046     102002.7      46.7237      46.7237      46.7237 
  401000    114.88402   -7237.7362   -6645.6446   -674.33886     102002.7      46.7237      46.7237      46.7237 
  402000    112.02632   -7216.3426    -6638.979   -690.43858     102002.7      46.7237      46.7237      46.7237 
  403000     112.4128   -7197.5028   -6618.1474   -623.26909     102002.7      46.7237      46.7237      46.7237 
  404000    109.52229   -7240.0253   -6675.5671   -738.68526     102002.7      46.7237      46.7237      46.7237 
  405000     112.1277   -7228.9127   -6651.0266   -659.97013     102002.7      46.7237      46.7237      46.7237 
  406000    108.92196   -7232.8752    -6671.511   -744.59676     102002.7      46.7237      46.7237      46.7237 
  407000    110.91539    -7230.766    -6659.128   -848.20289     102002.7      46.7237      46.7237      46.7237 
  408000    113.33404   -7213.0112   -6628.9079   -724.65604     102002.7      46.7237      46.7237      46.7237 
  409000    112.78961   -7239.5792   -6658.2818   -700.53006     102002.7      46.7237      46.7237      46.7237 
  410000    116.53141   -7242.2432   -6641.6612   -878.41783     102002.7      46.7237      46.7237      46.7237 
  411000    111.45306   -7235.0265   -6660.6175   -495.44814     102002.7      46.7237      46.7237      46.7237 
  412000    111.88854   -7248.1853   -6671.5318   -806.46653     102002.7      46.7237      46.7237      46.7237 
  413000    108.92616   -7216.3019   -6654.9161   -800.57529     102002.7      46.7237      46.7237      46.7237 
  414000    111.17454   -7221.9968   -6649.0232   -753.27345     102002.7      46.7237      46.7237      46.7237 
  415000    112.31001    -7256.576   -6677.7504   -936.78833     102002.7      46.7237      46.7237      46.7237 
  416000    107.17238   -7218.5792   -6666.2319     -492.664     102002.7      46.7237      46.7237      46.7237 
  417000    109.57445   -7244.9768   -6680.2497   -815.74302     102002.7      46.7237      46.7237      46.7237 
  418000    107.93756   -7233.4142   -6677.1234   -870.95275     102002.7      46.7237      46.7237      46.7237 
  419000    111.27511   -7228.4201   -6654.9281   -849.11725     102002.7      46.7237      46.7237      46.7237 
  420000    112.94495   -7217.0862   -6634.9882   -741.18338     102002.7      46.7237      46.7237      46.7237 
  421000    113.31581   -7250.2347   -6666.2254   -487.33671     102002.7      46.7237      46.7237      46.7237 
  422000    112.75515   -7221.8679   -6640.7481   -500.08612     102002.7      46.7237      46.7237      46.7237 
  423000    110.34124   -7238.8148   -6670.1359   -431.78125     102002.7      46.7237      46.7237      46.7237 
  424000    109.04669    -7197.234    -6635.227   -468.35279     102002.7      46.7237      46.7237      46.7237 
  425000    111.58009   -7239.3119   -6664.2481   -664.59908     102002.7      46.7237      46.7237      46.7237 
  426000    110.35671   -7231.4081   -6662.6494   -595.24632     102002.7      46.7237      46.7237      46.7237 
  427000    110.69581   -7211.8725   -6641.3662   -588.26521     102002.7      46.7237      46.7237      46.7237 
  428000    109.42766   -7226.8509   -6662.8804   -626.58733     102002.7      46.7237      46.7237      46.7237 
  429000    111.52985   -7242.3171   -6667.5122   -579.25556     102002.7      46.7237      46.7237      46.7237 
  430000    111.55079   -7221.8949   -6646.9822   -674.77299     102002.7      46.7237      46.7237      46.7237 
  431000     113.1437   -7245.2027   -6662.0804    -779.4947     102002.7      46.7237      46.7237      46.7237 
  432000    106.13438   -7221.6983   -6674.7007   -670.30951     102002.7      46.7237      46.7237      46.7237 
  433000    113.29329   -7221.2325   -6637.3392   -829.44098     102002.7      46.7237      46.7237      46.7237 
  434000    110.87414   -7231.2512   -6659.8258   -622.97708     102002.7      46.7237      46.7237      46.7237 
  435000    106.18324   -7227.1736   -6679.9242   -757.62544     102002.7      46.7237      46.7237      46.7237 
  436000    112.97929   -7232.0657   -6649.7907   -813.03148     102002.7      46.7237      46.7237      46.7237 
  437000    111.71639   -7220.2227   -6644.4565   -714.43757     102002.7      46.7237      46.7237      46.7237 
  438000    112.51483   -7227.7642   -6647.8829   -888.45554     102002.7      46.7237      46.7237      46.7237 
  439000    111.19015   -7216.3544   -6643.3004   -759.65752     102002.7      46.7237      46.7237      46.7237 
  440000    108.53643   -7242.7627   -6683.3854   -640.16959     102002.7      46.7237      46.7237      46.7237 
  441000    108.84378   -7234.1988   -6673.2375   -738.84975     102002.7      46.7237      46.7237      46.7237 
  442000    111.02287   -7228.0224   -6655.8305   -712.85251     102002.7      46.7237      46.7237      46.7237 
  443000     112.2181   -7219.4805   -6641.1285   -661.69696     102002.7      46.7237      46.7237      46.7237 
  444000    106.70513   -7241.1391      -6691.2   -597.61464     102002.7      46.7237      46.7237      46.7237 
  445000     112.0148    -7228.043   -6650.7388   -576.29424     102002.7      46.7237      46.7237      46.7237 
  446000    109.32535   -7239.6598   -6676.2166   -854.59997     102002.7      46.7237      46.7237      46.7237 
  447000    107.79096   -7234.5838   -6679.0486   -442.29287     102002.7      46.7237      46.7237      46.7237 
  448000    109.60478   -7219.1201   -6654.2367   -720.02086     102002.7      46.7237      46.7237      46.7237 
  449000    107.99995   -7195.2539   -6638.6415   -641.43711     102002.7      46.7237      46.7237      46.7237 
  450000    110.52265   -7232.1875   -6662.5736   -577.65042     102002.7      46.7237      46.7237      46.7237 
  451000    110.15934   -7225.6163   -6657.8748   -881.30819     102002.7      46.7237      46.7237      46.7237 
  452000    105.09299   -7234.8134    -6693.183   -641.64799     102002.7      46.7237      46.7237      46.7237 
  453000    112.75095   -7232.7243   -6651.6261   -970.75043     102002.7      46.7237      46.7237      46.7237 
  454000    107.05298   -7226.6813   -6674.9494    -478.3574     102002.7      46.7237      46.7237      46.7237 
  455000     113.1468   -7221.2661   -6638.1278   -646.10964     102002.7      46.7237      46.7237      46.7237 
  456000    105.16121   -7236.3592   -6694.3772   -549.75041     102002.7      46.7237      46.7237      46.7237 
  457000    111.21633   -7232.8087   -6659.6197    -952.8111     102002.7      46.7237      46.7237      46.7237 
  458000    113.15603   -7239.9863   -6656.8004   -678.79715     102002.7      46.7237      46.7237      46.7237 
  459000    110.60718   -7227.5087   -6657.4591   -803.56771     102002.7      46.7237      46.7237      46.7237 
  460000    114.63107   -7219.0609   -6628.2729    -735.3827     102002.7      46.7237      46.7237      46.7237 
  461000    106.06274   -7206.9691   -6660.3408   -838.59046     102002.7      46.7237      46.7237      46.7237 
  462000    107.86654   -7232.3647   -6676.4399   -818.16181     102002.7      46.7237      46.7237      46.7237 
  463000    108.77798   -7221.8606   -6661.2384   -579.81811     102002.7      46.7237      46.7237      46.7237 
  464000    111.37805   -7228.8932   -6654.8707   -734.41893     102002.7      46.7237      46.7237      46.7237 
  465000    105.23941    -7237.484    -6695.099   -665.39096     102002.7      46.7237      46.7237      46.7237 
  466000    110.78328   -7225.4131    -6654.456    -701.1707     102002.7      46.7237      46.7237      46.7237 
  467000    108.18376   -7217.7379   -6660.1782    -883.1701     102002.7      46.7237      46.7237      46.7237 
  468000    110.38152   -7213.6126   -6644.7261   -613.00488     102002.7      46.7237      46.7237      46.7237 
  469000    110.32968   -7241.0644    -6672.445   -751.46599     102002.7      46.7237      46.7237      46.7237 
  470000    107.40925   -7227.4059   -6673.8379   -666.93257     102002.7      46.7237      46.7237      46.7237 
  471000    108.91488   -7219.0078     -6657.68   -723.14141     102002.7      46.7237      46.7237      46.7237 
  472000     108.2296   -7248.0135   -6690.2175   -629.38023     102002.7      46.7237      46.7237      46.7237 
  473000    108.25024   -7218.0797   -6660.1774   -620.60214     102002.7      46.7237      46.7237      46.7237 
  474000    109.91351   -7221.4347   -6654.9601   -547.95411     102002.7      46.7237      46.7237      46.7237 
  475000    109.01125   -7243.2863   -6681.4619     -638.282     102002.7      46.7237      46.7237      46.7237 
  476000     109.1083   -7210.8457   -6648.5211   -584.89412     102002.7      46.7237      46.7237      46.7237 
  477000    108.57255   -7236.6483   -6677.0848   -858.70951     102002.7      46.7237      46.7237      46.7237 
  478000    110.18867   -7235.3595   -6667.4669   -754.06215     102002.7      46.7237      46.7237      46.7237 
  479000    107.44603   -7224.9868   -6671.2292   -850.44229     102002.7      46.7237      46.7237      46.7237 
  480000    110.72124     -7196.09   -6625.4526   -743.51313     102002.7      46.7237      46.7237      46.7237 
  481000    110.90413   -7225.4034   -6653.8234   -827.56356     102002.7      46.7237      46.7237      46.7237 
  482000    111.83199   -7221.9835   -6645.6214   -687.06912     102002.7      46.7237      46.7237      46.7237 
  483000    109.52437   -7229.8806   -6665.4116   -323.01381     102002.7      46.7237      46.7237      46.7237 
  484000    108.45783   -7217.9853   -6659.0131   -643.03118     102002.7      46.7237      46.7237      46.7237 
  485000    109.84089   -7214.8368   -6648.7366   -637.14241     102002.7      46.7237      46.7237      46.7237 
  486000    108.70495    -7234.765   -6674.5192   -616.41623     102002.7      46.7237      46.7237      46.7237 
  487000    110.42113   -7240.6643   -6671.5736   -746.16338     102002.7      46.7237      46.7237      46.7237 
  488000    109.21512   -7220.0666   -6657.1914   -669.46918     102002.7      46.7237      46.7237      46.7237 
  489000    109.12489   -7223.6259   -6661.2158   -670.25847     102002.7      46.7237      46.7237      46.7237 
  490000    110.46914   -7235.5831    -6666.245   -350.60352     102002.7      46.7237      46.7237      46.7237 
  491000    110.33526   -7191.5808   -6622.9327   -787.04367     102002.7      46.7237      46.7237      46.7237 
  492000    109.51898   -7226.1065   -6661.6653   -605.80721     102002.7      46.7237      46.7237      46.7237 
  493000    109.37003   -7237.7249   -6674.0514   -624.68826     102002.7      46.7237      46.7237      46.7237 
  494000    112.22065   -7222.4617   -6644.0966   -737.87353     102002.7      46.7237      46.7237      46.7237 
  495000    109.98665   -7196.4432   -6629.5917   -795.51611     102002.7      46.7237      46.7237      46.7237 
  496000     110.5032   -7220.9313   -6651.4177   -937.00301     102002.7      46.7237      46.7237      46.7237 
  497000    111.11794   -7239.5864   -6666.9044    -396.0496     102002.7      46.7237      46.7237      46.7237 
  498000     112.5703   -7242.2183   -6662.0512   -614.50451     102002.7      46.7237      46.7237      46.7237 
  499000    110.35092   -7229.0855   -6660.3567   -685.30188     102002.7      46.7237      46.7237      46.7237 
  500000    108.03254   -7238.0792   -6681.2989   -658.03604     102002.7      46.7237      46.7237      46.7237 
  500503    109.51349   -7224.2906   -6659.8777   -610.34462     102002.7      46.7237      46.7237      46.7237 
Loop time of 569.867 on 24 procs for 500000 steps with 1730 atoms

Performance: 75.807 ns/day, 0.317 hours/ns, 877.398 timesteps/s
99.9% CPU use with 24 MPI tasks x no OpenMP threads

MPI task timing breakdown:
Section |  min time  |  avg time  |  max time  |%varavg| %total
---------------------------------------------------------------
Pair    | 181.29     | 273.5      | 366.86     | 312.9 | 47.99
Bond    | 72.317     | 78.523     | 85.958     |  35.3 | 13.78
Neigh   | 1.5006     | 1.5191     | 1.5315     |   1.0 |  0.27
Comm    | 114.54     | 209.02     | 299.98     | 359.8 | 36.68
Output  | 0.29362    | 0.29386    | 0.297      |   0.1 |  0.05
Modify  | 3.4708     | 3.9268     | 4.2225     |  11.1 |  0.69
Other   |            | 3.089      |            |       |  0.54

Nlocal:    72.0833 ave 100 max 51 min
Histogram: 1 3 4 4 3 3 4 0 1 1
Nghost:    1974.62 ave 2141 max 1876 min
Histogram: 9 7 0 0 0 0 0 0 1 7
Neighs:    7637.83 ave 11669 max 4769 min
Histogram: 4 0 5 3 4 1 4 1 1 1

Total # of neighbors = 183308
Ave neighs/atom = 105.958
Ave special neighs/atom = 6.65896
Neighbor list builds = 2881
Dangerous builds = 0
Neighbor list info ...
  update every 1 steps, delay 10 steps, check yes
  max neighbors/atom: 2000, page size: 100000
  master list distance cutoff = 16
  ghost atom cutoff = 16
  binsize = 8, bins = 6 6 6
  3 neighbor lists, perpetual/occasional/extra = 3 0 0
  (1) pair buck6d/coul/gauss/dsf, perpetual, skip from (3)
      attributes: half, newton on
      pair build: skip
      stencil: none
      bin: none
  (2) pair lj/cut, perpetual, skip from (3)
      attributes: half, newton on
      pair build: skip
      stencil: none
      bin: none
  (3) neighbor class addition, perpetual
      attributes: half, newton on
      pair build: half/bin/newton
      stencil: half/bin/3d/newton
      bin: standard
Setting up Verlet run ...
  Unit style    : real
  Current step  : 500503
  Time step     : 1
WARNING: Inconsistent image flags (../domain.cpp:786)
Per MPI rank memory allocation (min/avg/max) = 24.1 | 24.46 | 24.57 Mbytes
Step Time TotEng KinEng PotEng E_mol E_pair Temp Pxx Pyy Pzz Pxy Pxz Pyz Cella Cellb Cellc CellAlpha CellBeta CellGamma Volume Press 
  500503       500000   -6659.8777    564.41288   -7224.2906    4298.9345   -11523.225    109.51349   -728.42328   -849.26051   -253.35006    226.64486   -112.58405     12.37775      46.7237      46.7237      46.7237           90           90           90     102002.7   -610.34462 
  501000       500497   -6641.6852    577.43831   -7219.1235    4318.5405   -11537.664    112.04083   -139.94153   -194.81899   -648.04251    171.58986    71.705892   -102.74212      46.7237      46.7237      46.7237           90           90           90     102002.7   -327.60101 
  502000       501497   -6650.2293    576.07717   -7226.3064    4313.0376   -11539.344    111.77672   -803.56359   -1036.3064   -1002.7683    104.11739   -148.57101    233.59941      46.7237      46.7237      46.7237           90           90           90     102002.7    -947.5461 
  503000       502497   -6684.4361    539.70396     -7224.14    4304.9637   -11529.104     104.7192    -977.4077   -1186.8361    -992.2226    382.98843    226.83369   -62.540818      46.7237      46.7237      46.7237           90           90           90     102002.7   -1052.1555 
  504000       503497   -6663.3964    562.59399   -7225.9904    4321.1439   -11547.134    109.16057    -335.5338   -471.93844   -722.88701    14.335577   -15.151539   -337.90262      46.7237      46.7237      46.7237           90           90           90     102002.7   -510.11975 
  505000       504497   -6643.9156    575.98217   -7219.8977    4313.1404   -11533.038    111.75829   -393.11751   -613.46092   -766.08756    160.32428   -98.206916    -20.45749      46.7237      46.7237      46.7237           90           90           90     102002.7   -590.88866 
  506000       505497   -6671.4658    557.15339   -7228.6192    4309.4026   -11538.022    108.10492   -1043.7307   -456.92485   -297.66193    -30.42006   -226.43383   -110.25827      46.7237      46.7237      46.7237           90           90           90     102002.7   -599.43916 
  507000       506497   -6638.7996     568.6515   -7207.4511    4336.9843   -11544.435    110.33591   -1185.1516   -562.07357    13.983601   -276.51406    271.43428   -137.71494      46.7237      46.7237      46.7237           90           90           90     102002.7   -577.74719 
  508000       507497   -6647.8273    559.72435   -7207.5516    4342.5411   -11550.093    108.60377   -600.35921   -442.00489    -800.3166   -75.784951   -233.05176   -243.94405      46.7237      46.7237      46.7237           90           90           90     102002.7    -614.2269 
  509000       508497    -6647.571    577.08227   -7224.6533    4327.8598   -11552.513    111.97174   -752.86077   -451.17317   -719.74081    166.29006   -43.223157    3.5573514      46.7237      46.7237      46.7237           90           90           90     102002.7   -641.25825 
  510000       509497   -6660.6593     561.5299   -7222.1892    4296.8022   -11518.991     108.9541   -436.10999   -234.88686   -860.18871   -65.525691    176.57796    226.35765      46.7237      46.7237      46.7237           90           90           90     102002.7   -510.39519 
  511000       510497   -6664.8124    572.25206   -7237.0645     4315.644   -11552.709    111.03453   -480.79211     -256.303   -1017.7662    3.8478456   -183.85958    89.566655      46.7237      46.7237      46.7237           90           90           90     102002.7   -584.95377 
  512000       511497   -6670.4327    557.13682   -7227.5695     4306.996   -11534.565    108.10171   -1155.8963   -898.67771   -365.30848    296.39575    385.58147   -294.26062      46.7237      46.7237      46.7237           90           90           90     102002.7   -806.62749 
  513000       512497   -6677.8249    558.74437   -7236.5693    4314.7294   -11551.299    108.41362   -853.35816   -662.41696    -577.4439    107.34114    27.674401   -112.47317      46.7237      46.7237      46.7237           90           90           90     102002.7   -697.73967 
  514000       513497   -6638.1241    569.03117   -7207.1553    4308.8754   -11516.031    110.40958   -667.67704   -622.07005   -921.97277   -271.21182    307.56943     93.89841      46.7237      46.7237      46.7237           90           90           90     102002.7   -737.23995 
  515000       514497   -6663.7322    557.80265   -7221.5349     4326.839   -11548.374     108.2309   -540.07199   -156.42974   -593.82347   -140.66201    114.99437   -432.99545      46.7237      46.7237      46.7237           90           90           90     102002.7    -430.1084 
  516000       515497   -6654.4226    569.27638    -7223.699    4318.1685   -11541.868    110.45716   -1178.4992   -780.23365   -922.65797   -333.65594    75.814621  -0.41613108      46.7237      46.7237      46.7237           90           90           90     102002.7   -960.46361 
  517000       516497   -6690.9385    539.65252    -7230.591    4287.5417   -11518.133    104.70922   -205.61945   -631.83851   -796.18084   -244.56478   -33.586548    147.80044      46.7237      46.7237      46.7237           90           90           90     102002.7   -544.54627 
  518000       517497   -6657.0502    583.92775    -7240.978    4298.0311   -11539.009    113.29998   -787.39094   -437.93828   -783.95019   -202.30361    123.57259   -260.94023      46.7237      46.7237      46.7237           90           90           90     102002.7    -669.7598 
  519000       518497   -6666.0611    569.10882     -7235.17    4308.2759   -11543.446    110.42465    -862.0109   -852.79894   -776.28568    90.392597   -75.013826    276.72951      46.7237      46.7237      46.7237           90           90           90     102002.7   -830.36517 
  520000       519497   -6667.8628    561.21082   -7229.0736    4312.2428   -11541.316    108.89219   -656.82625   -945.43156   -855.21898    53.637339    269.30301    28.167772      46.7237      46.7237      46.7237           90           90           90     102002.7   -819.15893 
  521000       520497   -6638.2717    585.14126   -7223.4129    4317.2436   -11540.656    113.53543   -734.39902   -927.59349   -951.42134    85.912663   -118.89696     189.4536      46.7237      46.7237      46.7237           90           90           90     102002.7   -871.13795 
  522000       521497   -6649.6222    575.03352   -7224.6558    4320.5857   -11545.241    111.57422   -817.61476   -589.46504   -542.18603     71.64721   -294.05245    119.55195      46.7237      46.7237      46.7237           90           90           90     102002.7   -649.75528 
  523000       522497   -6666.5875    550.67527   -7217.2627    4339.0691   -11556.332    106.84797   -556.53231   -929.03042   -816.38135   -107.31559   -79.910153   -30.146123      46.7237      46.7237      46.7237           90           90           90     102002.7   -767.31469 
  524000       523497   -6637.4495     579.6461   -7217.0956    4314.9319   -11532.028     112.4692   -749.37899   -1055.4869   -1083.7649   -49.519587   -205.06235    115.52933      46.7237      46.7237      46.7237           90           90           90     102002.7   -962.87693 
  525000       524497   -6651.3483    569.13076   -7220.4791    4310.7341   -11531.213    110.42891   -575.72739   -555.46796   -688.55929    237.46424    23.564099    129.05458      46.7237      46.7237      46.7237           90           90           90     102002.7   -606.58488 
  526000       525497   -6672.6561    570.93077   -7243.5868    4283.9853   -11527.572    110.77816   -650.08061    -987.0083   -630.68279    127.80914   -11.854178    -9.447982      46.7237      46.7237      46.7237           90           90           90     102002.7    -755.9239 
  527000       526497   -6653.2981    570.31521   -7223.6133     4311.283   -11534.896    110.65872   -918.28582   -490.70807   -336.02663    -52.65314    38.533798   -93.938533      46.7237      46.7237      46.7237           90           90           90     102002.7   -581.67351 
  528000       527497    -6698.384    554.00579   -7252.3898    4288.1642   -11540.554    107.49419   -710.10697   -700.61795   -1273.8002   -152.20737    192.84668   -103.70266      46.7237      46.7237      46.7237           90           90           90     102002.7   -894.84171 
  529000       528497   -6668.8763    557.56671    -7226.443    4311.8474    -11538.29    108.18512   -657.29569   -738.44593   -467.77895    282.64894    155.90851   -142.36894      46.7237      46.7237      46.7237           90           90           90     102002.7   -621.17353 
  530000       529497   -6637.9055    572.71159   -7210.6171    4339.4431    -11550.06    111.12369   -756.97392   -885.22625   -449.49667    -146.3888     139.1727   -113.59505      46.7237      46.7237      46.7237           90           90           90     102002.7   -697.23228 
  531000       530497   -6658.5904    559.09396   -7217.6844    4318.1665   -11535.851    108.48146   -1005.4594   -672.91029   -995.14124     148.2794   -215.73309   -355.07731      46.7237      46.7237      46.7237           90           90           90     102002.7    -891.1703 
  532000       531497   -6683.2747    571.40998   -7254.6847    4287.9695   -11542.654    110.87114   -641.94551   -701.00807   -778.94263    109.42196    145.89787     35.65935      46.7237      46.7237      46.7237           90           90           90     102002.7   -707.29873 
  533000       532497   -6661.0059    569.35571   -7230.3616    4298.4126   -11528.774    110.47255   -1025.5104   -430.05409   -777.54886    127.25998    173.30012    11.300741      46.7237      46.7237      46.7237           90           90           90     102002.7   -744.37113 
  534000       533497   -6691.3115    540.38412   -7231.6956    4315.6131   -11547.309    104.85117     -658.596   -816.03194   -605.52345   -70.658374   -48.566052    271.78175      46.7237      46.7237      46.7237           90           90           90     102002.7    -693.3838 
  535000       534497   -6655.5032    564.42545   -7219.9287    4329.1735   -11549.102    109.51593   -1000.4387   -603.34396   -846.25428   -121.24411   -86.323906    8.5924281      46.7237      46.7237      46.7237           90           90           90     102002.7   -816.67897 
  536000       535497   -6698.8883     552.1944   -7251.0827    4269.7246   -11520.807    107.14273    -503.8504   -199.38758   -560.76032    280.45651   -57.906989   -7.3685713      46.7237      46.7237      46.7237           90           90           90     102002.7   -421.33277 
  537000       536497   -6639.2099    562.89715   -7202.1071    4315.1975   -11517.305    109.21939   -590.73935   -808.75487   -760.70666   -22.748415   -38.229546    399.74245      46.7237      46.7237      46.7237           90           90           90     102002.7   -720.06696 
  538000       537497   -6679.4437    545.37063   -7224.8143    4318.0666   -11542.881    105.81871    -802.0337   -706.46642   -907.87474    -265.3267   -42.133187   -201.69822      46.7237      46.7237      46.7237           90           90           90     102002.7   -805.45829 
  539000       538497   -6654.0273    577.73963   -7231.7669    4309.3413   -11541.108    112.09929   -642.86361   -676.99378   -852.49422    112.92695   -93.314467   -44.066982      46.7237      46.7237      46.7237           90           90           90     102002.7    -724.1172 
  540000       539497   -6652.7106    556.54497   -7209.2555    4319.7809   -11529.036    107.98687   -698.31571    -918.1347   -1115.3056    25.689725    3.9888222    316.16732      46.7237      46.7237      46.7237           90           90           90     102002.7   -910.58534 
  541000       540497    -6668.644    548.77016   -7217.4142    4317.4354    -11534.85    106.47832   -902.87669   -695.44476   -802.58951    199.26288    117.68581    39.609317      46.7237      46.7237      46.7237           90           90           90     102002.7   -800.30365 
  542000       541497   -6642.5388    574.76018    -7217.299    4316.1633   -11533.462    111.52118   -947.53238   -378.94836   -913.13717   -175.22343   -11.495444   -145.17522      46.7237      46.7237      46.7237           90           90           90     102002.7    -746.5393 
  543000       542497   -6667.0653    584.68383   -7251.7491    4288.7315   -11540.481    113.44668   -556.50137   -387.60932   -766.98876    62.014523    62.077129    178.46295      46.7237      46.7237      46.7237           90           90           90     102002.7   -570.36648 
  544000       543497   -6684.1416    565.70601   -7249.8476    4283.0458   -11532.893     109.7644   -769.59238   -435.83899   -835.67036    108.02495    132.35322   -19.440216      46.7237      46.7237      46.7237           90           90           90     102002.7   -680.36724 
  545000       544497   -6658.9747    564.24805   -7223.2227     4308.981   -11532.204    109.48151   -676.85823   -664.22538   -691.64986    -291.1971   -198.11725    140.95314      46.7237      46.7237      46.7237           90           90           90     102002.7   -677.57782 
  546000       545497   -6653.1579    566.69297   -7219.8508    4310.9059   -11530.757     109.9559   -726.66172    -919.3962   -385.24531     49.90922   -154.64097   -319.50006      46.7237      46.7237      46.7237           90           90           90     102002.7   -677.10108 
  547000       546497   -6667.3552    567.62914   -7234.9844    4302.2527   -11537.237    110.13754   -719.14188   -850.77597   -800.39236   -25.630711    27.155153   -269.57242      46.7237      46.7237      46.7237           90           90           90     102002.7    -790.1034 
  548000       547497    -6633.637     586.1416   -7219.7786    4297.6449   -11517.424    113.72953   -630.87611   -807.49837   -365.95947   -42.235257    66.893299    282.96832      46.7237      46.7237      46.7237           90           90           90     102002.7   -601.44465 
  549000       548497    -6658.156    576.45794    -7234.614    4312.0899   -11546.704     111.8506   -587.29626   -1006.3122   -641.90965    141.74868   -248.21894    100.13102      46.7237      46.7237      46.7237           90           90           90     102002.7    -745.1727 
  550000       549497   -6669.9362    566.67826   -7236.6145    4294.2158    -11530.83    109.95304   -821.17184   -228.91507   -928.15162   -28.513739   -307.60265    261.93635      46.7237      46.7237      46.7237           90           90           90     102002.7   -659.41284 
  551000       550497   -6645.1538    578.14529   -7223.2991     4322.581    -11545.88      112.178   -443.75532   -221.17753   -270.38102    416.33553   -160.51201   -27.381239      46.7237      46.7237      46.7237           90           90           90     102002.7   -311.77129 
  552000       551497   -6684.0544    555.91009   -7239.9645    4297.0966   -11537.061    107.86369   -664.47905   -967.31675   -831.24271   -41.461401   -39.546921     150.8331      46.7237      46.7237      46.7237           90           90           90     102002.7   -821.01284 
  553000       552497   -6661.6651    562.28208   -7223.9472    4294.6823   -11518.629    109.10005   -843.97798   -816.80208   -690.94399    23.936229   -124.28657    -4.730802      46.7237      46.7237      46.7237           90           90           90     102002.7   -783.90802 
  554000       553497   -6674.6496    558.29909   -7232.9487    4309.7992   -11542.748    108.32723   -1049.9237   -280.48238    -962.9052    84.891979   -1.4179834    19.109148      46.7237      46.7237      46.7237           90           90           90     102002.7   -764.43709 
  555000       554497   -6664.9653    556.06301   -7221.0283    4320.5442   -11541.572    107.89336   -803.49876   -750.88217   -416.41327    144.83029    83.280956   -31.604241      46.7237      46.7237      46.7237           90           90           90     102002.7    -656.9314 
[...]
  936000       935497   -6670.8055    570.78812   -7241.5937    4304.5105   -11546.104    110.75048   -869.52964   -751.21942   -1039.6541    65.295685    79.771379    87.727441      46.7237      46.7237      46.7237           90           90           90     102002.7   -886.80106 
  937000       936497   -6649.8025    571.37813   -7221.1806    4313.5138   -11534.694    110.86496   -447.36638   -100.09828   -1002.3491   -67.408607   -65.336561    156.60199      46.7237      46.7237      46.7237           90           90           90     102002.7    -516.6046 
  938000       937497   -6657.6265    566.48248    -7224.109    4325.4708    -11549.58    109.91506   -942.77547   -462.47151   -266.78977   -102.26777    113.60121   -71.396403      46.7237      46.7237      46.7237           90           90           90     102002.7   -557.34558 
  939000       938497   -6677.4126    563.29591   -7240.7085    4282.6591   -11523.368    109.29676   -775.46595   -810.00469   -489.09543    308.88464    107.14613    47.596117      46.7237      46.7237      46.7237           90           90           90     102002.7   -691.52203 
  940000       939497   -6650.3488    572.49673   -7222.8455    4314.3687   -11537.214    111.08201   -1014.1316   -727.90313   -445.40791     -200.797    65.031892   -98.860093      46.7237      46.7237      46.7237           90           90           90     102002.7   -729.14755 
  941000       940497    -6634.842    573.33488   -7208.1768    4343.4661   -11551.643    111.24463   -554.69868   -548.42272   -641.61913   -101.55222   -115.99518   -131.73072      46.7237      46.7237      46.7237           90           90           90     102002.7   -581.58018 
  942000       941497   -6651.1675    568.93699   -7220.1045     4304.611   -11524.715    110.39131    -725.2372   -674.43155   -387.44906    288.71336    60.319291   -43.999731      46.7237      46.7237      46.7237           90           90           90     102002.7   -595.70594 
  943000       942497     -6681.77    566.12211   -7247.8921    4302.2371   -11550.129    109.84513   -626.15134   -836.20587   -831.29409   -186.29031   -213.34304   -32.374025      46.7237      46.7237      46.7237           90           90           90     102002.7   -764.55044 
  944000       943497    -6648.218    577.31426   -7225.5323     4292.195   -11517.727    112.01676   -857.58528   -349.91975   -357.88316   -4.5576992    -56.65277    78.785342      46.7237      46.7237      46.7237           90           90           90     102002.7   -521.79606 
  945000       944497   -6636.2812    574.33539   -7210.6165    4326.2442   -11536.861    111.43876   -579.50329   -727.70943   -851.32931    34.912298    91.075829   -140.52786      46.7237      46.7237      46.7237           90           90           90     102002.7   -719.51401 
  946000       945497   -6692.9153    566.11676    -7259.032    4278.8844   -11537.916     109.8441   -483.61301    -512.3706   -423.40405   -139.95501    52.031751     200.5676      46.7237      46.7237      46.7237           90           90           90     102002.7   -473.12922 
  947000       946497   -6648.4666    562.51504   -7210.9817    4335.5814   -11546.563    109.14525   -788.72983   -679.94907   -979.84542    51.576563    153.91226   -51.857468      46.7237      46.7237      46.7237           90           90           90     102002.7   -816.17477 
  948000       947497   -6675.8873    558.46265   -7234.3499    4307.1859   -11541.536    108.35896   -511.80612   -639.40981     -666.094   -224.44088   -78.037705   -15.799478      46.7237      46.7237      46.7237           90           90           90     102002.7   -605.76998 
  949000       948497   -6642.1482    602.39469   -7244.5429    4300.1339   -11544.677    116.88313   -570.09553   -571.16755   -563.54778   -17.837922    65.046375   -121.45043      46.7237      46.7237      46.7237           90           90           90     102002.7   -568.27029 
  950000       949497   -6651.8036    563.99733    -7215.801    4326.5976   -11542.399    109.43286   -556.84003   -607.73852   -910.57097   -199.62526    51.531882   -39.874988      46.7237      46.7237      46.7237           90           90           90     102002.7   -691.71651 
  951000       950497   -6682.5597     568.1612   -7250.7209    4284.7854   -11535.506    110.24078    -885.1722   -643.29075 -0.025835859   -364.75362   -112.88419   -90.553393      46.7237      46.7237      46.7237           90           90           90     102002.7   -509.49626 
  952000       951497   -6649.6444    578.35857    -7228.003    4311.4513   -11539.454    112.21938   -935.73814   -801.44507   -597.61863    73.202423   -115.32218   -124.12598      46.7237      46.7237      46.7237           90           90           90     102002.7   -778.26728 
  953000       952497   -6669.2917    564.71556   -7234.0073    4299.7242   -11533.731    109.57222   -653.32287   -752.53315   -444.95428    78.674478    199.53983    27.682984      46.7237      46.7237      46.7237           90           90           90     102002.7   -616.93676 
  954000       953497   -6626.6905    597.57744   -7224.2679    4327.5229   -11551.791    115.94844   -908.66455   -811.35816   -651.77995   -37.503851    150.96138   -129.78067      46.7237      46.7237      46.7237           90           90           90     102002.7   -790.60089 
  955000       954497   -6662.6755    554.23925   -7216.9147    4313.7218   -11530.637    107.53949   -913.79515   -604.94454   -966.77284   -84.391858   -135.01193   -113.96125      46.7237      46.7237      46.7237           90           90           90     102002.7   -828.50418 
  956000       955497   -6678.0411    538.69315   -7216.7343    4318.0021   -11534.736    104.52307   -514.08083   -573.26222    -713.5265    171.44481   -76.610417   -37.085175      46.7237      46.7237      46.7237           90           90           90     102002.7   -600.28985 
  957000       956497   -6625.2556    588.56481   -7213.8205    4326.5159   -11540.336    114.19971    -593.3659   -1040.5131   -617.06995    309.40862   -22.651039   -4.7851979      46.7237      46.7237      46.7237           90           90           90     102002.7   -750.31631 
  958000       957497   -6660.9464    555.73696   -7216.6833    4330.3103   -11546.994    107.83009    -818.6637   -720.91602   -1253.4826    242.05883    14.712572    27.199628      46.7237      46.7237      46.7237           90           90           90     102002.7   -931.02079 
  959000       958497   -6672.2743    576.38544   -7248.6598    4290.5991   -11539.259    111.83654    -715.0197    -646.8995   -798.55823    50.796636    92.843346    145.03013      46.7237      46.7237      46.7237           90           90           90     102002.7   -720.15914 
  960000       959497   -6658.6383    567.25894   -7225.8973    4322.2746   -11548.172    110.06571   -776.62568   -808.17917   -409.90012    129.50537    17.240963    134.42529      46.7237      46.7237      46.7237           90           90           90     102002.7   -664.90166 
  961000       960497    -6664.135    555.58781   -7219.7228    4309.2656   -11528.988    107.80115   -865.39743   -575.59303   -785.54709   -107.36213    -26.05417    49.565797      46.7237      46.7237      46.7237           90           90           90     102002.7   -742.17918 
  962000       961497   -6624.9089    575.08152   -7199.9904    4330.7919   -11530.782    111.58353   -847.23143   -936.76126    -190.1999   -102.18631    55.891308    152.53017      46.7237      46.7237      46.7237           90           90           90     102002.7    -658.0642 
  963000       962497   -6664.1888    560.04008   -7224.2288    4304.2068   -11528.436    108.66503   -876.83808   -432.00133   -750.79413    9.0736201    96.845802   -74.951691      46.7237      46.7237      46.7237           90           90           90     102002.7   -686.54452 
  964000       963497   -6655.8251    580.47663   -7236.3017     4301.419   -11537.721    112.63035   -1081.5593    -160.3237   -439.05195   -96.878307   -310.19199    3.0017889      46.7237      46.7237      46.7237           90           90           90     102002.7   -560.31165 
  965000       964497   -6673.2058    562.39657   -7235.6024    4293.5216   -11529.124    109.12226   -945.23548   -1035.1471    -755.3031    118.03852    74.434264   -60.800808      46.7237      46.7237      46.7237           90           90           90     102002.7   -911.89523 
  966000       965497   -6656.3055    568.46848    -7224.774     4292.402   -11517.176     110.3004   -558.14063   -984.58813   -699.11311   -134.30906    132.65705   -302.35834      46.7237      46.7237      46.7237           90           90           90     102002.7   -747.28062 
  967000       966497   -6668.2471    565.11298   -7233.3601    4307.7679   -11541.128    109.64933   -926.54158   -823.49188   -824.60476   -70.641234    19.660516    195.33855      46.7237      46.7237      46.7237           90           90           90     102002.7   -858.21274 
  968000       967497   -6666.0107    563.12836   -7229.1391    4304.2479   -11533.387    109.26425   -728.38147    -1145.403   -721.40061   -100.41822   -146.75068   -100.12083      46.7237      46.7237      46.7237           90           90           90     102002.7   -865.06168 
  969000       968497   -6645.2883    575.71563   -7221.0039    4319.5623   -11540.566    111.70657   -963.83221   -570.31005   -674.25037    332.70235   -103.65123   -10.509865      46.7237      46.7237      46.7237           90           90           90     102002.7   -736.13087 
  970000       969497   -6671.4562    556.10326   -7227.5595    4296.1986   -11523.758    107.90117    -520.7865   -512.86129     -1070.69    139.15578    123.91628    -113.0262      46.7237      46.7237      46.7237           90           90           90     102002.7   -701.44595 
  971000       970497   -6658.6496    562.86385   -7221.5134    4318.1921   -11539.706    109.21293   -435.15118   -896.84153   -574.71399   -54.303395    -18.77412    124.85244      46.7237      46.7237      46.7237           90           90           90     102002.7    -635.5689 
  972000       971497   -6671.4371    566.15844   -7237.5955    4296.5536   -11534.149    109.85218   -611.91383      -215.74   -416.00447   -28.767548   -3.0422386    62.504465      46.7237      46.7237      46.7237           90           90           90     102002.7   -414.55277 
  973000       972497   -6670.2665    554.65742   -7224.9239    4325.0857    -11550.01    107.62063    -141.7242    -904.4084   -1031.1267    17.764703   -287.03988    54.949371      46.7237      46.7237      46.7237           90           90           90     102002.7   -692.41976 
  974000       973497   -6642.1633    582.07701   -7224.2403    4305.1051   -11529.345    112.94088   -865.90074   -436.28956    -721.8022   -144.02754    168.35886   -88.976695      46.7237      46.7237      46.7237           90           90           90     102002.7   -674.66417 
  975000       974497   -6663.6537    574.11602   -7237.7698    4313.4442   -11551.214     111.3962   -692.53467   -956.36524   -913.17915   -21.539261    158.73975     180.7469      46.7237      46.7237      46.7237           90           90           90     102002.7   -854.02635 
  976000       975497   -6685.5772    549.04538   -7234.6226    4297.7057   -11532.328    106.53172   -643.44516   -772.34153    -427.9996    268.74682   -50.860644    37.492028      46.7237      46.7237      46.7237           90           90           90     102002.7   -614.59543 
  977000       976497   -6652.6123    576.91746   -7229.5297    4312.0349   -11541.565    111.93976   -784.02223   -981.25074   -530.28077   -15.368238    299.54733    -103.1086      46.7237      46.7237      46.7237           90           90           90     102002.7   -765.18458 
  978000       977497   -6692.4624    560.52208   -7252.9845    4296.9555    -11549.94    108.75856   -607.76216   -238.84703   -264.72209    219.36411    177.25792    202.23258      46.7237      46.7237      46.7237           90           90           90     102002.7   -370.44376 
  979000       978497   -6661.8731    570.57845   -7232.4516    4300.8706   -11533.322     110.7098   -819.91025   -785.21722   -632.87105   -68.610858   -146.49218    158.69001      46.7237      46.7237      46.7237           90           90           90     102002.7   -745.99951 
  980000       979497   -6653.2579    571.87352   -7225.1314    4314.7897   -11539.921    110.96108    -774.2126   -971.01621    -113.1789    54.113559    19.000476   -123.13092      46.7237      46.7237      46.7237           90           90           90     102002.7   -619.46924 
  981000       980497   -6687.3802    561.35422   -7248.7344    4294.4036   -11543.138    108.92002   -580.85878   -487.54405    -605.7939   -37.721736     -178.362   -56.210824      46.7237      46.7237      46.7237           90           90           90     102002.7   -558.06558 
  982000       981497   -6670.4103    557.50456   -7227.9149    4304.9536   -11532.869    108.17306   -179.21472   -1053.6168   -1293.3574   -87.657934   -180.69457    258.80126      46.7237      46.7237      46.7237           90           90           90     102002.7   -842.06296 
  983000       982497    -6659.271    560.81261   -7220.0836    4311.2474   -11531.331    108.81493   -781.63182   -210.06645   -328.42019     78.39568   -134.47535   -2.5810886      46.7237      46.7237      46.7237           90           90           90     102002.7   -440.03949 
  984000       983497   -6692.7673     559.3606   -7252.1279    4285.9982   -11538.126    108.53319   -497.65567   -1399.9061   -684.40125    26.189223   -117.61693    15.584196      46.7237      46.7237      46.7237           90           90           90     102002.7   -860.65434 
  985000       984497   -6663.4892    561.79035   -7225.2795     4314.278   -11539.557    109.00464   -591.39479   -948.15497   -620.77942   -182.21739   -277.11986    261.92197      46.7237      46.7237      46.7237           90           90           90     102002.7   -720.10973 
  986000       985497   -6645.9218    568.21108   -7214.1329    4329.8461   -11543.979    110.25046   -990.50341   -703.47517     -807.279   -165.73259   -89.017465    39.348004      46.7237      46.7237      46.7237           90           90           90     102002.7   -833.75253 
  987000       986497   -6662.7447    563.78944   -7226.5342    4320.3824   -11546.917    109.39252   -1014.6851   -925.33476   -565.67452   -96.666574    201.23185    133.19847      46.7237      46.7237      46.7237           90           90           90     102002.7   -835.23147 
  988000       987497   -6669.6233    562.26676     -7231.89    4310.8468   -11542.737    109.09708    8.3094872   -963.16073   -742.25513    73.370247    -68.81581    91.377922      46.7237      46.7237      46.7237           90           90           90     102002.7   -565.70212 
  989000       988497   -6662.1431    576.39772   -7238.5408    4309.8811   -11548.422    111.83892   -782.13882   -507.70563   -564.42505   -159.97769    68.126438    233.35915      46.7237      46.7237      46.7237           90           90           90     102002.7   -618.08983 
  990000       989497   -6658.7656    562.42299   -7221.1886    4324.5991   -11545.788    109.12739   -882.92076   -1259.8965   -675.16918    132.46818    339.20049   -107.17153      46.7237      46.7237      46.7237           90           90           90     102002.7   -939.32881 
  991000       990497   -6656.6863    587.17852   -7243.8648    4297.2869   -11541.152    113.93073   -532.31496   -719.97316   -1144.6017   -41.874528   -16.591746   -115.74176      46.7237      46.7237      46.7237           90           90           90     102002.7   -798.96329 
  992000       991497   -6684.5468    557.85081   -7242.3976    4290.8412   -11533.239    108.24025   -524.63173   -905.49702   -827.16199   -50.057839   -123.25244   -86.086784      46.7237      46.7237      46.7237           90           90           90     102002.7   -752.43024 
  993000       992497   -6647.2628     580.0841   -7227.3469    4286.0731    -11513.42    112.55419   -1027.6627   -815.73133   -316.43943    73.144083    88.898557   -65.284298      46.7237      46.7237      46.7237           90           90           90     102002.7   -719.94448 
  994000       993497   -6683.6726    543.41273   -7227.0853    4312.5611   -11539.646    105.43881   -573.73116   -937.43695   -750.62322   -178.11803    -47.03276   -39.415542      46.7237      46.7237      46.7237           90           90           90     102002.7   -753.93044 
  995000       994497   -6676.5165    553.61953    -7230.136    4325.0394   -11555.175    107.41925   -705.56945   -630.18832   -610.72386    34.196786    98.856911   -47.202762      46.7237      46.7237      46.7237           90           90           90     102002.7   -648.82721 
  996000       995497   -6666.3099    568.48588   -7234.7958    4299.7942    -11534.59    110.30378   -414.66325   -807.72156   -278.33641   -504.03192    -244.8137   -170.37185      46.7237      46.7237      46.7237           90           90           90     102002.7   -500.24041 
  997000       996497    -6639.111    587.40725   -7226.5183    4318.5376   -11545.056    113.97511    -364.3557   -758.83302   -323.74331    36.923442   -77.126789   -325.98987      46.7237      46.7237      46.7237           90           90           90     102002.7   -482.31068 
  998000       997497   -6643.8037    580.69973   -7224.5035    4303.9201   -11528.424    112.67364   -347.73252   -521.11331   -415.18145   -61.965665   -90.966883   -8.7783506      46.7237      46.7237      46.7237           90           90           90     102002.7   -428.00909 
  999000       998497   -6670.4062    559.39191   -7229.7981    4305.1682   -11534.966    108.53927   -536.65822   -724.99476    -711.4101   -160.20586   -214.06765   -97.219307      46.7237      46.7237      46.7237           90           90           90     102002.7   -657.68769 
 1000000       999497   -6646.8814    571.84047   -7218.7219    4316.7333   -11535.455    110.95467   -82.078595   -918.10253   -699.34806    64.402475    128.31523   -9.6793682      46.7237      46.7237      46.7237           90           90           90     102002.7   -566.50973 
 1000503      1000000   -6643.1899    566.06712    -7209.257    4323.6157   -11532.873    109.83446   -656.46719   -1020.3445   -875.00703   -37.574725    222.85147   -170.39552      46.7237      46.7237      46.7237           90           90           90     102002.7   -850.60626 
Loop time of 627.679 on 24 procs for 500000 steps with 1730 atoms

Performance: 68.825 ns/day, 0.349 hours/ns, 796.586 timesteps/s
99.9% CPU use with 24 MPI tasks x no OpenMP threads

MPI task timing breakdown:
Section |  min time  |  avg time  |  max time  |%varavg| %total
---------------------------------------------------------------
Pair    | 201.31     | 302.9      | 409.94     | 331.4 | 48.26
Bond    | 74.68      | 82.56      | 90.087     |  35.2 | 13.15
Neigh   | 1.4726     | 1.4908     | 1.5026     |   1.0 |  0.24
Comm    | 115.08     | 225.31     | 326.79     | 388.2 | 35.90
Output  | 0.36662    | 0.57816    | 0.58744    |   5.8 |  0.09
Modify  | 11.356     | 11.792     | 12.197     |   6.3 |  1.88
Other   |            | 3.044      |            |       |  0.48

Nlocal:    72.0833 ave 87 max 54 min
Histogram: 2 0 3 4 1 4 2 2 4 2
Nghost:    1976.62 ave 2141 max 1883 min
Histogram: 13 3 0 0 0 0 0 0 1 7
Neighs:    7634.29 ave 11524 max 4804 min
Histogram: 5 2 2 3 4 0 2 3 2 1

Total # of neighbors = 183223
Ave neighs/atom = 105.909
Ave special neighs/atom = 6.65896
Neighbor list builds = 2822
Dangerous builds = 0
Total wall time: 0:19:59
