LAMMPS (30 Mar 2018)
Reading data file ...
  orthogonal box = (0 0 0) to (46.7237 46.7237 46.7237)
  2 by 2 by 4 MPI processor grid
  reading atoms ...
  1742 atoms
  scanning bonds ...
  5 = max bonds/atom
  scanning angles ...
  10 = max angles/atom
  scanning dihedrals ...
  32 = max dihedrals/atom
  scanning impropers ...
  3 = max impropers/atom
  reading bonds ...
  2064 bonds
  reading angles ...
  3696 angles
  reading dihedrals ...
  6240 dihedrals
  reading impropers ...
  1008 impropers
Finding 1-2 1-3 1-4 neighbors ...
  special bond factors lj:   0          0          0         
  special bond factors coul: 0          0          0         
  5 = max # of 1-2 neighbors
  8 = max # of 1-3 neighbors
  20 = max # of 1-4 neighbors
  19 = max # of special neighbors
Finding 1-2 1-3 1-4 neighbors ...
  special bond factors lj:   0          0          1         
  special bond factors coul: 1          1          1         
  5 = max # of 1-2 neighbors
  8 = max # of 1-3 neighbors
  19 = max # of special neighbors
WARNING: Using 'neigh_modify every 1 delay 0 check yes' setting during minimization (../min.cpp:168)
Neighbor list info ...
  update every 1 steps, delay 0 steps, check yes
  max neighbors/atom: 2000, page size: 100000
  master list distance cutoff = 16
  ghost atom cutoff = 16
  binsize = 8, bins = 6 6 6
  3 neighbor lists, perpetual/occasional/extra = 3 0 0
  (1) pair buck6d/coul/gauss/dsf, perpetual, skip from (3)
      attributes: half, newton on
      pair build: skip
      stencil: none
      bin: none
  (2) pair lj/cut, perpetual, skip from (3)
      attributes: half, newton on
      pair build: skip
      stencil: none
      bin: none
  (3) neighbor class addition, perpetual
      attributes: half, newton on
      pair build: half/bin/newton
      stencil: half/bin/3d/newton
      bin: standard
Setting up cg style minimization ...
  Unit style    : real
  Current step  : 0
WARNING: Inconsistent image flags (../domain.cpp:786)
Per MPI rank memory allocation (min/avg/max) = 22.89 | 23.35 | 23.79 Mbytes
Step Temp E_pair E_mol TotEng Press 
       0            0   -11550.843    6482.8914   -5067.9514     6272.395 
     507            0   -11576.689    3735.8521   -7840.8371   -483.33825 
Loop time of 2.71251 on 16 procs for 507 steps with 1742 atoms

99.8% CPU use with 16 MPI tasks x no OpenMP threads

Minimization stats:
  Stopping criterion = max force evaluations
  Energy initial, next-to-last, final = 
        -5067.95140083     -7840.82577746      -7840.8371466
  Force two-norm initial, final = 2576.9 5.09528
  Force max component initial, final = 151.98 0.810267
  Final line search alpha, max atom move = 0.00480341 0.00389204
  Iterations, force evaluations = 507 1001

MPI task timing breakdown:
Section |  min time  |  avg time  |  max time  |%varavg| %total
---------------------------------------------------------------
Pair    | 1.2199     | 1.5762     | 2.0065     |  16.5 | 58.11
Bond    | 0.29428    | 0.36127    | 0.43882    |   6.6 | 13.32
Neigh   | 0.013033   | 0.013078   | 0.013116   |   0.0 |  0.48
Comm    | 0.28307    | 0.72216    | 1.1043     |  23.5 | 26.62
Output  | 0          | 0          | 0          |   0.0 |  0.00
Modify  | 0          | 0          | 0          |   0.0 |  0.00
Other   |            | 0.03979    |            |       |  1.47

Nlocal:    108.875 ave 129 max 95 min
Histogram: 2 3 3 0 2 2 1 1 0 2
Nghost:    2196.5 ave 2210 max 2176 min
Histogram: 2 0 1 1 1 3 0 3 2 3
Neighs:    11437.8 ave 15808 max 7984 min
Histogram: 2 2 2 2 1 2 1 2 0 2

Total # of neighbors = 183004
Ave neighs/atom = 105.054
Ave special neighs/atom = 6.61309
Neighbor list builds = 11
Dangerous builds = 0
Neighbor list info ...
  update every 1 steps, delay 10 steps, check yes
  max neighbors/atom: 2000, page size: 100000
  master list distance cutoff = 16
  ghost atom cutoff = 16
  binsize = 8, bins = 6 6 6
  3 neighbor lists, perpetual/occasional/extra = 3 0 0
  (1) pair buck6d/coul/gauss/dsf, perpetual, skip from (3)
      attributes: half, newton on
      pair build: skip
      stencil: none
      bin: none
  (2) pair lj/cut, perpetual, skip from (3)
      attributes: half, newton on
      pair build: skip
      stencil: none
      bin: none
  (3) neighbor class addition, perpetual
      attributes: half, newton on
      pair build: half/bin/newton
      stencil: half/bin/3d/newton
      bin: standard
Setting up Verlet run ...
  Unit style    : real
  Current step  : 507
  Time step     : 1
WARNING: Inconsistent image flags (../domain.cpp:786)
Per MPI rank memory allocation (min/avg/max) = 22.54 | 22.61 | 22.67 Mbytes
Step Temp PotEng TotEng Press Volume Lx Ly Lz 
     507          130   -7840.8371   -7166.1904   -180.99687     102002.7      46.7237      46.7237      46.7237 
    1000    110.76045   -7223.9739   -6649.1725   -781.13409     102002.7      46.7237      46.7237      46.7237 
    2000    129.21995   -7122.5213   -6451.9227    -726.3766     102002.7      46.7237      46.7237      46.7237 
    3000    130.80301   -7160.1277   -6481.3137    -788.6922     102002.7      46.7237      46.7237      46.7237 
    4000    127.93932   -7154.9056    -6490.953   -484.76566     102002.7      46.7237      46.7237      46.7237 
    5000    130.55142   -7146.0964    -6468.588   -924.95817     102002.7      46.7237      46.7237      46.7237 
    6000     130.7542    -7167.116   -6488.5552    -1054.458     102002.7      46.7237      46.7237      46.7237 
    7000    128.36691   -7155.9063   -6489.7346   -931.33308     102002.7      46.7237      46.7237      46.7237 
    8000     130.9038   -7143.4242   -6464.0871   -1019.9343     102002.7      46.7237      46.7237      46.7237 
    9000    130.53356   -7159.6131   -6482.1974   -930.44759     102002.7      46.7237      46.7237      46.7237 
   10000    130.22701   -7153.4271   -6477.6023   -927.88361     102002.7      46.7237      46.7237      46.7237 
   11000    134.25781   -7150.3925   -6453.6495   -839.61242     102002.7      46.7237      46.7237      46.7237 
   12000    132.91853   -7156.6493   -6466.8566   -855.28926     102002.7      46.7237      46.7237      46.7237 
   13000     129.1562   -7156.3019   -6486.0342   -849.41257     102002.7      46.7237      46.7237      46.7237 
   14000     127.7876   -7157.9246   -6494.7593   -1021.7134     102002.7      46.7237      46.7237      46.7237 
   15000    131.46237   -7158.0384   -6475.8026   -602.97209     102002.7      46.7237      46.7237      46.7237 
   16000     128.3782   -7151.2503     -6485.02   -726.73532     102002.7      46.7237      46.7237      46.7237 
   17000    137.01376   -7152.9709   -6441.9256   -349.02914     102002.7      46.7237      46.7237      46.7237 
   18000    129.04114   -7148.0287   -6478.3581   -603.26716     102002.7      46.7237      46.7237      46.7237 
   19000     126.8839   -7155.8265    -6497.351   -615.54928     102002.7      46.7237      46.7237      46.7237 
   20000    130.12208   -7135.4801   -6460.1999    -825.6452     102002.7      46.7237      46.7237      46.7237 
   21000    131.78761   -7174.2525   -6490.3288   -654.42269     102002.7      46.7237      46.7237      46.7237 
   22000    134.29421   -7133.3064   -6436.3745   -454.97391     102002.7      46.7237      46.7237      46.7237 
   23000    126.58772   -7159.4223   -6502.4839   -944.12132     102002.7      46.7237      46.7237      46.7237 
   24000    132.76004   -7179.3425   -6490.3723   -794.38824     102002.7      46.7237      46.7237      46.7237 
   25000    129.62716   -7174.8793   -6502.1674   -763.39188     102002.7      46.7237      46.7237      46.7237 
   26000    129.94046   -7128.1905   -6453.8528   -785.26225     102002.7      46.7237      46.7237      46.7237 
   27000    131.44754   -7150.4016   -6468.2428   -662.31214     102002.7      46.7237      46.7237      46.7237 
   28000    132.22591   -7149.3345   -6463.1362   -685.31026     102002.7      46.7237      46.7237      46.7237 
   29000    135.89981   -7151.3371   -6446.0728   -765.86853     102002.7      46.7237      46.7237      46.7237 
   30000    131.12244   -7168.6348    -6488.163   -696.25168     102002.7      46.7237      46.7237      46.7237 
   31000    129.34658   -7170.6417    -6499.386   -714.21751     102002.7      46.7237      46.7237      46.7237 
   32000    132.04698    -7165.454   -6480.1843    -879.1636     102002.7      46.7237      46.7237      46.7237 
   33000    128.80147   -7140.9876   -6472.5608   -635.79022     102002.7      46.7237      46.7237      46.7237 
   34000    130.08142   -7155.3098   -6480.2405   -918.96753     102002.7      46.7237      46.7237      46.7237 
   35000    126.48217   -7137.4139   -6481.0232   -720.11155     102002.7      46.7237      46.7237      46.7237 
   36000    127.71974   -7144.6533   -6481.8402   -1079.8354     102002.7      46.7237      46.7237      46.7237 
   37000    127.13167   -7178.2865   -6518.5253   -969.30873     102002.7      46.7237      46.7237      46.7237 
   38000     129.9455   -7147.6271   -6473.2632   -792.24164     102002.7      46.7237      46.7237      46.7237 
   39000    131.94719   -7150.7536   -6466.0017   -443.21163     102002.7      46.7237      46.7237      46.7237 
   40000    128.00929    -7152.404   -6488.0882   -966.10986     102002.7      46.7237      46.7237      46.7237 
   41000     126.5309   -7147.6606   -6491.0171   -555.53383     102002.7      46.7237      46.7237      46.7237 
   42000    131.00493   -7153.1413   -6473.2794   -545.11823     102002.7      46.7237      46.7237      46.7237 
   43000     130.7429   -7148.0834   -6469.5813   -710.09864     102002.7      46.7237      46.7237      46.7237 
   44000    132.59421   -7161.9509   -6473.8413   -587.12269     102002.7      46.7237      46.7237      46.7237 
   45000    131.50697   -7157.5229   -6475.0556   -805.45622     102002.7      46.7237      46.7237      46.7237 
   46000     126.9678   -7173.7331   -6514.8222   -830.03825     102002.7      46.7237      46.7237      46.7237 
   47000    127.17065   -7131.1566    -6471.193   -1055.5826     102002.7      46.7237      46.7237      46.7237 
   48000      132.187   -7145.7833   -6459.7869   -994.44577     102002.7      46.7237      46.7237      46.7237 
   49000    130.60292   -7150.3414   -6472.5658   -738.18024     102002.7      46.7237      46.7237      46.7237 
   50000    132.18082   -7147.3637   -6461.3994   -737.73197     102002.7      46.7237      46.7237      46.7237 
   51000    126.87709   -7151.6087   -6493.1686    -955.7917     102002.7      46.7237      46.7237      46.7237 
   52000    134.18086   -7139.3296   -6442.9859   -760.31513     102002.7      46.7237      46.7237      46.7237 
   53000    127.97867    -7152.407   -6488.2501   -823.45221     102002.7      46.7237      46.7237      46.7237 
   54000    131.10609   -7134.2538    -6453.867   -1043.7437     102002.7      46.7237      46.7237      46.7237 
   55000    127.70447   -7167.3308   -6504.5969    -1007.117     102002.7      46.7237      46.7237      46.7237 
   56000    131.18288   -7167.0943   -6486.3089   -692.58245     102002.7      46.7237      46.7237      46.7237 
   57000    132.66412   -7113.1405   -6424.6681   -611.56019     102002.7      46.7237      46.7237      46.7237 
   58000    130.39221   -7160.8445   -6484.1624   -769.02127     102002.7      46.7237      46.7237      46.7237 
   59000     133.2125   -7140.5597   -6449.2414   -608.48296     102002.7      46.7237      46.7237      46.7237 
   60000    130.51018   -7160.0098   -6482.7154   -690.89047     102002.7      46.7237      46.7237      46.7237 
   61000    127.30613   -7146.7285   -6486.0619   -782.81544     102002.7      46.7237      46.7237      46.7237 
   62000    132.94226    -7160.259   -6470.3431   -678.90012     102002.7      46.7237      46.7237      46.7237 
   63000    128.29548   -7151.9167   -6486.1157   -569.64772     102002.7      46.7237      46.7237      46.7237 
   64000      135.776   -7160.0741   -6455.4523   -545.77878     102002.7      46.7237      46.7237      46.7237 
   65000    128.00382   -7136.4032   -6472.1158   -704.16101     102002.7      46.7237      46.7237      46.7237 
   66000    131.27838   -7163.1974   -6481.9163   -774.96433     102002.7      46.7237      46.7237      46.7237 
   67000    128.60219   -7163.8347    -6496.442   -726.40239     102002.7      46.7237      46.7237      46.7237 
   68000    131.56846   -7150.4603    -6467.674   -688.50799     102002.7      46.7237      46.7237      46.7237 
   69000    130.14838   -7138.0232   -6462.6064   -791.54964     102002.7      46.7237      46.7237      46.7237 
   70000    128.24644   -7142.3996   -6476.8531   -500.34255     102002.7      46.7237      46.7237      46.7237 
   71000    131.89082   -7142.9141   -6458.4548   -939.85841     102002.7      46.7237      46.7237      46.7237 
   72000    128.71934   -7156.4458   -6488.4451   -699.54518     102002.7      46.7237      46.7237      46.7237 
   73000    131.03545   -7149.6795   -6469.6592   -751.26653     102002.7      46.7237      46.7237      46.7237 
   74000    130.89119   -7160.0325   -6480.7609   -689.02547     102002.7      46.7237      46.7237      46.7237 
   75000    128.94871   -7166.1369    -6496.946   -260.89841     102002.7      46.7237      46.7237      46.7237 
   76000    128.81711   -7163.3119   -6494.8038   -592.50985     102002.7      46.7237      46.7237      46.7237 
   77000    129.21554   -7144.4589   -6473.8832   -700.19629     102002.7      46.7237      46.7237      46.7237 
   78000    131.55201   -7153.4613   -6470.7603   -332.79012     102002.7      46.7237      46.7237      46.7237 
   79000     130.7045   -7171.7586   -6493.4558   -603.42636     102002.7      46.7237      46.7237      46.7237 
   80000    127.46962   -7133.5245   -6472.0094   -581.42503     102002.7      46.7237      46.7237      46.7237 
   81000    127.61607   -7159.9204   -6497.6452   -703.39083     102002.7      46.7237      46.7237      46.7237 
   82000    129.45562   -7134.7839   -6462.9622   -937.85845     102002.7      46.7237      46.7237      46.7237 
   83000    128.82046   -7165.0577   -6496.5323   -962.18429     102002.7      46.7237      46.7237      46.7237 
   84000    134.55011   -7147.9171   -6449.6571   -697.52701     102002.7      46.7237      46.7237      46.7237 
   85000    130.88593   -7151.3958   -6472.1514   -900.69406     102002.7      46.7237      46.7237      46.7237 
   86000    126.07948   -7184.9342   -6530.6334   -933.31849     102002.7      46.7237      46.7237      46.7237 
   87000    131.52909   -7151.6202   -6469.0381   -565.24181     102002.7      46.7237      46.7237      46.7237 
   88000    129.00751   -7177.8318   -6508.3357   -996.27736     102002.7      46.7237      46.7237      46.7237 
   89000    131.30851   -7145.2312   -6463.7938   -642.46366     102002.7      46.7237      46.7237      46.7237 
   90000    129.59535   -7147.4043   -6474.8575   -738.04513     102002.7      46.7237      46.7237      46.7237 
   91000    127.45215   -7165.4076   -6503.9831   -630.57329     102002.7      46.7237      46.7237      46.7237 
   92000    128.41523   -7141.1308   -6474.7084   -722.93218     102002.7      46.7237      46.7237      46.7237 
   93000    128.84386   -7150.1433   -6481.4965   -383.98692     102002.7      46.7237      46.7237      46.7237 
   94000    128.58526   -7159.8981   -6492.5933   -614.00142     102002.7      46.7237      46.7237      46.7237 
   95000     133.5713   -7149.0396   -6455.8592    -549.4428     102002.7      46.7237      46.7237      46.7237 
   96000    129.91846   -7164.1372   -6489.9137   -756.15306     102002.7      46.7237      46.7237      46.7237 
   97000    129.39358   -7142.9011   -6471.4014   -398.58133     102002.7      46.7237      46.7237      46.7237 
   98000    126.40862   -7168.4259    -6512.417    -259.2645     102002.7      46.7237      46.7237      46.7237 
   99000    128.70824    -7124.883     -6456.94   -710.23009     102002.7      46.7237      46.7237      46.7237 
  100000    134.24071   -7184.2849   -6487.6306   -675.77315     102002.7      46.7237      46.7237      46.7237 
  101000    131.51923   -7158.8379    -6476.307   -859.53592     102002.7      46.7237      46.7237      46.7237 
  102000    133.70744   -7169.7587   -6475.8718   -1018.2163     102002.7      46.7237      46.7237      46.7237 
  103000    130.61997   -7151.2656   -6473.4014   -816.72528     102002.7      46.7237      46.7237      46.7237 
  104000    127.53028   -7153.7905   -6491.9606   -1082.5287     102002.7      46.7237      46.7237      46.7237 
  105000    125.45847   -7165.0667   -6513.9886    -856.3273     102002.7      46.7237      46.7237      46.7237 
  106000    129.51968   -7137.8078   -6465.6538   -1186.9068     102002.7      46.7237      46.7237      46.7237 
  107000    131.32569   -7152.7148   -6471.1882   -646.05837     102002.7      46.7237      46.7237      46.7237 
  108000     133.9843   -7172.6223   -6477.2987   -680.89516     102002.7      46.7237      46.7237      46.7237 
  109000    133.52791    -7163.719   -6470.7638   -758.90585     102002.7      46.7237      46.7237      46.7237 
  110000    132.83873   -7156.3972   -6467.0186   -733.99185     102002.7      46.7237      46.7237      46.7237 
  111000    131.04557   -7172.9405   -6492.8677   -585.68015     102002.7      46.7237      46.7237      46.7237 
  112000    133.36453   -7149.1276   -6457.0203    -586.2876     102002.7      46.7237      46.7237      46.7237 
  113000    129.36141   -7155.4726   -6484.1399   -805.38493     102002.7      46.7237      46.7237      46.7237 
  114000    129.88125   -7147.0192   -6472.9887   -829.15223     102002.7      46.7237      46.7237      46.7237 
  115000    129.47156   -7152.2298   -6480.3254   -538.13506     102002.7      46.7237      46.7237      46.7237 
  116000     129.7595   -7139.0435   -6465.6449   -583.50577     102002.7      46.7237      46.7237      46.7237 
  117000    130.49493    -7132.517   -6455.3018   -741.04297     102002.7      46.7237      46.7237      46.7237 
  118000    131.30892   -7162.6964   -6481.2569    -880.8647     102002.7      46.7237      46.7237      46.7237 
  119000    130.45088   -7129.3288   -6452.3422   -829.85047     102002.7      46.7237      46.7237      46.7237 
  120000    131.01297   -7144.6992   -6464.7956   -747.27377     102002.7      46.7237      46.7237      46.7237 
  121000    124.68102    -7149.456   -6502.4126   -824.13464     102002.7      46.7237      46.7237      46.7237 
  122000    129.52786   -7123.2101   -6451.0136   -709.43077     102002.7      46.7237      46.7237      46.7237 
  123000    133.39841   -7159.9407   -6467.6576   -688.93391     102002.7      46.7237      46.7237      46.7237 
  124000    123.61233   -7134.6145   -6493.1171   -811.38423     102002.7      46.7237      46.7237      46.7237 
  125000    126.31067   -7138.1098   -6482.6092   -512.78175     102002.7      46.7237      46.7237      46.7237 
  126000     131.3067   -7166.3366   -6484.9087   -422.56243     102002.7      46.7237      46.7237      46.7237 
  127000    131.37717    -7157.287   -6475.4934   -889.21432     102002.7      46.7237      46.7237      46.7237 
  128000    129.79153   -7155.2217   -6481.6568   -375.08484     102002.7      46.7237      46.7237      46.7237 
  129000    128.30315   -7150.9776   -6485.1368   -615.46766     102002.7      46.7237      46.7237      46.7237 
  130000    125.08032   -7148.2755   -6499.1598   -980.27151     102002.7      46.7237      46.7237      46.7237 
  131000    129.36822   -7147.5603   -6476.1923   -637.77564     102002.7      46.7237      46.7237      46.7237 
  132000    125.70363   -7151.4195   -6499.0691   -609.20334     102002.7      46.7237      46.7237      46.7237 
  133000    129.24068    -7156.738   -6486.0318   -729.43203     102002.7      46.7237      46.7237      46.7237 
  134000    132.25852   -7140.6268   -6454.2593   -663.53899     102002.7      46.7237      46.7237      46.7237 
  135000    128.15176   -7146.2961    -6481.241   -473.45559     102002.7      46.7237      46.7237      46.7237 
  136000    130.01994   -7112.0638   -6437.3135   -773.63378     102002.7      46.7237      46.7237      46.7237 
  137000    127.90264    -7157.862   -6494.0997   -993.41247     102002.7      46.7237      46.7237      46.7237 
  138000    131.36568   -7132.1426   -6450.4085   -793.80113     102002.7      46.7237      46.7237      46.7237 
  139000    130.12185   -7158.1475   -6482.8685   -577.45571     102002.7      46.7237      46.7237      46.7237 
  140000    132.46615   -7168.5385   -6481.0935   -591.22136     102002.7      46.7237      46.7237      46.7237 
  141000    129.74615   -7159.0041   -6485.6748   -809.72988     102002.7      46.7237      46.7237      46.7237 
  142000    133.67656   -7142.2079   -6448.4813   -480.43572     102002.7      46.7237      46.7237      46.7237 
  143000    129.18932   -7146.8322   -6476.3925   -927.33619     102002.7      46.7237      46.7237      46.7237 
  144000    131.32348   -7141.0274   -6459.5123   -523.47556     102002.7      46.7237      46.7237      46.7237 
  145000    129.06809   -7153.2503   -6483.4398   -538.79563     102002.7      46.7237      46.7237      46.7237 
  146000    129.33003   -7126.2987   -6455.1288    -653.7939     102002.7      46.7237      46.7237      46.7237 
  147000     128.2703   -7140.4818   -6474.8115   -774.46163     102002.7      46.7237      46.7237      46.7237 
  148000    131.41983   -7160.2826   -6478.2675    -755.7039     102002.7      46.7237      46.7237      46.7237 
  149000    131.72143   -7158.9983   -6475.4181   -720.99563     102002.7      46.7237      46.7237      46.7237 
  150000     129.0774   -7157.8603   -6488.0015   -477.36376     102002.7      46.7237      46.7237      46.7237 
  151000    129.90352   -7153.3722   -6479.2261    -639.0024     102002.7      46.7237      46.7237      46.7237 
  152000    128.84906   -7156.1433   -6487.4695   -882.38931     102002.7      46.7237      46.7237      46.7237 
  153000    128.92051   -7158.4684   -6489.4238   -792.26221     102002.7      46.7237      46.7237      46.7237 
  154000    131.85724   -7166.7241   -6482.4391   -838.86343     102002.7      46.7237      46.7237      46.7237 
  155000    133.26257   -7169.4093   -6477.8312   -561.08634     102002.7      46.7237      46.7237      46.7237 
  156000    129.70803   -7149.6946   -6476.5631   -602.11203     102002.7      46.7237      46.7237      46.7237 
  157000    124.59831   -7169.6853   -6523.0711   -650.60505     102002.7      46.7237      46.7237      46.7237 
  158000    135.10791   -7152.4012   -6451.2465   -574.38074     102002.7      46.7237      46.7237      46.7237 
  159000    129.16846   -7149.2965   -6478.9651   -578.70514     102002.7      46.7237      46.7237      46.7237 
  160000    130.08205   -7129.9459   -6454.8734   -694.63926     102002.7      46.7237      46.7237      46.7237 
  161000    131.86061   -7164.3125     -6480.01   -681.39238     102002.7      46.7237      46.7237      46.7237 
  162000    127.83091   -7122.3298   -6458.9397   -668.54749     102002.7      46.7237      46.7237      46.7237 
  163000    126.75518   -7150.3087   -6492.5012   -744.49514     102002.7      46.7237      46.7237      46.7237 
  164000    130.13537   -7149.0336   -6473.6843   -742.63851     102002.7      46.7237      46.7237      46.7237 
  165000    127.91738   -7147.3733   -6483.5345   -750.07168     102002.7      46.7237      46.7237      46.7237 
  166000    132.16735   -7163.5371   -6477.6427   -760.42757     102002.7      46.7237      46.7237      46.7237 
  167000    131.78577   -7147.6091    -6463.695    -937.7991     102002.7      46.7237      46.7237      46.7237 
  168000     128.1825   -7136.3317   -6471.1171   -640.11612     102002.7      46.7237      46.7237      46.7237 
  169000    124.54859   -7141.2814   -6494.9252   -776.28729     102002.7      46.7237      46.7237      46.7237 
  170000    129.97821   -7162.1925   -6487.6588   -689.84721     102002.7      46.7237      46.7237      46.7237 
  171000     134.4502     -7171.57   -6473.8286   -857.44814     102002.7      46.7237      46.7237      46.7237 
  172000    127.42408   -7169.0209   -6507.7422   -878.05323     102002.7      46.7237      46.7237      46.7237 
  173000    128.76267   -7156.2031   -6487.9776   -887.54098     102002.7      46.7237      46.7237      46.7237 
  174000    132.37557   -7152.5697   -6465.5948   -424.32735     102002.7      46.7237      46.7237      46.7237 
  175000    128.32004   -7156.6054    -6490.677   -752.58931     102002.7      46.7237      46.7237      46.7237 
  176000    132.88089   -7155.6423   -6466.0449   -630.48684     102002.7      46.7237      46.7237      46.7237 
  177000    132.36517   -7133.1874   -6446.2664   -555.89932     102002.7      46.7237      46.7237      46.7237 
  178000    128.44537   -7164.6042   -6498.0253   -928.07365     102002.7      46.7237      46.7237      46.7237 
  179000    129.92369   -7157.0616   -6482.8109   -755.24395     102002.7      46.7237      46.7237      46.7237 
  180000    131.68462   -7169.1928   -6485.8036   -752.29323     102002.7      46.7237      46.7237      46.7237 
  181000    127.99666    -7161.157   -6496.9068   -782.83026     102002.7      46.7237      46.7237      46.7237 
  182000     131.3765   -7159.5137   -6477.7235   -523.44818     102002.7      46.7237      46.7237      46.7237 
  183000    132.11491   -7167.2488   -6481.6265   -568.88513     102002.7      46.7237      46.7237      46.7237 
  184000    129.13799   -7147.4685   -6477.2952   -518.14678     102002.7      46.7237      46.7237      46.7237 
  185000    127.35017   -7145.0513   -6484.1561   -676.26454     102002.7      46.7237      46.7237      46.7237 
  186000    130.00579   -7144.0195   -6469.3427    -549.6814     102002.7      46.7237      46.7237      46.7237 
  187000    130.32961   -7170.9277   -6494.5705   -766.52861     102002.7      46.7237      46.7237      46.7237 
  188000    131.48964   -7162.4263   -6480.0489   -532.97284     102002.7      46.7237      46.7237      46.7237 
  189000    136.25885   -7138.4341   -6431.3065   -751.63007     102002.7      46.7237      46.7237      46.7237 
  190000    129.49248   -7162.6027   -6490.5898   -516.13276     102002.7      46.7237      46.7237      46.7237 
  191000    129.59947   -7138.9395   -6466.3713   -657.60318     102002.7      46.7237      46.7237      46.7237 
  192000    132.72443   -7154.2704    -6465.485   -665.87829     102002.7      46.7237      46.7237      46.7237 
  193000     130.1624   -7151.2313   -6475.7417   -726.55687     102002.7      46.7237      46.7237      46.7237 
  194000    129.40592   -7141.4913   -6469.9276    -1011.788     102002.7      46.7237      46.7237      46.7237 
  195000    125.62708   -7181.3006   -6529.3476   -457.19346     102002.7      46.7237      46.7237      46.7237 
  196000    127.39212    -7142.784   -6481.6711   -752.35112     102002.7      46.7237      46.7237      46.7237 
  197000    129.29642   -7164.9024    -6493.907   -429.19473     102002.7      46.7237      46.7237      46.7237 
  198000     129.8574   -7150.9412   -6477.0345   -1030.5522     102002.7      46.7237      46.7237      46.7237 
  199000    130.51923   -7128.9399   -6451.5986    -455.9227     102002.7      46.7237      46.7237      46.7237 
  200000    129.60259   -7164.6047   -6492.0204   -411.20244     102002.7      46.7237      46.7237      46.7237 
  201000    128.07845   -7135.9304   -6471.2557   -871.06453     102002.7      46.7237      46.7237      46.7237 
  202000    127.83166   -7150.4389    -6487.045   -834.05641     102002.7      46.7237      46.7237      46.7237 
  203000    128.51579   -7158.4578   -6491.5135   -753.50012     102002.7      46.7237      46.7237      46.7237 
  204000    132.28545   -7136.1572   -6449.6499   -282.79447     102002.7      46.7237      46.7237      46.7237 
  205000    128.09959   -7150.4331   -6485.6487    -460.9334     102002.7      46.7237      46.7237      46.7237 
  206000    126.35468   -7129.5181   -6473.7891   -677.56051     102002.7      46.7237      46.7237      46.7237 
  207000    131.13167   -7143.9577   -6463.4381   -523.75385     102002.7      46.7237      46.7237      46.7237 
  208000    128.33897   -7150.0461   -6484.0194   -654.06344     102002.7      46.7237      46.7237      46.7237 
  209000    127.13965    -7166.787   -6506.9844   -854.62048     102002.7      46.7237      46.7237      46.7237 
  210000    129.80805   -7144.8514   -6471.2009   -672.54294     102002.7      46.7237      46.7237      46.7237 
  211000    126.12659   -7150.2936   -6495.7482    -562.7795     102002.7      46.7237      46.7237      46.7237 
  212000    131.01626   -7153.5033   -6473.5827   -830.43938     102002.7      46.7237      46.7237      46.7237 
  213000    130.61994   -7169.5197   -6491.6557   -684.08039     102002.7      46.7237      46.7237      46.7237 
  214000    134.38845   -7165.1495   -6467.7285   -922.58184     102002.7      46.7237      46.7237      46.7237 
  215000    130.83122   -7144.8453   -6465.8848   -938.54797     102002.7      46.7237      46.7237      46.7237 
  216000    125.00405   -7145.7392   -6497.0194   -709.23884     102002.7      46.7237      46.7237      46.7237 
  217000    127.66952   -7133.2602   -6470.7077   -1001.4882     102002.7      46.7237      46.7237      46.7237 
  218000    129.67731   -7160.1082   -6487.1361   -809.70685     102002.7      46.7237      46.7237      46.7237 
  219000     130.1451    -7138.548   -6463.1482   -912.41087     102002.7      46.7237      46.7237      46.7237 
  220000    130.81015   -7140.9433   -6462.0922   -686.89977     102002.7      46.7237      46.7237      46.7237 
  221000    136.47167   -7162.5362   -6454.3041   -690.45278     102002.7      46.7237      46.7237      46.7237 
  222000    130.63906   -7153.0224   -6475.0592   -887.09664     102002.7      46.7237      46.7237      46.7237 
  223000     127.1959   -7176.8255   -6516.7309    -1019.226     102002.7      46.7237      46.7237      46.7237 
  224000    128.14279   -7142.3909   -6477.3823   -753.96308     102002.7      46.7237      46.7237      46.7237 
  225000    129.64169   -7162.7896   -6490.0024   -824.99756     102002.7      46.7237      46.7237      46.7237 
  226000    131.75758   -7152.3967   -6468.6289    -912.4125     102002.7      46.7237      46.7237      46.7237 
  227000    126.51782   -7137.7492   -6481.1736   -697.56765     102002.7      46.7237      46.7237      46.7237 
  228000    128.42868   -7172.6419   -6506.1497   -1018.1509     102002.7      46.7237      46.7237      46.7237 
  229000    129.93572   -7154.4757   -6480.1625   -776.00595     102002.7      46.7237      46.7237      46.7237 
  230000    125.55395   -7178.3169   -6526.7433   -520.41931     102002.7      46.7237      46.7237      46.7237 
  231000    126.62803   -7149.9676     -6492.82   -708.73601     102002.7      46.7237      46.7237      46.7237 
  232000    130.98622   -7129.3451   -6449.5803     -780.575     102002.7      46.7237      46.7237      46.7237 
  233000    130.02681    -7153.389   -6478.6032   -872.51028     102002.7      46.7237      46.7237      46.7237 
  234000    134.45513   -7156.3256   -6458.5585   -890.09786     102002.7      46.7237      46.7237      46.7237 
  235000    130.41152   -7162.9148   -6486.1325   -517.23277     102002.7      46.7237      46.7237      46.7237 
  236000    129.99531   -7132.6965   -6458.0741   -808.72071     102002.7      46.7237      46.7237      46.7237 
  237000    127.85137   -7160.9691   -6497.4729   -838.28202     102002.7      46.7237      46.7237      46.7237 
  238000    131.88016   -7163.8507   -6479.4467   -803.73958     102002.7      46.7237      46.7237      46.7237 
  239000    128.42945   -7149.5395   -6483.0432   -728.78358     102002.7      46.7237      46.7237      46.7237 
  240000    129.79231   -7141.3778   -6467.8089   -741.70149     102002.7      46.7237      46.7237      46.7237 
  241000    129.56639   -7159.4393   -6487.0428   -1011.5608     102002.7      46.7237      46.7237      46.7237 
  242000    132.42011   -7132.0812   -6444.8751   -750.27615     102002.7      46.7237      46.7237      46.7237 
  243000    131.47308   -7176.2655   -6493.9741   -659.93186     102002.7      46.7237      46.7237      46.7237 
  244000    129.93825   -7191.2375   -6516.9113    -643.8012     102002.7      46.7237      46.7237      46.7237 
  245000     129.6094   -7148.4485   -6475.8288   -648.67238     102002.7      46.7237      46.7237      46.7237 
  246000    126.25703   -7147.8502   -6492.6279   -464.50736     102002.7      46.7237      46.7237      46.7237 
  247000    131.66391   -7153.5225   -6470.2407    -1009.904     102002.7      46.7237      46.7237      46.7237 
  248000    134.62652   -7149.3424   -6450.6859   -537.32284     102002.7      46.7237      46.7237      46.7237 
  249000    130.06832   -7172.5793    -6497.578   -733.52208     102002.7      46.7237      46.7237      46.7237 
  250000     129.9594   -7145.1702   -6470.7342   -403.05027     102002.7      46.7237      46.7237      46.7237 
  251000    128.64513   -7173.3173   -6505.7018   -740.91452     102002.7      46.7237      46.7237      46.7237 
  252000    131.30877   -7135.7938   -6454.3551   -696.45904     102002.7      46.7237      46.7237      46.7237 
  253000    135.47157   -7178.7159   -6475.6739   -717.84244     102002.7      46.7237      46.7237      46.7237 
  254000    131.42053   -7150.2874   -6468.2687   -737.67118     102002.7      46.7237      46.7237      46.7237 
  255000    129.30592   -7137.7233   -6466.6785   -472.77253     102002.7      46.7237      46.7237      46.7237 
  256000    131.06379   -7159.6385   -6479.4711   -1163.0928     102002.7      46.7237      46.7237      46.7237 
  257000    126.53355   -7155.0402    -6498.383   -848.97642     102002.7      46.7237      46.7237      46.7237 
  258000    132.69861   -7135.8934    -6447.242   -818.90269     102002.7      46.7237      46.7237      46.7237 
  259000    130.79618   -7167.2248   -6488.4462   -934.31385     102002.7      46.7237      46.7237      46.7237 
  260000    131.23788   -7159.2087   -6478.1379   -849.11974     102002.7      46.7237      46.7237      46.7237 
  261000    126.33842   -7168.5913   -6512.9467     -877.252     102002.7      46.7237      46.7237      46.7237 
  262000    133.37813   -7148.4329    -6456.255   -942.45954     102002.7      46.7237      46.7237      46.7237 
  263000    129.28085   -7161.3573   -6490.4426    -744.4972     102002.7      46.7237      46.7237      46.7237 
  264000    127.82345   -7130.2832   -6466.9318   -902.60762     102002.7      46.7237      46.7237      46.7237 
  265000    131.60588   -7174.8585   -6491.8779   -1117.0671     102002.7      46.7237      46.7237      46.7237 
  266000    127.08053   -7165.7796   -6506.2837   -984.46571     102002.7      46.7237      46.7237      46.7237 
  267000    132.56927   -7153.8593   -6465.8791   -969.19747     102002.7      46.7237      46.7237      46.7237 
  268000    130.77028   -7136.6113   -6457.9672   -786.86389     102002.7      46.7237      46.7237      46.7237 
  269000    130.31976    -7163.353   -6487.0469   -960.99654     102002.7      46.7237      46.7237      46.7237 
  270000    134.44748   -7151.5011   -6453.7738   -1201.3006     102002.7      46.7237      46.7237      46.7237 
  271000    128.23197    -7162.827   -6497.3556   -823.55344     102002.7      46.7237      46.7237      46.7237 
  272000    129.52316   -7152.0107   -6479.8386   -800.66394     102002.7      46.7237      46.7237      46.7237 
  273000    129.53612   -7132.8811   -6460.6417   -1005.2103     102002.7      46.7237      46.7237      46.7237 
  274000    131.00912   -7182.9275   -6503.0439   -756.90179     102002.7      46.7237      46.7237      46.7237 
  275000    131.22794   -7165.8421   -6484.8229   -689.62368     102002.7      46.7237      46.7237      46.7237 
  276000    131.07771   -7129.0314   -6448.7918   -839.03429     102002.7      46.7237      46.7237      46.7237 
  277000     129.6477      -7137.8   -6464.9816   -781.47721     102002.7      46.7237      46.7237      46.7237 
  278000    128.33927   -7162.7385   -6496.7102   -872.52791     102002.7      46.7237      46.7237      46.7237 
  279000     128.6047   -7158.3704   -6490.9647   -507.61224     102002.7      46.7237      46.7237      46.7237 
  280000     128.8636   -7173.4698   -6504.7205   -760.59386     102002.7      46.7237      46.7237      46.7237 
  281000    129.29674   -7134.5863   -6463.5892   -483.80451     102002.7      46.7237      46.7237      46.7237 
  282000     127.9447   -7173.3009   -6509.3203   -500.91038     102002.7      46.7237      46.7237      46.7237 
  283000    128.80579   -7143.8976   -6475.4483   -585.97272     102002.7      46.7237      46.7237      46.7237 
  284000    133.50979   -7133.6186   -6440.7574   -915.78053     102002.7      46.7237      46.7237      46.7237 
  285000    129.79621   -7167.0154   -6493.4262   -667.16162     102002.7      46.7237      46.7237      46.7237 
  286000    129.25938   -7150.4898   -6479.6865   -731.67789     102002.7      46.7237      46.7237      46.7237 
  287000    133.91782   -7150.3597   -6455.3811   -1169.0989     102002.7      46.7237      46.7237      46.7237 
  288000    128.96876    -7143.311    -6474.016   -801.28975     102002.7      46.7237      46.7237      46.7237 
  289000    129.19205   -7159.8892   -6489.4354   -796.72091     102002.7      46.7237      46.7237      46.7237 
  290000    129.19298   -7143.2709   -6472.8123   -582.02619     102002.7      46.7237      46.7237      46.7237 
  291000    128.47378   -7173.1088   -6506.3825    -586.8642     102002.7      46.7237      46.7237      46.7237 
  292000    130.68055   -7139.1649   -6460.9864   -919.83018     102002.7      46.7237      46.7237      46.7237 
  293000    129.85376   -7139.4263   -6465.5385    -498.7969     102002.7      46.7237      46.7237      46.7237 
  294000    131.81173   -7167.7899    -6483.741   -1083.0255     102002.7      46.7237      46.7237      46.7237 
  295000     134.8642   -7144.1881   -6444.2981   -784.29573     102002.7      46.7237      46.7237      46.7237 
  296000    128.82151   -7145.7672   -6477.2364   -906.43786     102002.7      46.7237      46.7237      46.7237 
  297000    130.27341    -7155.511   -6479.4454   -986.10983     102002.7      46.7237      46.7237      46.7237 
  298000    130.22857   -7154.1578   -6478.3249    -709.8313     102002.7      46.7237      46.7237      46.7237 
  299000    128.81228   -7160.7176   -6492.2347    -840.8091     102002.7      46.7237      46.7237      46.7237 
  300000    129.85334   -7152.8256     -6478.94   -622.02779     102002.7      46.7237      46.7237      46.7237 
  301000    128.98417   -7133.5138   -6464.1388   -779.62009     102002.7      46.7237      46.7237      46.7237 
  302000    127.11626   -7153.8045   -6494.1232   -788.00175     102002.7      46.7237      46.7237      46.7237 
  303000    133.84656   -7134.3542   -6439.7454   -799.99131     102002.7      46.7237      46.7237      46.7237 
  304000     129.7858   -7160.8311    -6487.296   -847.29699     102002.7      46.7237      46.7237      46.7237 
  305000    128.65583   -7149.6162   -6481.9451    -1069.579     102002.7      46.7237      46.7237      46.7237 
  306000    131.57235   -7177.4152   -6494.6086   -760.48539     102002.7      46.7237      46.7237      46.7237 
  307000    129.32858   -7143.8498   -6472.6875   -830.11229     102002.7      46.7237      46.7237      46.7237 
  308000    131.71567   -7165.5758   -6482.0255   -847.35617     102002.7      46.7237      46.7237      46.7237 
  309000    129.96861   -7152.0589    -6477.575   -438.33201     102002.7      46.7237      46.7237      46.7237 
  310000    125.03075   -7122.1749   -6473.3165     -828.989     102002.7      46.7237      46.7237      46.7237 
  311000    130.89684   -7163.8886   -6484.5877    -524.1526     102002.7      46.7237      46.7237      46.7237 
  312000     131.0244   -7124.2129   -6444.2499   -587.90627     102002.7      46.7237      46.7237      46.7237 
  313000     132.5916   -7151.1718   -6463.0757   -429.59001     102002.7      46.7237      46.7237      46.7237 
  314000    127.26774   -7152.5375   -6492.0701   -594.63184     102002.7      46.7237      46.7237      46.7237 
  315000    131.12527   -7155.8556   -6475.3692    -625.5716     102002.7      46.7237      46.7237      46.7237 
  316000    128.47734   -7149.6785   -6482.9337    -767.1203     102002.7      46.7237      46.7237      46.7237 
  317000    132.28297   -7155.6522   -6469.1577   -883.70855     102002.7      46.7237      46.7237      46.7237 
  318000    129.23835   -7133.6023   -6462.9082   -867.12416     102002.7      46.7237      46.7237      46.7237 
  319000    126.29184   -7164.2564   -6508.8535   -634.29552     102002.7      46.7237      46.7237      46.7237 
  320000    127.98864    -7153.724   -6489.5154    -662.2941     102002.7      46.7237      46.7237      46.7237 
  321000    137.10421   -7122.0858   -6410.5711   -726.98254     102002.7      46.7237      46.7237      46.7237 
  322000     128.0785   -7142.4603   -6477.7853   -709.64002     102002.7      46.7237      46.7237      46.7237 
  323000    131.27975   -7143.3241   -6462.0359   -922.50293     102002.7      46.7237      46.7237      46.7237 
  324000    128.14592   -7145.9182   -6480.8934   -1036.1212     102002.7      46.7237      46.7237      46.7237 
  325000    129.00137   -7167.9537   -6498.4895   -1035.4395     102002.7      46.7237      46.7237      46.7237 
  326000    131.11143   -7143.1242   -6462.7096   -600.96922     102002.7      46.7237      46.7237      46.7237 
  327000    128.54785   -7147.4733   -6480.3626   -838.33364     102002.7      46.7237      46.7237      46.7237 
  328000    130.72773   -7168.4873   -6490.0639   -500.02216     102002.7      46.7237      46.7237      46.7237 
  329000     127.6735   -7124.7602   -6462.1871   -1016.2713     102002.7      46.7237      46.7237      46.7237 
  330000    134.56828   -7137.3143   -6438.9601   -788.58296     102002.7      46.7237      46.7237      46.7237 
  331000    130.96519   -7170.0871   -6490.4314   -899.65021     102002.7      46.7237      46.7237      46.7237 
  332000     130.6021    -7139.706   -6461.9346   -672.97015     102002.7      46.7237      46.7237      46.7237 
  333000    133.36999    -7144.909   -6452.7734   -768.53751     102002.7      46.7237      46.7237      46.7237 
  334000    129.15833   -7156.0629   -6485.7841   -993.57513     102002.7      46.7237      46.7237      46.7237 
  335000    127.58857   -7134.1365   -6472.0042    -661.4185     102002.7      46.7237      46.7237      46.7237 
  336000    129.95117    -7158.374   -6483.9806   -977.49661     102002.7      46.7237      46.7237      46.7237 
  337000     132.8108   -7147.6094   -6458.3758   -598.82253     102002.7      46.7237      46.7237      46.7237 
  338000    133.56932   -7163.2287   -6470.0587   -792.50288     102002.7      46.7237      46.7237      46.7237 
  339000    129.49056   -7144.6545   -6472.6516   -914.49078     102002.7      46.7237      46.7237      46.7237 
  340000    131.87184   -7147.5056   -6463.1448   -564.64597     102002.7      46.7237      46.7237      46.7237 
  341000    128.19469   -7161.7399    -6496.462   -785.22486     102002.7      46.7237      46.7237      46.7237 
  342000    127.59312   -7155.4306   -6493.2746   -245.59853     102002.7      46.7237      46.7237      46.7237 
  343000    132.67611    -7155.371   -6466.8363   -1045.4807     102002.7      46.7237      46.7237      46.7237 
  344000    127.94956   -7171.0184   -6507.0126   -516.93382     102002.7      46.7237      46.7237      46.7237 
  345000    132.92114   -7176.3554   -6486.5491   -579.13769     102002.7      46.7237      46.7237      46.7237 
  346000    134.40899   -7124.1433   -6426.6158   -832.24081     102002.7      46.7237      46.7237      46.7237 
  347000    125.62828   -7150.8683    -6498.909   -624.63204     102002.7      46.7237      46.7237      46.7237 
  348000    128.09333   -7141.4921   -6476.7402   -1058.0683     102002.7      46.7237      46.7237      46.7237 
  349000    131.65551   -7159.3264   -6476.0882   -832.65942     102002.7      46.7237      46.7237      46.7237 
  350000    125.84115   -7170.8143   -6517.7503   -898.68658     102002.7      46.7237      46.7237      46.7237 
  351000    126.12144   -7150.2996   -6495.7811   -647.41522     102002.7      46.7237      46.7237      46.7237 
  352000    129.71206   -7149.7341   -6476.5816   -954.66683     102002.7      46.7237      46.7237      46.7237 
  353000    125.37279   -7159.0599   -6508.4265   -699.39887     102002.7      46.7237      46.7237      46.7237 
  354000    130.05489   -7136.1725   -6461.2409   -712.48237     102002.7      46.7237      46.7237      46.7237 
  355000    130.93456   -7138.4211   -6458.9244   -917.81522     102002.7      46.7237      46.7237      46.7237 
  356000      128.397   -7166.6893   -6500.3615   -1085.3162     102002.7      46.7237      46.7237      46.7237 
  357000    129.19031   -7163.6053   -6493.1606   -1010.5716     102002.7      46.7237      46.7237      46.7237 
  358000    129.16448   -7152.7046   -6482.3939    -1051.981     102002.7      46.7237      46.7237      46.7237 
  359000    133.07616   -7149.7765   -6459.1657   -893.68523     102002.7      46.7237      46.7237      46.7237 
  360000    126.14615   -7192.0476   -6537.4007   -838.01096     102002.7      46.7237      46.7237      46.7237 
  361000    130.10508   -7140.8873   -6465.6952   -806.07397     102002.7      46.7237      46.7237      46.7237 
  362000    127.72824   -7139.9084   -6477.0512   -986.34249     102002.7      46.7237      46.7237      46.7237 
  363000    127.91807   -7163.8753   -6500.0329   -688.99379     102002.7      46.7237      46.7237      46.7237 
  364000    127.30417   -7146.2144   -6485.5579    -438.9476     102002.7      46.7237      46.7237      46.7237 
  365000    134.53066    -7142.673   -6444.5139   -631.84276     102002.7      46.7237      46.7237      46.7237 
  366000    128.20228    -7148.957   -6483.6397   -879.49196     102002.7      46.7237      46.7237      46.7237 
  367000    130.51824   -7151.5084   -6474.1722   -585.13993     102002.7      46.7237      46.7237      46.7237 
  368000    133.47978    -7150.248   -6457.5426   -535.34565     102002.7      46.7237      46.7237      46.7237 
  369000    127.85028   -7147.5358   -6484.0452    -622.9185     102002.7      46.7237      46.7237      46.7237 
  370000    129.85936   -7138.1825   -6464.2656   -405.83786     102002.7      46.7237      46.7237      46.7237 
  371000    129.36525   -7187.6437   -6516.2911   -235.25169     102002.7      46.7237      46.7237      46.7237 
  372000    134.42491   -7168.3521   -6470.7419   -787.22997     102002.7      46.7237      46.7237      46.7237 
  373000    131.52775   -7166.3669   -6483.7918   -648.78298     102002.7      46.7237      46.7237      46.7237 
  374000    134.61386   -7159.8223   -6461.2316   -899.35501     102002.7      46.7237      46.7237      46.7237 
  375000    132.56978   -7159.0158   -6471.0329   -869.29322     102002.7      46.7237      46.7237      46.7237 
  376000    129.63926   -7131.7431   -6458.9684   -700.24752     102002.7      46.7237      46.7237      46.7237 
  377000    130.34609   -7171.0273   -6494.5845    -763.6747     102002.7      46.7237      46.7237      46.7237 
  378000    128.29332   -7152.1655   -6486.3758    -649.0446     102002.7      46.7237      46.7237      46.7237 
  379000    135.22933   -7151.4137   -6449.6289   -650.12088     102002.7      46.7237      46.7237      46.7237 
  380000    126.66266   -7132.7265   -6475.3992   -685.15577     102002.7      46.7237      46.7237      46.7237 
  381000    128.99571   -7142.7839   -6473.3491    -888.6208     102002.7      46.7237      46.7237      46.7237 
  382000     124.8508    -7158.934   -6511.0095   -749.67314     102002.7      46.7237      46.7237      46.7237 
  383000    131.40932    -7153.008   -6471.0475   -1070.0583     102002.7      46.7237      46.7237      46.7237 
  384000    133.22586    -7151.406   -6460.0184   -785.19393     102002.7      46.7237      46.7237      46.7237 
  385000    129.18572   -7153.2284   -6482.8074   -725.06684     102002.7      46.7237      46.7237      46.7237 
  386000    133.89759   -7158.6587    -6463.785   -543.47956     102002.7      46.7237      46.7237      46.7237 
  387000    131.82529   -7190.4658   -6506.3466   -730.97643     102002.7      46.7237      46.7237      46.7237 
  388000    127.79481   -7142.0045   -6478.8018   -728.69056     102002.7      46.7237      46.7237      46.7237 
  389000    129.32224   -7161.9847   -6490.8553   -576.04712     102002.7      46.7237      46.7237      46.7237 
  390000    134.98067   -7162.3987   -6461.9044   -1071.5738     102002.7      46.7237      46.7237      46.7237 
  391000    130.93616   -7149.6742   -6470.1692    -662.1457     102002.7      46.7237      46.7237      46.7237 
  392000    127.97044   -7156.7826   -6492.6684   -1000.1506     102002.7      46.7237      46.7237      46.7237 
  393000     131.5761   -7160.2077   -6477.3817   -1015.0525     102002.7      46.7237      46.7237      46.7237 
  394000    125.83661   -7155.0496   -6502.0092   -770.19249     102002.7      46.7237      46.7237      46.7237 
  395000    131.23933   -7146.6937   -6465.6154   -770.55312     102002.7      46.7237      46.7237      46.7237 
  396000    133.29662   -7154.4942   -6462.7393   -528.42706     102002.7      46.7237      46.7237      46.7237 
  397000    130.62618   -7183.3707   -6505.4743   -784.11668     102002.7      46.7237      46.7237      46.7237 
  398000    131.23643   -7152.6265   -6471.5632   -784.98401     102002.7      46.7237      46.7237      46.7237 
  399000    130.54578   -7170.7135   -6493.2343   -910.34401     102002.7      46.7237      46.7237      46.7237 
  400000    129.03219   -7121.3096   -6451.6853   -597.63912     102002.7      46.7237      46.7237      46.7237 
  401000     130.0365   -7170.4608   -6495.6246    -606.0389     102002.7      46.7237      46.7237      46.7237 
  402000    131.08393   -7146.4793   -6466.2075   -764.49258     102002.7      46.7237      46.7237      46.7237 
  403000    133.27319   -7160.7618   -6469.1285   -626.82541     102002.7      46.7237      46.7237      46.7237 
  404000    127.01073   -7149.6547    -6490.521   -859.33632     102002.7      46.7237      46.7237      46.7237 
  405000    131.58036    -7130.185   -6447.3368   -737.88125     102002.7      46.7237      46.7237      46.7237 
  406000    128.77997   -7147.9031   -6479.5878   -811.18251     102002.7      46.7237      46.7237      46.7237 
  407000    129.92209   -7156.1487   -6481.9063   -716.61259     102002.7      46.7237      46.7237      46.7237 
  408000    127.52116   -7150.1528   -6488.3702   -755.74585     102002.7      46.7237      46.7237      46.7237 
  409000    131.33728   -7179.5572   -6497.9705   -614.50791     102002.7      46.7237      46.7237      46.7237 
  410000    130.06022   -7125.6954   -6450.7362   -784.69284     102002.7      46.7237      46.7237      46.7237 
  411000    128.14313   -7165.0751   -6500.0647   -804.95974     102002.7      46.7237      46.7237      46.7237 
  412000    124.97961   -7133.4809   -6484.8879   -715.18929     102002.7      46.7237      46.7237      46.7237 
  413000    128.06703    -7164.809   -6500.1936   -952.99312     102002.7      46.7237      46.7237      46.7237 
  414000    132.70461   -7162.4423   -6473.7597   -1008.3717     102002.7      46.7237      46.7237      46.7237 
  415000     130.1779   -7167.9286   -6492.3586   -937.73668     102002.7      46.7237      46.7237      46.7237 
  416000    130.84839   -7146.6659   -6467.6163   -871.40335     102002.7      46.7237      46.7237      46.7237 
  417000     129.0013   -7153.7796   -6484.3157   -521.86966     102002.7      46.7237      46.7237      46.7237 
  418000    131.70462   -7128.7603   -6445.2673   -866.31486     102002.7      46.7237      46.7237      46.7237 
  419000    130.39475   -7137.3577   -6460.6623   -619.44912     102002.7      46.7237      46.7237      46.7237 
  420000    130.56652   -7163.6257   -6486.0389   -1012.2643     102002.7      46.7237      46.7237      46.7237 
  421000    127.24317   -7131.1162   -6470.7763   -503.70167     102002.7      46.7237      46.7237      46.7237 
  422000    131.73741   -7164.6097   -6480.9465   -765.37168     102002.7      46.7237      46.7237      46.7237 
  423000    130.44365    -7143.793   -6466.8439   -404.90887     102002.7      46.7237      46.7237      46.7237 
  424000    127.35488   -7177.0925   -6516.1728   -794.04507     102002.7      46.7237      46.7237      46.7237 
  425000    130.90507   -7140.3728   -6461.0291    -850.1815     102002.7      46.7237      46.7237      46.7237 
  426000    128.51152   -7155.1591    -6488.237   -502.17433     102002.7      46.7237      46.7237      46.7237 
  427000    129.44599   -7171.4596    -6499.688   -785.89737     102002.7      46.7237      46.7237      46.7237 
  428000    130.82535   -7155.9462   -6477.0162   -801.53956     102002.7      46.7237      46.7237      46.7237 
  429000    131.95644   -7143.2035   -6458.4037   -442.71541     102002.7      46.7237      46.7237      46.7237 
  430000    131.40121   -7162.5539   -6480.6354    -882.2749     102002.7      46.7237      46.7237      46.7237 
  431000    130.70615   -7169.3448   -6491.0334     -538.221     102002.7      46.7237      46.7237      46.7237 
  432000     129.2124   -7170.3368   -6499.7774   -983.64224     102002.7      46.7237      46.7237      46.7237 
  433000    130.08051    -7142.415   -6467.3504   -788.18413     102002.7      46.7237      46.7237      46.7237 
  434000    130.62551   -7178.5215   -6500.6286   -682.77047     102002.7      46.7237      46.7237      46.7237 
  435000    128.90231   -7156.5109   -6487.5607   -548.32964     102002.7      46.7237      46.7237      46.7237 
  436000    128.46647   -7147.8377   -6481.1493     -456.261     102002.7      46.7237      46.7237      46.7237 
  437000     133.7201   -7135.1897   -6441.2372   -726.65273     102002.7      46.7237      46.7237      46.7237 
  438000    126.43008   -7156.5601   -6500.4398   -908.62445     102002.7      46.7237      46.7237      46.7237 
  439000    136.76538   -7172.0724   -6462.3161   -610.35652     102002.7      46.7237      46.7237      46.7237 
  440000    132.34989   -7177.2487    -6490.407   -658.15607     102002.7      46.7237      46.7237      46.7237 
  441000    130.72256    -7161.053   -6482.6565   -948.95646     102002.7      46.7237      46.7237      46.7237 
  442000     130.1439   -7135.0662   -6459.6727    -437.7507     102002.7      46.7237      46.7237      46.7237 
  443000     128.1503   -7164.9708   -6499.9232   -861.64189     102002.7      46.7237      46.7237      46.7237 
  444000    131.13882   -7170.7108    -6490.154   -921.52502     102002.7      46.7237      46.7237      46.7237 
  445000    133.82892    -7141.912   -6447.3947   -743.37029     102002.7      46.7237      46.7237      46.7237 
  446000    125.85654   -7143.7391   -6490.5953   -631.45876     102002.7      46.7237      46.7237      46.7237 
  447000    131.46542   -7149.8882   -6467.6366   -868.69366     102002.7      46.7237      46.7237      46.7237 
  448000    130.18903   -7169.0181   -6493.3904   -606.10471     102002.7      46.7237      46.7237      46.7237 
  449000    125.95806   -7138.8385   -6485.1678   -978.35779     102002.7      46.7237      46.7237      46.7237 
  450000    134.22588   -7131.7584   -6435.1811   -874.10316     102002.7      46.7237      46.7237      46.7237 
  451000    128.33096   -7152.5734   -6486.5883   -623.49205     102002.7      46.7237      46.7237      46.7237 
  452000    129.78263   -7182.4012   -6508.8825   -582.31432     102002.7      46.7237      46.7237      46.7237 
  453000    128.96623   -7150.8539    -6481.572   -438.79873     102002.7      46.7237      46.7237      46.7237 
  454000    132.37463   -7144.6318   -6457.6617   -658.35549     102002.7      46.7237      46.7237      46.7237 
  455000    129.99194   -7168.7862   -6494.1813   -546.69329     102002.7      46.7237      46.7237      46.7237 
  456000    133.21311   -7141.8022   -6450.4807    -844.6667     102002.7      46.7237      46.7237      46.7237 
  457000    129.71722   -7167.9748   -6494.7955   -521.90792     102002.7      46.7237      46.7237      46.7237 
  458000    132.01575   -7177.8644   -6492.7567   -728.26599     102002.7      46.7237      46.7237      46.7237 
  459000    132.95338   -7157.3481   -6467.3746   -540.75528     102002.7      46.7237      46.7237      46.7237 
  460000    128.73491   -7148.7252   -6480.6437   -691.50388     102002.7      46.7237      46.7237      46.7237 
  461000    128.17932   -7155.9324   -6490.7343   -839.28454     102002.7      46.7237      46.7237      46.7237 
  462000    131.28503   -7144.0866   -6462.7711   -756.84632     102002.7      46.7237      46.7237      46.7237 
  463000    132.51229   -7149.6575    -6461.973     -888.425     102002.7      46.7237      46.7237      46.7237 
  464000    126.61735   -7155.6301    -6498.538   -728.96649     102002.7      46.7237      46.7237      46.7237 
  465000    133.24211   -7162.0141   -6470.5422   -909.13769     102002.7      46.7237      46.7237      46.7237 
  466000    130.25689   -7173.2615   -6497.2816   -833.72259     102002.7      46.7237      46.7237      46.7237 
  467000    130.00096   -7153.0855   -6478.4338   -686.48667     102002.7      46.7237      46.7237      46.7237 
  468000     134.9855    -7179.407   -6478.8875   -855.85493     102002.7      46.7237      46.7237      46.7237 
  469000    127.65847   -7150.2546   -6487.7594   -609.48036     102002.7      46.7237      46.7237      46.7237 
  470000    129.71577   -7133.9132   -6460.7415   -824.35746     102002.7      46.7237      46.7237      46.7237 
  471000    125.33142   -7156.8068    -6506.388    -419.7634     102002.7      46.7237      46.7237      46.7237 
  472000     127.2662   -7153.9487   -6493.4893   -535.44069     102002.7      46.7237      46.7237      46.7237 
  473000    132.71579    -7131.182   -6442.4415   -531.86208     102002.7      46.7237      46.7237      46.7237 
  474000    132.87167   -7152.2193   -6462.6697   -273.11743     102002.7      46.7237      46.7237      46.7237 
  475000    128.08673   -7118.4461   -6453.7284   -834.77902     102002.7      46.7237      46.7237      46.7237 
  476000    130.34794   -7159.5461   -6483.0937   -701.63324     102002.7      46.7237      46.7237      46.7237 
  477000     133.8415   -7158.7031   -6464.1205   -744.38235     102002.7      46.7237      46.7237      46.7237 
  478000    129.66531    -7155.835   -6482.9252   -892.83133     102002.7      46.7237      46.7237      46.7237 
  479000    133.18018   -7144.1213   -6452.9707   -722.54025     102002.7      46.7237      46.7237      46.7237 
  480000    131.37234   -7144.9358   -6463.1672   -948.53436     102002.7      46.7237      46.7237      46.7237 
  481000    127.95636   -7160.2839   -6496.2428   -708.73213     102002.7      46.7237      46.7237      46.7237 
  482000     130.9304   -7154.8151   -6475.3399   -708.61172     102002.7      46.7237      46.7237      46.7237 
  483000      134.317   -7135.4519   -6438.4017   -544.90792     102002.7      46.7237      46.7237      46.7237 
  484000    131.18677   -7166.5835   -6485.7779   -816.89247     102002.7      46.7237      46.7237      46.7237 
  485000    131.50989   -7168.7228   -6486.2403   -874.90679     102002.7      46.7237      46.7237      46.7237 
  486000    123.48742   -7154.8757   -6514.0265   -725.74961     102002.7      46.7237      46.7237      46.7237 
  487000    129.12962   -7145.2097   -6475.0799   -963.74623     102002.7      46.7237      46.7237      46.7237 
  488000    131.73271   -7139.4604   -6455.8215   -816.77498     102002.7      46.7237      46.7237      46.7237 
  489000    129.36011   -7175.4525   -6504.1265   -753.76136     102002.7      46.7237      46.7237      46.7237 
  490000     132.9674   -7118.2528   -6428.2064   -593.92156     102002.7      46.7237      46.7237      46.7237 
  491000    129.31176   -7152.4141    -6481.339   -826.99999     102002.7      46.7237      46.7237      46.7237 
  492000    129.00308   -7170.0626   -6500.5894   -682.85815     102002.7      46.7237      46.7237      46.7237 
  493000    130.18314   -7143.8724   -6468.2752   -615.14004     102002.7      46.7237      46.7237      46.7237 
  494000    130.90143   -7156.5866   -6477.2618   -1153.9614     102002.7      46.7237      46.7237      46.7237 
  495000    126.32658   -7182.0971   -6526.5139   -820.36331     102002.7      46.7237      46.7237      46.7237 
  496000    132.84358   -7152.3316   -6462.9278   -1080.4099     102002.7      46.7237      46.7237      46.7237 
  497000    129.42682   -7156.0978   -6484.4257    -750.0802     102002.7      46.7237      46.7237      46.7237 
  498000    136.93922   -7137.3717   -6426.7132    -802.6527     102002.7      46.7237      46.7237      46.7237 
  499000    124.43466   -7134.8918   -6489.1269   -772.41964     102002.7      46.7237      46.7237      46.7237 
  500000    134.19049   -7159.9184   -6463.5248   -1021.9974     102002.7      46.7237      46.7237      46.7237 
  500507    131.54139   -7149.9592   -6467.3133    -816.1587     102002.7      46.7237      46.7237      46.7237 
Loop time of 1272.51 on 16 procs for 500000 steps with 1742 atoms

Performance: 33.949 ns/day, 0.707 hours/ns, 392.925 timesteps/s
99.8% CPU use with 16 MPI tasks x no OpenMP threads

MPI task timing breakdown:
Section |  min time  |  avg time  |  max time  |%varavg| %total
---------------------------------------------------------------
Pair    | 515.7      | 687.89     | 839.39     | 417.3 | 54.06
Bond    | 166.89     | 174        | 179.59     |  31.0 | 13.67
Neigh   | 4.541      | 4.5632     | 4.5752     |   0.5 |  0.36
Comm    | 244.46     | 392.92     | 559.82     | 539.7 | 30.88
Output  | 0.02027    | 0.020797   | 0.02372    |   0.5 |  0.00
Modify  | 7.1707     | 7.907      | 8.5696     |  17.6 |  0.62
Other   |            | 5.209      |            |       |  0.41

Nlocal:    108.875 ave 128 max 90 min
Histogram: 3 0 1 2 2 1 1 3 2 1
Nghost:    2212.12 ave 2233 max 2192 min
Histogram: 2 2 1 2 2 2 0 0 3 2
Neighs:    11452.6 ave 15905 max 7774 min
Histogram: 1 3 2 1 4 1 0 1 0 3

Total # of neighbors = 183242
Ave neighs/atom = 105.191
Ave special neighs/atom = 6.61309
Neighbor list builds = 3913
Dangerous builds = 0
Neighbor list info ...
  update every 1 steps, delay 10 steps, check yes
  max neighbors/atom: 2000, page size: 100000
  master list distance cutoff = 16
  ghost atom cutoff = 16
  binsize = 8, bins = 6 6 6
  3 neighbor lists, perpetual/occasional/extra = 3 0 0
  (1) pair buck6d/coul/gauss/dsf, perpetual, skip from (3)
      attributes: half, newton on
      pair build: skip
      stencil: none
      bin: none
  (2) pair lj/cut, perpetual, skip from (3)
      attributes: half, newton on
      pair build: skip
      stencil: none
      bin: none
  (3) neighbor class addition, perpetual
      attributes: half, newton on
      pair build: half/bin/newton
      stencil: half/bin/3d/newton
      bin: standard
Setting up Verlet run ...
  Unit style    : real
  Current step  : 500507
  Time step     : 1
WARNING: Inconsistent image flags (../domain.cpp:786)
Per MPI rank memory allocation (min/avg/max) = 23.33 | 23.33 | 23.34 Mbytes
Step Time TotEng KinEng PotEng E_mol E_pair Temp Pxx Pyy Pzz Pxy Pxz Pyz Cella Cellb Cellc CellAlpha CellBeta CellGamma Volume Press 
  500507       500000   -6467.3133    682.64592   -7149.9592    4404.0549   -11554.014    131.54139   -711.22551   -950.70479   -786.54582    2.3589421    44.913237    56.757092      46.7237      46.7237      46.7237           90           90           90     102002.7    -816.1587 
  501000       500493   -6479.3769    659.23577   -7138.6127    4434.9155   -11573.528    127.03041   -822.44976   -712.15298   -532.84108    58.526516     84.20682    -103.4241      46.7237      46.7237      46.7237           90           90           90     102002.7   -689.14794 
  502000       501493   -6514.0266    662.16009   -7176.1867    4394.1525   -11570.339     127.5939   -723.46361   -581.29661   -830.38721    49.709055    95.049738     147.3344      46.7237      46.7237      46.7237           90           90           90     102002.7   -711.71581 
  503000       502493    -6494.924    677.85989   -7172.7838    4399.5526   -11572.336    130.61915   -1017.8019   -1257.5106   -752.94756    36.296895    216.91641   -115.17703      46.7237      46.7237      46.7237           90           90           90     102002.7     -1009.42 
  504000       503493   -6485.3497     678.9906   -7164.3403    4385.8734   -11550.214    130.83703   -1009.3265   -740.86704   -730.27583   -2.3430531    2.7438774    22.615817      46.7237      46.7237      46.7237           90           90           90     102002.7   -826.82314 
  505000       504493   -6450.1614    700.83343   -7150.9948    4422.9411   -11573.936      135.046   -577.93667   -762.59382   -1378.0444    154.54631    5.2550142    65.103246      46.7237      46.7237      46.7237           90           90           90     102002.7   -906.19162 
  506000       505493   -6504.3118    677.22133   -7181.5332    4382.3784   -11563.912    130.49611   -1454.1246    -758.4027   -1116.8588   -218.86414    160.57958    49.661734      46.7237      46.7237      46.7237           90           90           90     102002.7   -1109.7954 
  507000       506493   -6451.0427    679.84643   -7130.8892    4448.0634   -11578.953    131.00195    -1799.182   -1007.9098   -1356.3272    36.629105   -68.224187   -7.0733854      46.7237      46.7237      46.7237           90           90           90     102002.7   -1387.8064 
  508000       507493   -6490.0179    676.70765   -7166.7255    4405.3442    -11572.07    130.39712    -838.5778    -608.4535   -761.70486    57.603235   0.12224359   -179.99088      46.7237      46.7237      46.7237           90           90           90     102002.7   -736.24539 
  509000       508493    -6491.295    654.23133   -7145.5264    4429.7365   -11575.263    126.06609   -938.08938   -625.61875   -564.78787    50.561725   -56.130421    140.97388      46.7237      46.7237      46.7237           90           90           90     102002.7   -709.49867 
  510000       509493   -6452.8507    698.36291   -7151.2136     4409.887   -11561.101    134.56995   -833.88181   -1072.6998   -1016.8731    12.596245    -153.0586     78.37385      46.7237      46.7237      46.7237           90           90           90     102002.7   -974.48489 
  511000       510493   -6462.3003    696.35441   -7158.6547    4400.9355    -11559.59    134.18292   -582.91662   -526.16049   -584.86062     190.1074    149.73087    6.9610164      46.7237      46.7237      46.7237           90           90           90     102002.7   -564.64591 
  512000       511493   -6477.8033    660.12136   -7137.9246    4425.9771   -11563.902    127.20105   -420.00536   -784.35329   -1626.1046   -156.27427    40.016659    308.37999      46.7237      46.7237      46.7237           90           90           90     102002.7   -943.48774 
  513000       512493   -6468.9396    681.60916   -7150.5488    4428.4325   -11578.981    131.34161   -3.2010617   -1066.2621   -1142.7665    92.925065   -323.70488    150.20367      46.7237      46.7237      46.7237           90           90           90     102002.7   -737.40989 
  514000       513493   -6478.4499    669.55585   -7148.0057    4426.7616   -11574.767    129.01902   -643.24691    -407.7808   -1020.7944    63.034725    90.472751   -33.547465      46.7237      46.7237      46.7237           90           90           90     102002.7   -690.60737 
  515000       514493   -6515.8231    664.28175   -7180.1049    4366.6489   -11546.754    128.00273   -693.83231   -468.84253    -520.0217   -24.052135    26.391707    167.72851      46.7237      46.7237      46.7237           90           90           90     102002.7   -560.89885 
  516000       515493   -6471.0793    666.00845   -7137.0878    4433.6031   -11570.691    128.33546   -184.27051   -454.92116    -703.0853    -263.4011   -180.58248   -118.07783      46.7237      46.7237      46.7237           90           90           90     102002.7   -447.42566 
  517000       516493   -6493.8032    652.51604   -7146.3192    4411.7191   -11558.038    125.73556   -503.27154   -23.909508    -608.2586   -65.911121   -254.75077   -128.71198      46.7237      46.7237      46.7237           90           90           90     102002.7   -378.47988 
  518000       517493   -6431.6377    694.12063   -7125.7583    4450.3493   -11576.108    133.75249   -762.95369   -430.44518   -25.318853    72.364788    238.53048   -30.085058      46.7237      46.7237      46.7237           90           90           90     102002.7   -406.23924 
  519000       518493   -6485.9379    670.29923   -7156.2371    4400.2602   -11556.497    129.16226   -537.23821   -593.14294    -879.7692   -123.41371   -142.23047      202.327      46.7237      46.7237      46.7237           90           90           90     102002.7   -670.05011 
  520000       519493   -6451.7636    685.01498   -7136.7786    4435.6417    -11572.42    131.99789   -207.18481   -739.04892   -951.85051   -9.2378262    228.75205    180.32176      46.7237      46.7237      46.7237           90           90           90     102002.7   -632.69475 
  521000       520493   -6462.9557    688.73534   -7151.6911    4414.4845   -11566.176    132.71478   -817.46216    -709.1535    -1095.692    -66.48247    107.00675   -74.738705      46.7237      46.7237      46.7237           90           90           90     102002.7   -874.10254 
  522000       521493   -6482.8234    655.18106   -7138.0045    4421.1801   -11559.185    126.24909   -265.25672   -877.07472    -534.1048   -174.78859   -205.89873   -102.67103      46.7237      46.7237      46.7237           90           90           90     102002.7   -558.81208 
  523000       522493    -6462.953    676.70397   -7139.6569    4424.7139   -11564.371    130.39641   -779.22712   -513.42125   -699.90938    184.98591    -14.80309    124.39748      46.7237      46.7237      46.7237           90           90           90     102002.7   -664.18592 
  524000       523493   -6497.0979    668.97892   -7166.0769    4401.2619   -11567.339    128.90785    -1408.126   -1241.8347   -852.33797    121.23376    173.29986   -41.322348      46.7237      46.7237      46.7237           90           90           90     102002.7   -1167.4329 
  525000       524493   -6487.9492    666.58421   -7154.5335    4423.4089   -11577.942     128.4464   -1106.3801   -802.44842   -1005.9255    73.449659    21.856351   -69.439227      46.7237      46.7237      46.7237           90           90           90     102002.7   -971.58468 
  526000       525493   -6448.7201    697.29457   -7146.0147    4419.9805   -11565.995    134.36409   -1094.6294   -672.59768   -587.67704    283.33749   -159.07068   -64.806565      46.7237      46.7237      46.7237           90           90           90     102002.7   -784.96805 
  527000       526493   -6476.8818    683.49708   -7160.3789    4391.3073   -11551.686     131.7054   -878.25798   -1007.5985   -634.52586    114.90847    225.85559   -44.903572      46.7237      46.7237      46.7237           90           90           90     102002.7   -840.12745 
  528000       527493   -6498.0854     671.5479   -7169.6333    4391.1874   -11560.821    129.40287   -368.80361   -692.21937   -613.40047   -72.724471   -80.960254    211.89332      46.7237      46.7237      46.7237           90           90           90     102002.7   -558.14115 
  529000       528493   -6467.2098    670.47255   -7137.6824    4411.6219   -11549.304    129.19566   -312.91104    -900.0694   -1064.1352    64.518055   -120.93101   -196.54552      46.7237      46.7237      46.7237           90           90           90     102002.7   -759.03854 
  530000       529493   -6453.0718    706.26485   -7159.3366    4406.1265   -11565.463     136.0926   -943.85013   -596.15784   -1106.2488    97.276607   -119.84218    23.073327      46.7237      46.7237      46.7237           90           90           90     102002.7   -882.08559 
  531000       530493    -6497.082     673.4203   -7170.5023    4403.9109   -11574.413    129.76367   -1083.8823   -1149.5433   -903.89688   -149.84674    147.63187   -232.42223      46.7237      46.7237      46.7237           90           90           90     102002.7   -1045.7742 
  532000       531493   -6513.5454    661.07353   -7174.6189    4396.4685   -11571.087    127.38453   -792.21722   -882.54518   -1327.8904   -86.210796   -86.568405   -17.270322      46.7237      46.7237      46.7237           90           90           90     102002.7   -1000.8843 
  533000       532493   -6460.2509    681.30996   -7141.5609    4406.5782   -11548.139    131.28396   -1055.9123   -1081.8983   -650.77752   -104.27749   -8.6599427   -66.015416      46.7237      46.7237      46.7237           90           90           90     102002.7    -929.5294 
  534000       533493   -6505.7515    647.19705   -7152.9485    4428.9828   -11581.931    124.71062   -994.82953   -697.78948   -1359.1377   -174.63074    64.906703   -108.61879      46.7237      46.7237      46.7237           90           90           90     102002.7   -1017.2522 
  535000       534493   -6483.6029    686.91295   -7170.5158    4397.0578   -11567.574    132.36362   -587.32107   -374.80763   -572.67599   -76.133769     -4.14792     291.2332      46.7237      46.7237      46.7237           90           90           90     102002.7   -511.60156 
  536000       535493   -6504.2579    662.88324   -7167.1411    4393.3394   -11560.481    127.73325   -743.62609   -755.68937   -541.37825    56.007877    144.38218   -235.81884      46.7237      46.7237      46.7237           90           90           90     102002.7   -680.23124 
  537000       536493   -6517.6377    659.03862   -7176.6763    4394.4813   -11571.158    126.99242   -360.65194   -744.41112   -375.24323    144.69091    220.16363    79.139905      46.7237      46.7237      46.7237           90           90           90     102002.7   -493.43543 
  538000       537493   -6472.1313    690.18049   -7162.3118    4373.8556   -11536.167    132.99325   -522.56544   -990.04801   -430.17879     104.9184    49.250211   -97.127701      46.7237      46.7237      46.7237           90           90           90     102002.7   -647.59741 
  539000       538493    -6486.522    667.32868   -7153.8507    4391.0212   -11544.872    128.58986   -746.47735   -296.29423   -1048.4898   -73.984692    22.635459    69.536906      46.7237      46.7237      46.7237           90           90           90     102002.7   -697.08714 
  540000       539493   -6515.9699    657.16065   -7173.1306    4392.3265   -11565.457    126.63055    -266.9366    -738.1771   -1447.2671   -220.39943    32.304337    -299.5671      46.7237      46.7237      46.7237           90           90           90     102002.7   -817.46027 
  541000       540493   -6469.2287    670.32813   -7139.5568    4416.8113   -11556.368    129.16783   -936.12528   -991.65031   -734.82951   -4.9727863    243.66137   -146.84032      46.7237      46.7237      46.7237           90           90           90     102002.7   -887.53503 
  542000       541493   -6520.1759     656.4726   -7176.6485    4395.1548   -11571.803    126.49796   -887.59814   -1204.7131   -914.82035   -62.990243    32.636958    109.22104      46.7237      46.7237      46.7237           90           90           90     102002.7   -1002.3772 
  543000       542493   -6466.5374    678.36804   -7144.9054    4423.8325   -11568.738    130.71707   -1090.7418   -782.29819   -743.05418    309.90134    70.925682   -26.568231      46.7237      46.7237      46.7237           90           90           90     102002.7   -872.03138 
  544000       543493   -6446.8649    691.92563   -7138.7905    4433.4913   -11572.282    133.32953   -782.73156   -599.58803   -294.25923    221.97429    137.37424   -149.30338      46.7237      46.7237      46.7237           90           90           90     102002.7   -558.85961 
  545000       544493   -6499.1548    664.38309   -7163.5378    4406.4881   -11570.026    128.02226   -818.55125    -735.7908   -881.06389    114.64704    194.16623    74.948206      46.7237      46.7237      46.7237           90           90           90     102002.7   -811.80198 
  546000       545493   -6501.1173    668.95752   -7170.0748    4396.2255     -11566.3    128.90373   -959.51694   -647.62761   -728.48034   -75.977253    100.28801    251.41235      46.7237      46.7237      46.7237           90           90           90     102002.7   -778.54163 
  547000       546493   -6475.9385    679.69666   -7155.6352      4394.82   -11550.455    130.97309   -1184.0483    -844.4942   -589.67967   -140.32306    76.660974    169.24006      46.7237      46.7237      46.7237           90           90           90     102002.7   -872.74072 
  548000       547493   -6469.0476    691.62081   -7160.6684    4402.3981   -11563.066    133.27079   -359.05345   -259.74059   -820.31908    -18.12715   -21.369127    8.0446123      46.7237      46.7237      46.7237           90           90           90     102002.7   -479.70437 
  549000       548493   -6500.5971    673.69847   -7174.2956    4383.9583   -11558.254    129.81727   -810.72586   -933.04875   -1033.1709    212.10541   -103.87559    86.673656      46.7237      46.7237      46.7237           90           90           90     102002.7   -925.64849 
  550000       549493    -6459.209    688.24695   -7147.4559    4415.8187   -11563.275    132.62067   -980.86468   -313.96435    -484.7984    -49.75004    99.911184   -5.1827618      46.7237      46.7237      46.7237           90           90           90     102002.7   -593.20914 
  551000       550493   -6436.1215    698.65375   -7134.7753    4433.5277   -11568.303    134.62599   -617.02756   -603.70785   -1275.4752    257.40136    171.32417   -182.44516      46.7237      46.7237      46.7237           90           90           90     102002.7   -832.07021 
  552000       551493    -6483.933     667.0242   -7150.9572    4407.5883   -11558.546    128.53119   -662.59223   -1272.0556   -645.52705     230.2781   -24.587361    143.79468      46.7237      46.7237      46.7237           90           90           90     102002.7    -860.0583 
  553000       552493   -6507.6726     658.5555   -7166.2281    4404.2072   -11570.435    126.89932   -765.04529   -485.41419   -1023.5404    -7.560678   -20.544857    139.14834      46.7237      46.7237      46.7237           90           90           90     102002.7   -757.99995 
  554000       553493   -6468.0318     683.4462    -7151.478    4411.0856   -11562.564     131.6956   -843.16272   -685.02235   -835.60814   -26.318728    337.18013   -37.497978      46.7237      46.7237      46.7237           90           90           90     102002.7   -787.93107 
  555000       554493   -6479.8222    676.86486   -7156.6871    4420.8656   -11577.553    130.42742   -1000.1466   -795.61998   -631.54707    93.753263     189.2151    74.333467      46.7237      46.7237      46.7237           90           90           90     102002.7   -809.10454 
[...]
  936000       935493   -6497.3732    677.28453   -7174.6577    4387.5354   -11562.193    130.50828   -474.69999   -415.06768   -634.68494   -195.05143    4.5871913   -225.16086      46.7237      46.7237      46.7237           90           90           90     102002.7   -508.15087 
  937000       936493    -6467.964     668.1552   -7136.1192    4418.9348   -11555.054    128.74912   -658.13942   -627.54079   -665.74866   -127.71043   -64.842663    48.435552      46.7237      46.7237      46.7237           90           90           90     102002.7   -650.47629 
  938000       937493   -6479.1311    681.76536   -7160.8965    4392.7806   -11553.677    131.37171   -609.12417    -331.1858   -439.45916   -74.901388    5.8659203    26.260172      46.7237      46.7237      46.7237           90           90           90     102002.7   -459.92305 
  939000       938493   -6441.4138    704.63763   -7146.0514    4414.9503   -11561.002    135.77905    -606.8725   -831.71356   -228.79248   -166.52261    8.4297334    330.61902      46.7237      46.7237      46.7237           90           90           90     102002.7   -555.79285 
  940000       939493   -6460.7678    675.78609   -7136.5539    4426.2693   -11562.823    130.21955   -486.35358   -747.98963   -714.83333    -313.1942   -81.302308   -236.75351      46.7237      46.7237      46.7237           90           90           90     102002.7   -649.72551 
  941000       940493   -6491.3018    667.77757   -7159.0794    4424.1302    -11583.21    128.67636   -1098.3362   -562.93216   -803.55848    96.670777   -78.232248   -29.685728      46.7237      46.7237      46.7237           90           90           90     102002.7   -821.60896 
  942000       941493   -6434.5435    681.33355    -7115.877    4457.2572   -11573.134     131.2885    -116.6985    -859.4726   -943.16639   -89.007036    159.59663    280.22693      46.7237      46.7237      46.7237           90           90           90     102002.7   -639.77916 
  943000       942493   -6482.7508    660.95392   -7143.7047    4423.6288   -11567.334    127.36148    -971.4568   -603.96648    -963.5124    50.117567   -2.4699955    98.104512      46.7237      46.7237      46.7237           90           90           90     102002.7   -846.31189 
  944000       943493   -6491.7696    655.62224   -7147.3918     4415.362   -11562.754     126.3341   -706.40387   -715.35457   -617.56019   -155.36775   -205.60382    -134.0742      46.7237      46.7237      46.7237           90           90           90     102002.7   -679.77288 
  945000       944493   -6464.5261    677.35576   -7141.8819    4429.5596   -11571.441    130.52201   -160.87596    -198.9945   -875.03344     37.09205   -37.783913   -196.84283      46.7237      46.7237      46.7237           90           90           90     102002.7   -411.63463 
  946000       945493   -6455.2363    697.99656   -7153.2329    4390.2315   -11543.464    134.49936   -514.10174    -654.5347   -871.10955   -199.80601     51.79677    1.2987241      46.7237      46.7237      46.7237           90           90           90     102002.7   -679.91533 
  947000       946493   -6479.2871    661.14681   -7140.4339    4434.6919   -11575.126    127.39865   -742.14727   -584.74559   -713.53681    130.00656   -127.59697    144.83892      46.7237      46.7237      46.7237           90           90           90     102002.7   -680.14322 
  948000       947493    -6495.881    683.48348   -7179.3645    4375.7549   -11555.119    131.70278   -317.56778   -1065.7916   -402.34777   -171.12295   -147.25164   -151.23427      46.7237      46.7237      46.7237           90           90           90     102002.7   -595.23571 
  949000       948493   -6460.1851    688.48806   -7148.6731    4421.5569    -11570.23    132.66713    -943.4904   -796.03938   -1527.9289   -26.452003    142.34071    42.555567      46.7237      46.7237      46.7237           90           90           90     102002.7   -1089.1529 
  950000       949493   -6479.8262    677.06141   -7156.8876    4409.2816   -11566.169    130.46529   -576.91099   -543.24318    -234.0806   -247.13519    137.30468    267.78802      46.7237      46.7237      46.7237           90           90           90     102002.7   -451.41159 
  951000       950493   -6515.2086    661.43162   -7176.6403    4395.8493    -11572.49    127.45353   -431.46667   -513.91351   -1280.8567   -272.90405    150.57748   -159.28063      46.7237      46.7237      46.7237           90           90           90     102002.7   -742.07896 
  952000       951493    -6487.578    682.93164   -7170.5097    4383.7059   -11554.216    131.59645   -298.08199   -534.62861   -455.04301    97.367645   -39.594542   -25.372936      46.7237      46.7237      46.7237           90           90           90     102002.7    -429.2512 
  953000       952493   -6484.6714    660.18329   -7144.8547    4422.7404   -11567.595    127.21299   -1324.7961   -631.30167   -684.96658    20.733292    76.250264   -164.21621      46.7237      46.7237      46.7237           90           90           90     102002.7   -880.35478 
  954000       953493   -6446.4034    685.87258   -7132.2759    4437.0005   -11569.276    132.16315   -1113.6651   -1139.0459   -874.15245   -65.500857   -92.171424   -187.21598      46.7237      46.7237      46.7237           90           90           90     102002.7   -1042.2878 
  955000       954493   -6485.2572    691.44845   -7176.7057    4394.3059   -11571.012    133.23758   -675.64541   -867.74972   -575.89368   -271.97787      128.882   -14.341119      46.7237      46.7237      46.7237           90           90           90     102002.7    -706.4296 
  956000       955493   -6486.5239    658.74271   -7145.2666    4413.6619   -11558.929     126.9354   -1470.1977   -1376.8703   -451.04411    104.43413    39.855883   -219.37598      46.7237      46.7237      46.7237           90           90           90     102002.7   -1099.3707 
  957000       956493   -6454.0822    674.60132   -7128.6835    4442.4887   -11571.172    129.99125   -774.84955   -767.18293   -1184.8525     208.6398   -257.70993   -138.13359      46.7237      46.7237      46.7237           90           90           90     102002.7   -908.96166 
  958000       957493   -6495.9151     655.3198   -7151.2349    4418.1633   -11569.398    126.27583   -693.85918   -1245.3552   -986.11787    158.02161    -129.0983   -55.328489      46.7237      46.7237      46.7237           90           90           90     102002.7   -975.11076 
  959000       958493   -6471.6868    693.06854   -7164.7553    4406.2697   -11571.025    133.54976   -881.00586   -619.49019   -694.31341   -99.288001    139.10826   -64.411127      46.7237      46.7237      46.7237           90           90           90     102002.7   -731.60315 
  960000       959493   -6478.9642    682.37783    -7161.342    4402.4379    -11563.78    131.48973   -1001.6189   -832.64735   -1234.9709    180.12109   -102.44768   -28.225368      46.7237      46.7237      46.7237           90           90           90     102002.7    -1023.079 
  961000       960493   -6453.2529    690.13258   -7143.3855    4431.4686   -11574.854    132.98402   -1149.6032   -722.04405 -0.013890305    40.615841   -47.855591   -167.02657      46.7237      46.7237      46.7237           90           90           90     102002.7   -623.88705 
  962000       961493   -6487.6178    660.00688   -7147.6247     4428.611   -11576.236      127.179   -991.44549   -966.88672   -888.09719    87.078224   -35.509123    -324.8823      46.7237      46.7237      46.7237           90           90           90     102002.7    -948.8098 
  963000       962493   -6471.7674     697.7987   -7169.5661    4408.6628   -11578.229    134.46123   -797.49912   -964.15661   -653.61708    60.048589   -36.474675    12.702835      46.7237      46.7237      46.7237           90           90           90     102002.7   -805.09094 
  964000       963493   -6440.2998      705.016   -7145.3158    4423.9263   -11569.242    135.85196    -696.8824   -899.60232    -1181.015    401.61706    28.375364    57.117668      46.7237      46.7237      46.7237           90           90           90     102002.7   -925.83324 
  965000       964493   -6499.8315    666.52279   -7166.3543    4412.8269   -11579.181    128.43457   -542.25571   -580.35533    -343.6975   -49.938881    1.6176346    127.48941      46.7237      46.7237      46.7237           90           90           90     102002.7   -488.76951 
  966000       965493   -6480.0891    665.78836   -7145.8774    4412.1828    -11558.06    128.29305   -860.21349   -740.91958   -712.18272   -42.240476    32.605843   -18.641474      46.7237      46.7237      46.7237           90           90           90     102002.7   -771.10526 
  967000       966493   -6444.1435    683.26224   -7127.4057    4455.3723   -11582.778    131.66015    -1125.329   -1056.1288   -712.68504    31.373051     26.89951   -3.2998806      46.7237      46.7237      46.7237           90           90           90     102002.7    -964.7143 
  968000       967493   -6480.9874    673.03673   -7154.0241    4417.2523   -11571.276    129.68976   -713.78699   -946.05618   -1169.0905    162.13333    36.435755   -72.126613      46.7237      46.7237      46.7237           90           90           90     102002.7   -942.97789 
  969000       968493    -6498.101    665.31793   -7163.4189     4412.726   -11576.145     128.2024   -930.94283   -213.47062   -475.63147   -122.37469    47.865511    199.51212      46.7237      46.7237      46.7237           90           90           90     102002.7   -540.01497 
  970000       969493   -6465.4747     678.2136   -7143.6883    4431.9112     -11575.6    130.68731   -617.26823   -343.62948   -904.16979     72.95164    11.941687    222.52555      46.7237      46.7237      46.7237           90           90           90     102002.7   -621.68917 
  971000       970493   -6501.2531    664.91221   -7166.1653    4402.8207   -11568.986    128.12422   -1034.5538     -1215.98   -628.95307   -99.535667    205.53326    274.46118      46.7237      46.7237      46.7237           90           90           90     102002.7   -959.82894 
  972000       971493   -6466.9672     685.4578    -7152.425     4424.776   -11577.201    132.08322   -921.36249   -288.67002   -858.10737    118.89916    239.40166    160.53407      46.7237      46.7237      46.7237           90           90           90     102002.7   -689.37996 
  973000       972493   -6502.1934    653.71907   -7155.9125     4386.218   -11542.131    125.96737   -652.70837   -653.44812   -494.63973    62.302943    26.359466    103.04723      46.7237      46.7237      46.7237           90           90           90     102002.7   -600.26541 
  974000       973493   -6460.3804    684.66674   -7145.0472    4428.0853   -11573.133    131.93079   -437.74173   -1675.8099   -852.16951   -222.22299   -20.013524    63.962611      46.7237      46.7237      46.7237           90           90           90     102002.7   -988.57372 
  975000       974493   -6479.4673     683.2189   -7162.6862    4410.8472   -11573.533     131.6518   -1063.2245   -402.76061   -1256.9478    223.46118    300.78923   -19.015242      46.7237      46.7237      46.7237           90           90           90     102002.7   -907.64431 
  976000       975493   -6467.0644    691.96768   -7159.0321    4403.2809   -11562.313    133.33763   -860.98956   -479.15744   -993.58718    177.52775    12.717023    103.56166      46.7237      46.7237      46.7237           90           90           90     102002.7   -777.91139 
  977000       976493   -6463.2937    688.95577   -7152.2494    4420.9159   -11573.165    132.75726   -750.42971   -748.81964   -824.61763    56.721296    237.16359   -22.175465      46.7237      46.7237      46.7237           90           90           90     102002.7   -774.62233 
  978000       977493   -6504.0885    654.11338   -7158.2019     4399.268    -11557.47    126.04336   -593.44898   -417.46006   -792.28447   -204.27157    -310.5381      22.9161      46.7237      46.7237      46.7237           90           90           90     102002.7    -601.0645 
  979000       978493   -6469.4617    684.35352   -7153.8153    4431.1308   -11584.946    131.87043   -922.09702    -691.0696   -612.00343   -108.22311   -30.181575   -96.167882      46.7237      46.7237      46.7237           90           90           90     102002.7   -741.72335 
  980000       979493   -6477.4895    685.68805   -7163.1776    4392.6855   -11555.863    132.12759   -844.45924   -675.30025   -724.90588   -143.71418    54.529842   -152.66819      46.7237      46.7237      46.7237           90           90           90     102002.7   -748.22179 
  981000       980493   -6498.8269    687.45623   -7186.2831    4363.9856   -11550.269     132.4683   -399.75628   -896.33177   -729.44367    66.919692   -95.461329    105.10425      46.7237      46.7237      46.7237           90           90           90     102002.7   -675.17724 
  982000       981493   -6472.2213    662.82456   -7135.0459    4450.7696   -11585.815    127.72194   -888.00057   -1163.1913   -733.34127     19.42216   -4.5261433   -92.584861      46.7237      46.7237      46.7237           90           90           90     102002.7   -928.17771 
  983000       982493   -6439.3835    690.83394   -7130.2174    4435.6812   -11565.899    133.11917   -759.09492   -703.29568   -1122.9952    223.09562    69.885871   -88.216251      46.7237      46.7237      46.7237           90           90           90     102002.7   -861.79526 
  984000       983493   -6487.8692    658.53652   -7146.4057    4430.7412   -11577.147    126.89567   -840.37354   -873.49347   -1520.2896   -129.96756    210.92455    205.19597      46.7237      46.7237      46.7237           90           90           90     102002.7   -1078.0522 
  985000       984493    -6495.825    678.71849   -7174.5435    4380.9078   -11555.451     130.7846   -346.85205   -965.93322   -326.83949      85.9509   -83.889617   -201.02856      46.7237      46.7237      46.7237           90           90           90     102002.7   -546.54159 
  986000       985493   -6466.1407    679.40298   -7145.5436    4451.3899   -11596.934     130.9165   -1094.2794   -830.63302   -971.34669    26.558393    162.93819   -151.93895      46.7237      46.7237      46.7237           90           90           90     102002.7   -965.41971 
  987000       986493   -6523.4565    662.56754   -7186.0241    4380.0932   -11566.117    127.67242   -808.51766     -501.817   -551.68464   -174.29353    168.73574    94.159918      46.7237      46.7237      46.7237           90           90           90     102002.7    -620.6731 
  988000       987493   -6472.5903    677.95631   -7150.5466    4414.5834    -11565.13    130.63773   -991.64677   -544.52254   -385.16521   -193.05423   -18.989263   -169.64004      46.7237      46.7237      46.7237           90           90           90     102002.7   -640.44484 
  989000       988493   -6489.4072     662.6624   -7152.0696     4408.983   -11561.053     127.6907   -336.84482     -890.384   -625.93881    110.05977    106.38028    56.665096      46.7237      46.7237      46.7237           90           90           90     102002.7   -617.72254 
  990000       989493   -6443.7352    685.40447   -7129.1397    4437.4396   -11566.579    132.07294   -233.93648   -579.54921   -623.45833   0.32460345    70.326725   -100.75338      46.7237      46.7237      46.7237           90           90           90     102002.7   -478.98134 
  991000       990493    -6487.046    668.97243   -7156.0185    4412.3651   -11568.384     128.9066   -680.38183   -406.49382   -845.24038   -73.652317    98.475358   -36.573688      46.7237      46.7237      46.7237           90           90           90     102002.7   -644.03868 
  992000       991493   -6469.3069    660.61157   -7129.9184    4450.2195   -11580.138    127.29552   -836.71003   -1192.2091   -700.52318   -44.798891   -144.04428    172.26174      46.7237      46.7237      46.7237           90           90           90     102002.7   -909.81411 
  993000       992493   -6499.8568    674.32641   -7174.1832    4392.5365    -11566.72    129.93828   -639.96882   -849.87935    -577.7646    94.230355   -236.47629   -116.39159      46.7237      46.7237      46.7237           90           90           90     102002.7   -689.20425 
  994000       993493   -6445.0647    689.30043   -7134.3651    4438.4154   -11572.781    132.82367   -686.66196   -1189.5258    -1097.832     115.6765    -37.73318    77.361934      46.7237      46.7237      46.7237           90           90           90     102002.7   -991.33992 
  995000       994493   -6481.0824    664.17097   -7145.2534    4424.2962    -11569.55    127.98139   -1017.5377   -781.64068   -1530.7491   -73.898193    65.096449    173.28551      46.7237      46.7237      46.7237           90           90           90     102002.7   -1109.9758 
  996000       995493   -6478.2882    665.28376   -7143.5719    4428.0641   -11571.636    128.19582   -1081.4265    -1347.893   -492.03019    195.10955    113.72399    12.988908      46.7237      46.7237      46.7237           90           90           90     102002.7   -973.78325 
  997000       996493   -6468.1744    688.47863    -7156.653    4420.5123   -11577.165    132.66531   -1048.2018   -660.55662   -867.33481    111.40618    63.176208    179.69854      46.7237      46.7237      46.7237           90           90           90     102002.7   -858.69775 
  998000       997493    -6490.175    671.35782   -7161.5328    4423.9029   -11585.436    129.36625   -1211.9162   -1113.7122   -570.13256   -20.897734    150.25973    288.08176      46.7237      46.7237      46.7237           90           90           90     102002.7   -965.25368 
  999000       998493   -6494.6083    653.52404   -7148.1323    4429.0792   -11577.211    125.92979   -1087.4712   -1236.4512   -479.22038    120.93365    34.829735   -115.87797      46.7237      46.7237      46.7237           90           90           90     102002.7   -934.38095 
 1000000       999493   -6441.2294    691.23904   -7132.4684    4438.7189   -11571.187    133.19723    -891.7982   -524.80037   -531.27482     123.3086   -133.52433   -153.14106      46.7237      46.7237      46.7237           90           90           90     102002.7   -649.29113 
 1000507      1000000   -6490.9205    667.57557   -7158.4961    4412.3383   -11570.834    128.63743   -1164.8223   -937.35948    -648.1084    54.110444   -8.1666437   -89.038191      46.7237      46.7237      46.7237           90           90           90     102002.7   -916.76338 
Loop time of 1449.64 on 16 procs for 500000 steps with 1742 atoms

Performance: 29.801 ns/day, 0.805 hours/ns, 344.914 timesteps/s
99.8% CPU use with 16 MPI tasks x no OpenMP threads

MPI task timing breakdown:
Section |  min time  |  avg time  |  max time  |%varavg| %total
---------------------------------------------------------------
Pair    | 576.33     | 772.13     | 977.5      | 520.0 | 53.26
Bond    | 169.63     | 183.17     | 190.05     |  40.8 | 12.64
Neigh   | 4.4331     | 4.4506     | 4.4624     |   0.5 |  0.31
Comm    | 251.61     | 462.54     | 656.48     | 691.8 | 31.91
Output  | 0.097196   | 0.10203    | 0.10243    |   0.4 |  0.01
Modify  | 21.466     | 22.01      | 22.562     |   6.4 |  1.52
Other   |            | 5.234      |            |       |  0.36

Nlocal:    108.875 ave 129 max 92 min
Histogram: 4 1 0 1 3 1 0 4 0 2
Nghost:    2214.62 ave 2234 max 2187 min
Histogram: 1 1 2 0 2 2 1 2 2 3
Neighs:    11455.2 ave 16263 max 7068 min
Histogram: 3 2 1 2 1 0 2 0 3 2

Total # of neighbors = 183284
Ave neighs/atom = 105.215
Ave special neighs/atom = 6.61309
Neighbor list builds = 3786
Dangerous builds = 0
Total wall time: 0:45:25
