LAMMPS (30 Mar 2018)
Reading data file ...
  orthogonal box = (0 0 0) to (46.7237 46.7237 46.7237)
  2 by 3 by 4 MPI processor grid
  reading atoms ...
  1839 atoms
  scanning bonds ...
  5 = max bonds/atom
  scanning angles ...
  10 = max angles/atom
  scanning dihedrals ...
  32 = max dihedrals/atom
  scanning impropers ...
  3 = max impropers/atom
  reading bonds ...
  2064 bonds
  reading angles ...
  3696 angles
  reading dihedrals ...
  6240 dihedrals
  reading impropers ...
  1008 impropers
Finding 1-2 1-3 1-4 neighbors ...
  special bond factors lj:   0          0          0         
  special bond factors coul: 0          0          0         
  5 = max # of 1-2 neighbors
  8 = max # of 1-3 neighbors
  20 = max # of 1-4 neighbors
  19 = max # of special neighbors
Finding 1-2 1-3 1-4 neighbors ...
  special bond factors lj:   0          0          1         
  special bond factors coul: 1          1          1         
  5 = max # of 1-2 neighbors
  8 = max # of 1-3 neighbors
  19 = max # of special neighbors
WARNING: Using 'neigh_modify every 1 delay 0 check yes' setting during minimization (../min.cpp:168)
Neighbor list info ...
  update every 1 steps, delay 0 steps, check yes
  max neighbors/atom: 2000, page size: 100000
  master list distance cutoff = 16
  ghost atom cutoff = 16
  binsize = 8, bins = 6 6 6
  3 neighbor lists, perpetual/occasional/extra = 3 0 0
  (1) pair buck6d/coul/gauss/dsf, perpetual, skip from (3)
      attributes: half, newton on
      pair build: skip
      stencil: none
      bin: none
  (2) pair lj/cut, perpetual, skip from (3)
      attributes: half, newton on
      pair build: skip
      stencil: none
      bin: none
  (3) neighbor class addition, perpetual
      attributes: half, newton on
      pair build: half/bin/newton
      stencil: half/bin/3d/newton
      bin: standard
Setting up cg style minimization ...
  Unit style    : real
  Current step  : 0
WARNING: Inconsistent image flags (../domain.cpp:786)
Per MPI rank memory allocation (min/avg/max) = 22.87 | 23.28 | 24.43 Mbytes
Step Temp E_pair E_mol TotEng Press 
       0            0   -11839.616    6482.8914   -5356.7242    6134.3379 
     502            0    -11896.79    3735.4158   -8161.3745   -607.69346 
Loop time of 1.20448 on 24 procs for 502 steps with 1839 atoms

99.8% CPU use with 24 MPI tasks x no OpenMP threads

Minimization stats:
  Stopping criterion = max force evaluations
  Energy initial, next-to-last, final = 
        -5356.72420299       -8161.359623     -8161.37448917
  Force two-norm initial, final = 2576.52 5.81202
  Force max component initial, final = 152.049 0.783062
  Final line search alpha, max atom move = 0.0129909 0.0101727
  Iterations, force evaluations = 502 1000

MPI task timing breakdown:
Section |  min time  |  avg time  |  max time  |%varavg| %total
---------------------------------------------------------------
Pair    | 0.40805    | 0.6277     | 0.79935    |  12.2 | 52.11
Bond    | 0.10992    | 0.15736    | 0.19753    |   4.5 | 13.06
Neigh   | 0.0070064  | 0.0084861  | 0.010131   |   1.3 |  0.70
Comm    | 0.2105     | 0.38821    | 0.60616    |  15.5 | 32.23
Output  | 0          | 0          | 0          |   0.0 |  0.00
Modify  | 0          | 0          | 0          |   0.0 |  0.00
Other   |            | 0.02273    |            |       |  1.89

Nlocal:    76.625 ave 98 max 62 min
Histogram: 1 3 5 5 2 3 3 1 0 1
Nghost:    2070.83 ave 2236 max 1968 min
Histogram: 10 6 0 0 0 0 0 0 0 8
Neighs:    7635.38 ave 11068 max 4331 min
Histogram: 1 2 4 2 4 4 1 2 3 1

Total # of neighbors = 183249
Ave neighs/atom = 99.646
Ave special neighs/atom = 6.26427
Neighbor list builds = 12
Dangerous builds = 0
Neighbor list info ...
  update every 1 steps, delay 10 steps, check yes
  max neighbors/atom: 2000, page size: 100000
  master list distance cutoff = 16
  ghost atom cutoff = 16
  binsize = 8, bins = 6 6 6
  3 neighbor lists, perpetual/occasional/extra = 3 0 0
  (1) pair buck6d/coul/gauss/dsf, perpetual, skip from (3)
      attributes: half, newton on
      pair build: skip
      stencil: none
      bin: none
  (2) pair lj/cut, perpetual, skip from (3)
      attributes: half, newton on
      pair build: skip
      stencil: none
      bin: none
  (3) neighbor class addition, perpetual
      attributes: half, newton on
      pair build: half/bin/newton
      stencil: half/bin/3d/newton
      bin: standard
Setting up Verlet run ...
  Unit style    : real
  Current step  : 502
  Time step     : 1
WARNING: Inconsistent image flags (../domain.cpp:786)
Per MPI rank memory allocation (min/avg/max) = 22.52 | 22.67 | 23.3 Mbytes
Step Temp PotEng TotEng Press Volume Lx Ly Lz 
     502          110   -8161.3745   -7558.7143   -337.61269     102002.7      46.7237      46.7237      46.7237 
    1000    97.027605   -7629.7192   -7098.1313   -711.08358     102002.7      46.7237      46.7237      46.7237 
    2000    117.06252   -7558.8011   -6917.4473   -626.05486     102002.7      46.7237      46.7237      46.7237 
    3000    105.54842   -7515.6618   -6937.3906   -922.35844     102002.7      46.7237      46.7237      46.7237 
    4000    107.56298   -7550.4802   -6961.1718   -557.86017     102002.7      46.7237      46.7237      46.7237 
    5000    112.94259   -7526.5769   -6907.7951   -631.37318     102002.7      46.7237      46.7237      46.7237 
    6000    110.35233   -7535.6955    -6931.105   -808.49718     102002.7      46.7237      46.7237      46.7237 
    7000    109.94922     -7530.61    -6928.228   -439.38077     102002.7      46.7237      46.7237      46.7237 
    8000    109.78662   -7541.4632   -6939.9721   -867.72222     102002.7      46.7237      46.7237      46.7237 
    9000    109.25075   -7551.1167   -6952.5614   -643.81983     102002.7      46.7237      46.7237      46.7237 
   10000     112.3254   -7534.8994    -6919.499   -747.25721     102002.7      46.7237      46.7237      46.7237 
   11000    111.24176   -7538.1638   -6928.7003   -805.17218     102002.7      46.7237      46.7237      46.7237 
   12000    106.95219   -7539.7741    -6953.812    -877.4842     102002.7      46.7237      46.7237      46.7237 
   13000     112.6483   -7542.7637   -6925.5942   -853.60111     102002.7      46.7237      46.7237      46.7237 
   14000    107.45919   -7535.6651   -6946.9254   -731.43293     102002.7      46.7237      46.7237      46.7237 
   15000    109.24492   -7533.4434   -6934.9201   -516.77545     102002.7      46.7237      46.7237      46.7237 
   16000    113.43572   -7529.2853   -6907.8017   -900.78836     102002.7      46.7237      46.7237      46.7237 
   17000    102.14768   -7524.8034    -6965.164   -928.78692     102002.7      46.7237      46.7237      46.7237 
   18000    108.79975   -7540.7182   -6944.6339   -938.83968     102002.7      46.7237      46.7237      46.7237 
   19000    110.30723   -7532.4924    -6928.149    -771.0797     102002.7      46.7237      46.7237      46.7237 
   20000    106.98893    -7554.519   -6968.3557   -844.24103     102002.7      46.7237      46.7237      46.7237 
   21000     111.5241   -7543.0829   -6932.0726   -520.48572     102002.7      46.7237      46.7237      46.7237 
   22000    105.14575    -7521.228   -6945.1629   -730.53361     102002.7      46.7237      46.7237      46.7237 
   23000    109.95441   -7528.4871   -6926.0767   -849.94612     102002.7      46.7237      46.7237      46.7237 
   24000    112.74531   -7529.6744   -6911.9734   -751.79986     102002.7      46.7237      46.7237      46.7237 
   25000    111.43614   -7549.5453   -6939.0169   -1058.1223     102002.7      46.7237      46.7237      46.7237 
   26000    109.28913   -7536.2294   -6937.4639   -855.14634     102002.7      46.7237      46.7237      46.7237 
   27000    111.05367   -7563.3298   -6954.8968   -820.86982     102002.7      46.7237      46.7237      46.7237 
   28000     110.4525   -7525.9549   -6920.8156   -899.33188     102002.7      46.7237      46.7237      46.7237 
   29000    112.62891   -7534.6937   -6917.6305   -496.73711     102002.7      46.7237      46.7237      46.7237 
   30000    109.11604   -7564.0092    -6966.192   -437.37977     102002.7      46.7237      46.7237      46.7237 
   31000    107.90694   -7541.8166   -6950.6238   -618.41806     102002.7      46.7237      46.7237      46.7237 
   32000    109.86932    -7533.917   -6931.9728   -764.14985     102002.7      46.7237      46.7237      46.7237 
   33000    109.49955    -7516.651   -6916.7326   -741.24827     102002.7      46.7237      46.7237      46.7237 
   34000    108.04256   -7542.9171   -6950.9812   -453.86293     102002.7      46.7237      46.7237      46.7237 
   35000    112.26856   -7530.2921   -6915.2031   -580.70939     102002.7      46.7237      46.7237      46.7237 
   36000    109.95327    -7518.799   -6916.3948   -496.72314     102002.7      46.7237      46.7237      46.7237 
   37000    106.48444   -7532.0265   -6948.6272    -659.4011     102002.7      46.7237      46.7237      46.7237 
   38000    110.15287   -7521.6941   -6918.1964   -726.95533     102002.7      46.7237      46.7237      46.7237 
   39000    108.50249   -7547.7262   -6953.2705   -907.67947     102002.7      46.7237      46.7237      46.7237 
   40000    113.22784   -7543.0936    -6922.749   -706.55404     102002.7      46.7237      46.7237      46.7237 
   41000    105.76764   -7519.4344   -6939.9622   -653.44729     102002.7      46.7237      46.7237      46.7237 
   42000    107.39462   -7547.6077   -6959.2216   -730.06968     102002.7      46.7237      46.7237      46.7237 
   43000    107.30669   -7551.9041   -6963.9999   -875.09809     102002.7      46.7237      46.7237      46.7237 
   44000    110.45672   -7522.2835   -6917.1211    -803.7961     102002.7      46.7237      46.7237      46.7237 
   45000    109.08116   -7546.4574   -6948.8312   -721.73741     102002.7      46.7237      46.7237      46.7237 
   46000    109.67466   -7524.3677     -6923.49   -912.81955     102002.7      46.7237      46.7237      46.7237 
   47000    111.19999    -7529.183   -6919.9484   -926.25208     102002.7      46.7237      46.7237      46.7237 
   48000    107.94045   -7537.8325   -6946.4561   -978.60856     102002.7      46.7237      46.7237      46.7237 
   49000    109.81109   -7537.7462   -6936.1211   -929.83631     102002.7      46.7237      46.7237      46.7237 
   50000    112.45735   -7525.4387   -6909.3153   -573.15405     102002.7      46.7237      46.7237      46.7237 
   51000    110.07822   -7513.8492   -6910.7605   -404.97462     102002.7      46.7237      46.7237      46.7237 
   52000    114.47548   -7553.0853   -6925.9052   -756.02068     102002.7      46.7237      46.7237      46.7237 
   53000    112.09075   -7539.6686   -6925.5537   -691.93418     102002.7      46.7237      46.7237      46.7237 
   54000    110.08825   -7541.4587    -6938.315   -1000.3868     102002.7      46.7237      46.7237      46.7237 
   55000    110.95078    -7518.363   -6910.4937   -798.49406     102002.7      46.7237      46.7237      46.7237 
   56000    113.68835     -7544.38   -6921.5124   -687.77726     102002.7      46.7237      46.7237      46.7237 
   57000    112.07727   -7541.3685   -6927.3275   -858.68383     102002.7      46.7237      46.7237      46.7237 
   58000     110.7044     -7523.14   -6916.6206   -790.63755     102002.7      46.7237      46.7237      46.7237 
   59000    111.88747   -7534.2361    -6921.235   -777.13983     102002.7      46.7237      46.7237      46.7237 
   60000     107.1124   -7539.3796   -6952.5398    -959.3049     102002.7      46.7237      46.7237      46.7237 
   61000    111.51616   -7532.9025   -6921.9357   -688.89915     102002.7      46.7237      46.7237      46.7237 
   62000    106.49644   -7517.8908   -6934.4257    -754.7181     102002.7      46.7237      46.7237      46.7237 
   63000     108.0551   -7545.5463   -6953.5417   -601.50348     102002.7      46.7237      46.7237      46.7237 
   64000     111.5206   -7531.5136   -6920.5225   -773.67985     102002.7      46.7237      46.7237      46.7237 
   65000    113.23485   -7527.8612   -6907.4782   -724.76158     102002.7      46.7237      46.7237      46.7237 
   66000    109.94477   -7537.3876     -6935.03   -647.29502     102002.7      46.7237      46.7237      46.7237 
   67000    111.16547   -7559.8989   -6950.8535   -605.57582     102002.7      46.7237      46.7237      46.7237 
   68000    110.80626   -7543.4171   -6936.3396   -721.34751     102002.7      46.7237      46.7237      46.7237 
   69000    111.91127   -7541.0006   -6927.8691   -841.66337     102002.7      46.7237      46.7237      46.7237 
   70000    107.68461   -7564.2965   -6974.3218   -949.08255     102002.7      46.7237      46.7237      46.7237 
   71000    109.39397   -7528.7957   -6929.4558   -831.59321     102002.7      46.7237      46.7237      46.7237 
   72000    111.19686   -7539.4235    -6930.206   -779.88977     102002.7      46.7237      46.7237      46.7237 
   73000    112.46779   -7547.0277   -6930.8472   -647.00235     102002.7      46.7237      46.7237      46.7237 
   74000    107.74566   -7532.4676   -6942.1583   -822.40292     102002.7      46.7237      46.7237      46.7237 
   75000    109.72361    -7517.784   -6916.6381   -998.37796     102002.7      46.7237      46.7237      46.7237 
   76000    108.29993   -7523.5832   -6930.2373   -816.97047     102002.7      46.7237      46.7237      46.7237 
   77000    112.02196   -7532.3376   -6918.5997   -822.12095     102002.7      46.7237      46.7237      46.7237 
   78000    110.84951   -7536.0059   -6928.6915   -647.75951     102002.7      46.7237      46.7237      46.7237 
   79000    109.31984   -7547.1692   -6948.2355   -896.39291     102002.7      46.7237      46.7237      46.7237 
   80000    108.78748   -7528.3468   -6932.3296    -981.0385     102002.7      46.7237      46.7237      46.7237 
   81000    113.67412      -7522.8   -6900.0103   -940.61826     102002.7      46.7237      46.7237      46.7237 
   82000     108.0878   -7531.4585   -6939.2748   -1215.1172     102002.7      46.7237      46.7237      46.7237 
   83000    110.25451   -7526.9423   -6922.8877   -860.75458     102002.7      46.7237      46.7237      46.7237 
   84000    108.66473   -7525.4457   -6930.1011   -813.98616     102002.7      46.7237      46.7237      46.7237 
   85000    107.98966    -7531.236     -6939.59   -654.89105     102002.7      46.7237      46.7237      46.7237 
   86000    107.43367   -7544.2241   -6955.6241   -690.86544     102002.7      46.7237      46.7237      46.7237 
   87000    112.41071   -7534.0078     -6918.14   -543.27215     102002.7      46.7237      46.7237      46.7237 
   88000    108.17955    -7539.961   -6947.2745   -864.44393     102002.7      46.7237      46.7237      46.7237 
   89000    104.40795   -7533.2787   -6961.2559   -974.93817     102002.7      46.7237      46.7237      46.7237 
   90000    110.05455   -7527.5197   -6924.5607   -539.17686     102002.7      46.7237      46.7237      46.7237 
   91000    109.49781   -7541.4743   -6941.5654   -880.65243     102002.7      46.7237      46.7237      46.7237 
   92000    112.23218   -7506.4137    -6891.524   -769.98279     102002.7      46.7237      46.7237      46.7237 
   93000    111.20872     -7538.59   -6929.3076   -498.98692     102002.7      46.7237      46.7237      46.7237 
   94000    106.86494   -7538.8515   -6953.3675   -1037.2888     102002.7      46.7237      46.7237      46.7237 
   95000    110.04571   -7532.4139   -6929.5033   -449.32767     102002.7      46.7237      46.7237      46.7237 
   96000    110.50525   -7553.6583     -6948.23   -1012.2459     102002.7      46.7237      46.7237      46.7237 
   97000    108.73972   -7518.1146   -6922.3591   -619.11863     102002.7      46.7237      46.7237      46.7237 
   98000    111.96337   -7527.7042   -6914.2872    -598.8271     102002.7      46.7237      46.7237      46.7237 
   99000    107.43154   -7541.3725   -6952.7842   -683.38264     102002.7      46.7237      46.7237      46.7237 
  100000    113.65718   -7532.3063   -6909.6094   -873.33321     102002.7      46.7237      46.7237      46.7237 
  101000    109.01485   -7532.3853   -6935.1225   -591.92658     102002.7      46.7237      46.7237      46.7237 
  102000    111.48527   -7552.3392   -6941.5416   -662.80052     102002.7      46.7237      46.7237      46.7237 
  103000    109.38127    -7529.675   -6930.4046   -685.15317     102002.7      46.7237      46.7237      46.7237 
  104000    108.00777   -7547.7696   -6956.0244   -978.50249     102002.7      46.7237      46.7237      46.7237 
  105000     110.4035   -7529.1244   -6924.2535   -863.74734     102002.7      46.7237      46.7237      46.7237 
  106000    110.67242   -7532.7859   -6926.4417   -646.59111     102002.7      46.7237      46.7237      46.7237 
  107000    109.69516   -7548.1841    -6947.194   -681.18177     102002.7      46.7237      46.7237      46.7237 
  108000    109.38723   -7530.1891   -6930.8862   -744.87713     102002.7      46.7237      46.7237      46.7237 
  109000    110.49898   -7543.0157   -6937.6217   -493.81301     102002.7      46.7237      46.7237      46.7237 
  110000    108.96667   -7520.3369   -6923.3381   -875.20649     102002.7      46.7237      46.7237      46.7237 
  111000    110.10452    -7535.144   -6931.9112   -816.64597     102002.7      46.7237      46.7237      46.7237 
  112000    112.50125   -7531.5213   -6915.1574    -771.2108     102002.7      46.7237      46.7237      46.7237 
  113000    110.27711   -7555.5302   -6951.3518   -742.89749     102002.7      46.7237      46.7237      46.7237 
  114000    107.13816   -7532.2971   -6945.3162   -800.06506     102002.7      46.7237      46.7237      46.7237 
  115000    112.06563   -7535.8731   -6921.8959   -755.75271     102002.7      46.7237      46.7237      46.7237 
  116000     109.3254   -7542.3169   -6943.3527   -525.93461     102002.7      46.7237      46.7237      46.7237 
  117000    108.48302    -7524.132    -6929.783   -733.81332     102002.7      46.7237      46.7237      46.7237 
  118000    109.93905   -7520.0434   -6917.7171   -624.67389     102002.7      46.7237      46.7237      46.7237 
  119000     111.6507   -7566.9196   -6955.2157   -444.79853     102002.7      46.7237      46.7237      46.7237 
  120000    104.13589   -7532.4887   -6961.9564   -633.18268     102002.7      46.7237      46.7237      46.7237 
  121000    111.19443   -7554.6576   -6945.4535   -747.62481     102002.7      46.7237      46.7237      46.7237 
  122000     109.7454   -7532.3853     -6931.12   -700.18199     102002.7      46.7237      46.7237      46.7237 
  123000    111.43059    -7524.761    -6914.263    -703.9723     102002.7      46.7237      46.7237      46.7237 
  124000    111.10076   -7533.3636   -6924.6726   -933.20726     102002.7      46.7237      46.7237      46.7237 
  125000    107.70361   -7534.8251   -6944.7462   -590.19366     102002.7      46.7237      46.7237      46.7237 
  126000    112.28055   -7533.2589   -6918.1042    -631.8093     102002.7      46.7237      46.7237      46.7237 
  127000    105.45987   -7540.0172   -6962.2312   -893.49702     102002.7      46.7237      46.7237      46.7237 
  128000    112.58548    -7536.666   -6919.8407    -596.3336     102002.7      46.7237      46.7237      46.7237 
  129000    106.36631   -7528.6842    -6945.932   -863.70323     102002.7      46.7237      46.7237      46.7237 
  130000    104.61969   -7533.3353   -6960.1524   -585.73012     102002.7      46.7237      46.7237      46.7237 
  131000    113.64453   -7535.7828   -6913.1552   -739.06467     102002.7      46.7237      46.7237      46.7237 
  132000     109.2439   -7524.1384   -6925.6206    -822.6064     102002.7      46.7237      46.7237      46.7237 
  133000    111.78784   -7537.6503    -6925.195     -731.719     102002.7      46.7237      46.7237      46.7237 
  134000    110.75093   -7502.5125   -6895.7381   -1012.5496     102002.7      46.7237      46.7237      46.7237 
  135000    110.25424   -7535.1803   -6931.1273   -792.91954     102002.7      46.7237      46.7237      46.7237 
  136000    109.61912   -7561.3464   -6960.7729   -797.00663     102002.7      46.7237      46.7237      46.7237 
  137000    109.39549   -7530.4269   -6931.0787   -963.27283     102002.7      46.7237      46.7237      46.7237 
  138000    108.35377   -7535.3808   -6941.7398   -828.21261     102002.7      46.7237      46.7237      46.7237 
  139000    108.55486    -7526.083   -6931.3403   -982.58043     102002.7      46.7237      46.7237      46.7237 
  140000    111.09296   -7536.1292    -6927.481   -802.39782     102002.7      46.7237      46.7237      46.7237 
  141000    110.34744   -7531.4599   -6926.8962   -923.97488     102002.7      46.7237      46.7237      46.7237 
  142000    111.27069   -7522.7794   -6913.1575   -561.07682     102002.7      46.7237      46.7237      46.7237 
  143000    107.63541   -7540.2906   -6950.5854   -631.71031     102002.7      46.7237      46.7237      46.7237 
  144000    109.27341   -7533.1447   -6934.4653   -1006.6986     102002.7      46.7237      46.7237      46.7237 
  145000    113.05275   -7530.9999   -6911.6145   -891.35129     102002.7      46.7237      46.7237      46.7237 
  146000    109.72873   -7532.2731   -6931.0991   -1021.0813     102002.7      46.7237      46.7237      46.7237 
  147000    113.51668   -7557.7914   -6935.8643   -636.31421     102002.7      46.7237      46.7237      46.7237 
  148000    111.62747   -7536.5427    -6924.966   -614.92542     102002.7      46.7237      46.7237      46.7237 
  149000    110.52084   -7542.5532   -6937.0394   -891.60977     102002.7      46.7237      46.7237      46.7237 
  150000    106.80444   -7533.1882   -6948.0356   -789.47873     102002.7      46.7237      46.7237      46.7237 
  151000     109.9101   -7516.5979   -6914.4303   -595.84455     102002.7      46.7237      46.7237      46.7237 
  152000    111.36808   -7506.7642   -6896.6087   -777.71803     102002.7      46.7237      46.7237      46.7237 
  153000    108.69091   -7523.9537   -6928.4657   -974.75096     102002.7      46.7237      46.7237      46.7237 
  154000    109.87437   -7542.5116   -6940.5398    -926.2708     102002.7      46.7237      46.7237      46.7237 
  155000    110.22643     -7504.02   -6900.1193   -1089.5051     102002.7      46.7237      46.7237      46.7237 
  156000    109.07694   -7524.2787   -6926.6757   -875.14452     102002.7      46.7237      46.7237      46.7237 
  157000    111.28135   -7536.6705   -6926.9901    -709.9248     102002.7      46.7237      46.7237      46.7237 
  158000    109.45604   -7525.2153   -6925.5354   -744.63025     102002.7      46.7237      46.7237      46.7237 
  159000     106.2686   -7539.2685   -6957.0517   -938.37193     102002.7      46.7237      46.7237      46.7237 
  160000    111.69567   -7532.5666   -6920.6163    -713.0252     102002.7      46.7237      46.7237      46.7237 
  161000    105.75066   -7524.1879   -6944.8087    -848.1807     102002.7      46.7237      46.7237      46.7237 
  162000    109.88683    -7547.104   -6945.0638   -1068.0601     102002.7      46.7237      46.7237      46.7237 
  163000    111.74647   -7544.7669   -6932.5383   -648.11356     102002.7      46.7237      46.7237      46.7237 
  164000    111.25725    -7539.872   -6930.3238    -643.0032     102002.7      46.7237      46.7237      46.7237 
  165000    108.55356    -7527.066   -6932.3305   -835.14815     102002.7      46.7237      46.7237      46.7237 
  166000    110.57463   -7523.4643   -6917.6559   -676.27005     102002.7      46.7237      46.7237      46.7237 
  167000    109.43626   -7540.8948   -6941.3232   -874.96956     102002.7      46.7237      46.7237      46.7237 
  168000    109.76975   -7545.6777   -6944.2791   -679.19136     102002.7      46.7237      46.7237      46.7237 
  169000    107.36208    -7525.263   -6937.0553   -766.22964     102002.7      46.7237      46.7237      46.7237 
  170000    110.97312   -7533.3287   -6925.3371   -818.12498     102002.7      46.7237      46.7237      46.7237 
  171000    112.34116    -7527.553   -6912.0663   -875.91122     102002.7      46.7237      46.7237      46.7237 
  172000    110.13608   -7533.1672   -6929.7615    -652.7028     102002.7      46.7237      46.7237      46.7237 
  173000    109.27699   -7529.4186   -6930.7196   -673.64661     102002.7      46.7237      46.7237      46.7237 
  174000    115.73075   -7530.3421   -6896.2847   -689.89926     102002.7      46.7237      46.7237      46.7237 
  175000    108.72838   -7534.2223    -6938.529   -1098.3356     102002.7      46.7237      46.7237      46.7237 
  176000    112.34634   -7539.5827   -6924.0675   -911.99212     102002.7      46.7237      46.7237      46.7237 
  177000    111.57738   -7500.8996   -6889.5974   -724.34808     102002.7      46.7237      46.7237      46.7237 
  178000    112.60228   -7541.7711   -6924.8537   -869.53241     102002.7      46.7237      46.7237      46.7237 
  179000    107.37759   -7543.9257    -6955.633    -532.0441     102002.7      46.7237      46.7237      46.7237 
  180000    108.91909    -7520.577   -6923.8388   -579.00344     102002.7      46.7237      46.7237      46.7237 
  181000    111.04103   -7555.5465   -6947.1828   -854.23022     102002.7      46.7237      46.7237      46.7237 
  182000    113.60269   -7536.9665   -6914.5682   -831.28492     102002.7      46.7237      46.7237      46.7237 
  183000    108.28709   -7545.4607   -6952.1851   -740.42831     102002.7      46.7237      46.7237      46.7237 
  184000     108.5592   -7542.8683   -6948.1019   -530.25143     102002.7      46.7237      46.7237      46.7237 
  185000    110.06367   -7542.8292   -6939.8202   -534.43941     102002.7      46.7237      46.7237      46.7237 
  186000    108.33318   -7550.9569   -6957.4288     -700.989     102002.7      46.7237      46.7237      46.7237 
  187000    110.51599   -7534.1177   -6928.6306   -942.12289     102002.7      46.7237      46.7237      46.7237 
  188000    113.52555   -7521.9479   -6899.9722   -515.47943     102002.7      46.7237      46.7237      46.7237 
  189000    111.08765   -7535.6219   -6927.0028   -912.00888     102002.7      46.7237      46.7237      46.7237 
  190000    111.45438   -7556.7473   -6946.1189   -745.47314     102002.7      46.7237      46.7237      46.7237 
  191000    111.54757   -7515.0618   -6903.9229    -823.6157     102002.7      46.7237      46.7237      46.7237 
  192000    111.26749   -7534.5193   -6924.9149   -860.94698     102002.7      46.7237      46.7237      46.7237 
  193000    107.63808   -7535.9145   -6946.1946   -688.20085     102002.7      46.7237      46.7237      46.7237 
  194000    109.50721   -7527.7786   -6927.8183   -684.71833     102002.7      46.7237      46.7237      46.7237 
  195000    108.55215   -7520.1034   -6925.3756    -822.4361     102002.7      46.7237      46.7237      46.7237 
  196000    106.16354    -7549.039   -6967.3978   -742.08951     102002.7      46.7237      46.7237      46.7237 
  197000     109.4325    -7528.574    -6929.023   -628.53605     102002.7      46.7237      46.7237      46.7237 
  198000    109.87535    -7519.589   -6917.6118   -647.75622     102002.7      46.7237      46.7237      46.7237 
  199000    108.80558   -7536.3738   -6940.2576   -674.26211     102002.7      46.7237      46.7237      46.7237 
  200000    108.01334   -7540.7359   -6948.9601    -597.0305     102002.7      46.7237      46.7237      46.7237 
  201000    111.29837   -7517.4231   -6907.6495   -696.16777     102002.7      46.7237      46.7237      46.7237 
  202000    113.41055    -7548.156   -6926.8103   -619.75939     102002.7      46.7237      46.7237      46.7237 
  203000    110.51886   -7537.7446   -6932.2418   -1012.8116     102002.7      46.7237      46.7237      46.7237 
  204000    108.05924   -7534.8734   -6942.8461   -893.01977     102002.7      46.7237      46.7237      46.7237 
  205000    109.78457   -7510.6878   -6909.2079    -688.5313     102002.7      46.7237      46.7237      46.7237 
  206000    109.12392   -7545.1948   -6947.3344   -922.47602     102002.7      46.7237      46.7237      46.7237 
  207000     109.2304   -7513.7902   -6915.3465   -689.35284     102002.7      46.7237      46.7237      46.7237 
  208000    116.29174   -7544.7238   -6907.5929   -655.65603     102002.7      46.7237      46.7237      46.7237 
  209000    109.65707   -7525.5185   -6924.7372   -598.43116     102002.7      46.7237      46.7237      46.7237 
  210000     107.3195   -7541.8765   -6953.9021   -776.92771     102002.7      46.7237      46.7237      46.7237 
  211000    113.60473   -7552.6845    -6930.275   -570.90575     102002.7      46.7237      46.7237      46.7237 
  212000    109.98166   -7513.3286   -6910.7689    -1027.565     102002.7      46.7237      46.7237      46.7237 
  213000    107.42774    -7521.436   -6932.8686   -685.75579     102002.7      46.7237      46.7237      46.7237 
  214000    111.84297   -7553.8623    -6941.105   -928.06239     102002.7      46.7237      46.7237      46.7237 
  215000    110.26169    -7554.316   -6950.2222   -896.33477     102002.7      46.7237      46.7237      46.7237 
  216000    114.00763   -7543.2309    -6918.614    -850.4806     102002.7      46.7237      46.7237      46.7237 
  217000    111.02909   -7562.5073    -6954.209   -974.20695     102002.7      46.7237      46.7237      46.7237 
  218000    108.84282   -7551.3237   -6955.0034   -727.46744     102002.7      46.7237      46.7237      46.7237 
  219000    112.76776   -7553.6978   -6935.8738   -759.12242     102002.7      46.7237      46.7237      46.7237 
  220000    112.00928   -7532.7826   -6919.1141   -927.81663     102002.7      46.7237      46.7237      46.7237 
  221000    115.04626   -7543.1759   -6912.8687   -852.23245     102002.7      46.7237      46.7237      46.7237 
  222000    109.13094   -7541.9322   -6944.0334   -761.44463     102002.7      46.7237      46.7237      46.7237 
  223000    105.76418   -7553.0938   -6973.6405   -729.27107     102002.7      46.7237      46.7237      46.7237 
  224000    109.62256   -7534.7722   -6934.1799   -764.06777     102002.7      46.7237      46.7237      46.7237 
  225000    109.53138   -7526.4284   -6926.3357   -639.31842     102002.7      46.7237      46.7237      46.7237 
  226000    111.22848   -7557.7632   -6948.3725   -659.19784     102002.7      46.7237      46.7237      46.7237 
  227000    109.59369   -7551.7174   -6951.2833   -964.85901     102002.7      46.7237      46.7237      46.7237 
  228000    110.41751   -7544.4416    -6939.494   -895.65096     102002.7      46.7237      46.7237      46.7237 
  229000    109.49743   -7534.3539   -6934.4471   -1074.8288     102002.7      46.7237      46.7237      46.7237 
  230000    107.79347   -7557.0748   -6966.5037   -929.85579     102002.7      46.7237      46.7237      46.7237 
  231000    108.79832   -7516.1475    -6920.071   -918.43242     102002.7      46.7237      46.7237      46.7237 
  232000    110.05472   -7556.8998   -6953.9399   -781.99951     102002.7      46.7237      46.7237      46.7237 
  233000    109.90423   -7548.6719   -6946.5364   -683.52002     102002.7      46.7237      46.7237      46.7237 
  234000    107.46563   -7521.7547   -6932.9796   -944.21749     102002.7      46.7237      46.7237      46.7237 
  235000    110.68125   -7546.1236   -6939.7311   -646.26426     102002.7      46.7237      46.7237      46.7237 
  236000    109.16134   -7540.3859   -6942.3205   -646.14635     102002.7      46.7237      46.7237      46.7237 
  237000    110.25478   -7524.6028   -6920.5467   -846.49997     102002.7      46.7237      46.7237      46.7237 
  238000    109.09489   -7533.3342   -6935.6329   -745.34264     102002.7      46.7237      46.7237      46.7237 
  239000    110.19107   -7533.6172   -6929.9102   -744.96058     102002.7      46.7237      46.7237      46.7237 
  240000    106.52023   -7524.4983   -6940.9029   -913.62426     102002.7      46.7237      46.7237      46.7237 
  241000    105.22449   -7539.0511   -6962.5546   -1118.1106     102002.7      46.7237      46.7237      46.7237 
  242000    112.73451   -7552.6445   -6935.0027   -948.44691     102002.7      46.7237      46.7237      46.7237 
  243000    106.70893   -7546.5731   -6961.9439    -1218.248     102002.7      46.7237      46.7237      46.7237 
  244000    108.92398   -7536.9032   -6940.1382   -952.14021     102002.7      46.7237      46.7237      46.7237 
  245000     110.4879   -7549.5932     -6944.26   -1034.4602     102002.7      46.7237      46.7237      46.7237 
  246000    111.64065   -7516.9055   -6905.2567   -1092.5132     102002.7      46.7237      46.7237      46.7237 
  247000    108.90958   -7524.4488   -6927.7627   -888.00206     102002.7      46.7237      46.7237      46.7237 
  248000    110.00335   -7516.1877   -6913.5092   -1102.3865     102002.7      46.7237      46.7237      46.7237 
  249000    109.59343   -7544.3645   -6943.9318   -953.37861     102002.7      46.7237      46.7237      46.7237 
  250000    108.59467   -7516.2581   -6921.2973   -776.07193     102002.7      46.7237      46.7237      46.7237 
  251000    111.71171   -7555.7242    -6943.686   -776.98348     102002.7      46.7237      46.7237      46.7237 
  252000      110.416   -7529.8253   -6924.8859   -838.27527     102002.7      46.7237      46.7237      46.7237 
  253000    109.32025   -7511.1146   -6912.1785   -737.44261     102002.7      46.7237      46.7237      46.7237 
  254000    110.83921   -7528.4238   -6921.1658   -725.15745     102002.7      46.7237      46.7237      46.7237 
  255000    110.22361   -7549.6125   -6945.7272   -789.93557     102002.7      46.7237      46.7237      46.7237 
  256000    110.81584   -7534.2673   -6927.1374   -537.01682     102002.7      46.7237      46.7237      46.7237 
  257000    106.76742   -7549.7419   -6964.7922   -681.47177     102002.7      46.7237      46.7237      46.7237 
  258000    108.71095    -7546.474   -6950.8762   -512.08709     102002.7      46.7237      46.7237      46.7237 
  259000    110.94245   -7526.3465    -6918.523   -398.63086     102002.7      46.7237      46.7237      46.7237 
  260000    107.74255   -7536.3873   -6946.0951   -667.21414     102002.7      46.7237      46.7237      46.7237 
  261000    111.11941   -7536.9842   -6928.1911   -772.35243     102002.7      46.7237      46.7237      46.7237 
  262000    112.57318   -7563.6043   -6946.8464   -702.61091     102002.7      46.7237      46.7237      46.7237 
  263000    108.78599   -7543.8125   -6947.8035   -694.55422     102002.7      46.7237      46.7237      46.7237 
  264000    109.89088   -7529.5429   -6927.4806   -987.45299     102002.7      46.7237      46.7237      46.7237 
  265000     110.8589   -7548.7232   -6941.3573   -708.41367     102002.7      46.7237      46.7237      46.7237 
  266000    110.89215    -7521.363    -6913.815   -1000.8745     102002.7      46.7237      46.7237      46.7237 
  267000    110.08026    -7526.117   -6923.0172   -835.39521     102002.7      46.7237      46.7237      46.7237 
  268000    112.36535   -7557.9285   -6942.3092   -709.50369     102002.7      46.7237      46.7237      46.7237 
  269000    115.17064   -7518.6907    -6887.702   -639.41079     102002.7      46.7237      46.7237      46.7237 
  270000    109.97669   -7532.3868   -6929.8544   -649.27053     102002.7      46.7237      46.7237      46.7237 
  271000    109.25866   -7530.9824   -6932.3839   -724.15118     102002.7      46.7237      46.7237      46.7237 
  272000    108.03152   -7538.0256   -6946.1502   -1051.0026     102002.7      46.7237      46.7237      46.7237 
  273000    115.73801   -7545.8706   -6911.7734   -727.90353     102002.7      46.7237      46.7237      46.7237 
  274000    110.10723   -7550.9486   -6947.7009   -706.74227     102002.7      46.7237      46.7237      46.7237 
  275000    115.50926   -7544.5477   -6911.7038   -644.16415     102002.7      46.7237      46.7237      46.7237 
  276000     104.3331   -7537.3995   -6965.7868   -708.91684     102002.7      46.7237      46.7237      46.7237 
  277000    108.74007    -7527.559   -6931.8017    -671.3534     102002.7      46.7237      46.7237      46.7237 
  278000    109.55874   -7520.2057    -6919.963   -896.09212     102002.7      46.7237      46.7237      46.7237 
  279000    112.13155   -7526.0423   -6911.7039   -807.16307     102002.7      46.7237      46.7237      46.7237 
  280000    109.41372   -7541.9915   -6942.5433   -973.62426     102002.7      46.7237      46.7237      46.7237 
  281000    111.99973   -7533.3731    -6919.757   -864.21112     102002.7      46.7237      46.7237      46.7237 
  282000    110.24333   -7553.8224   -6949.8291   -905.53004     102002.7      46.7237      46.7237      46.7237 
  283000    110.81898   -7542.7866   -6935.6395   -698.00086     102002.7      46.7237      46.7237      46.7237 
  284000    108.64884   -7550.0025    -6954.745    -603.2585     102002.7      46.7237      46.7237      46.7237 
  285000    109.45169   -7547.1868   -6947.5307   -739.71751     102002.7      46.7237      46.7237      46.7237 
  286000     110.8278   -7559.9872   -6952.7918   -928.71905     102002.7      46.7237      46.7237      46.7237 
  287000    110.19721   -7532.4721   -6928.7315   -763.57359     102002.7      46.7237      46.7237      46.7237 
  288000    109.07554   -7541.4876   -6943.8923    -776.8668     102002.7      46.7237      46.7237      46.7237 
  289000    110.14356   -7531.0915   -6927.6448    -822.5453     102002.7      46.7237      46.7237      46.7237 
  290000    109.02865   -7517.0321   -6919.6937   -1021.3311     102002.7      46.7237      46.7237      46.7237 
  291000    110.59444   -7517.2463   -6911.3294   -1017.1611     102002.7      46.7237      46.7237      46.7237 
  292000    109.76241   -7544.5325    -6943.174   -958.32506     102002.7      46.7237      46.7237      46.7237 
  293000    110.56017   -7516.7492     -6911.02   -1087.8245     102002.7      46.7237      46.7237      46.7237 
  294000    109.16761   -7537.1978    -6939.098   -823.35019     102002.7      46.7237      46.7237      46.7237 
  295000    106.40729   -7552.5296   -6969.5529   -718.82542     102002.7      46.7237      46.7237      46.7237 
  296000    109.51484   -7543.8858   -6943.8837    -683.2697     102002.7      46.7237      46.7237      46.7237 
  297000    106.84089   -7540.5721   -6955.2199   -923.05315     102002.7      46.7237      46.7237      46.7237 
  298000    110.27297   -7549.8439   -6945.6882   -926.16837     102002.7      46.7237      46.7237      46.7237 
  299000    112.56606   -7529.5645   -6912.8455   -709.57755     102002.7      46.7237      46.7237      46.7237 
  300000    111.88891   -7530.5841    -6917.575    -1044.715     102002.7      46.7237      46.7237      46.7237 
  301000     109.3717   -7535.8789    -6936.661   -643.03245     102002.7      46.7237      46.7237      46.7237 
  302000    106.71378   -7552.8749    -6968.219   -862.13202     102002.7      46.7237      46.7237      46.7237 
  303000    108.87226   -7548.3689   -6951.8873    -566.9902     102002.7      46.7237      46.7237      46.7237 
  304000    110.14798   -7553.9259    -6950.455   -645.38667     102002.7      46.7237      46.7237      46.7237 
  305000     110.8661   -7549.2717   -6941.8664   -487.61334     102002.7      46.7237      46.7237      46.7237 
  306000    112.36807   -7542.2585   -6926.6243   -745.86502     102002.7      46.7237      46.7237      46.7237 
  307000    107.52962     -7520.83   -6931.7044   -871.61384     102002.7      46.7237      46.7237      46.7237 
  308000    110.85207   -7544.9887   -6937.6602   -808.69089     102002.7      46.7237      46.7237      46.7237 
  309000    110.60264   -7527.5317   -6921.5698   -463.07575     102002.7      46.7237      46.7237      46.7237 
  310000     108.8534    -7533.326   -6936.9478   -808.36305     102002.7      46.7237      46.7237      46.7237 
  311000    110.91404   -7529.0999    -6921.432   -648.95256     102002.7      46.7237      46.7237      46.7237 
  312000    110.05444   -7520.5888   -6917.6303   -759.71065     102002.7      46.7237      46.7237      46.7237 
  313000    111.00672   -7528.7543   -6920.5785   -639.96748     102002.7      46.7237      46.7237      46.7237 
  314000    110.19254   -7547.0469   -6943.3319   -660.84006     102002.7      46.7237      46.7237      46.7237 
  315000    109.46323   -7532.0678   -6932.3485   -697.79059     102002.7      46.7237      46.7237      46.7237 
  316000    110.26536   -7537.1216   -6933.0076   -597.32332     102002.7      46.7237      46.7237      46.7237 
  317000    110.98655   -7540.1616   -6932.0964   -763.05885     102002.7      46.7237      46.7237      46.7237 
  318000    111.52244      -7511.9   -6900.8988   -1026.0263     102002.7      46.7237      46.7237      46.7237 
  319000    106.49728   -7520.8703   -6937.4006   -652.55397     102002.7      46.7237      46.7237      46.7237 
  320000    108.69593   -7524.7952   -6929.2796   -797.10423     102002.7      46.7237      46.7237      46.7237 
  321000     107.7404   -7543.6569   -6953.3765   -825.83789     102002.7      46.7237      46.7237      46.7237 
  322000    111.64655   -7539.6796   -6927.9984   -969.68782     102002.7      46.7237      46.7237      46.7237 
  323000     109.1595    -7533.524   -6935.4687   -994.22426     102002.7      46.7237      46.7237      46.7237 
  324000    115.69667   -7543.8058   -6909.9352   -809.75862     102002.7      46.7237      46.7237      46.7237 
  325000    108.09407   -7527.2698   -6935.0517   -957.47071     102002.7      46.7237      46.7237      46.7237 
  326000    109.79227   -7526.8414   -6925.3193   -718.59492     102002.7      46.7237      46.7237      46.7237 
  327000    109.97268      -7525.4   -6922.8895   -838.57181     102002.7      46.7237      46.7237      46.7237 
  328000     111.8493   -7520.8376   -6908.0457   -820.15519     102002.7      46.7237      46.7237      46.7237 
  329000    113.88865    -7538.197   -6914.2319   -579.61261     102002.7      46.7237      46.7237      46.7237 
  330000    110.14651   -7543.2936   -6939.8308   -923.67226     102002.7      46.7237      46.7237      46.7237 
  331000    108.53359   -7549.7899   -6955.1638   -827.30297     102002.7      46.7237      46.7237      46.7237 
  332000    110.94806    -7513.536   -6905.6817   -829.14398     102002.7      46.7237      46.7237      46.7237 
  333000    109.58537   -7533.9461   -6933.5575   -890.62385     102002.7      46.7237      46.7237      46.7237 
  334000    109.93029   -7538.9611   -6936.6828   -956.67646     102002.7      46.7237      46.7237      46.7237 
  335000    113.16601   -7533.5001   -6913.4942   -1314.6258     102002.7      46.7237      46.7237      46.7237 
  336000    112.15327   -7535.0439   -6920.5866   -929.89017     102002.7      46.7237      46.7237      46.7237 
  337000     109.3243   -7537.4962    -6938.538    -938.0161     102002.7      46.7237      46.7237      46.7237 
  338000    111.42987   -7531.7436   -6921.2495   -938.57563     102002.7      46.7237      46.7237      46.7237 
  339000    106.27082   -7526.0875   -6943.8585   -975.71024     102002.7      46.7237      46.7237      46.7237 
  340000    105.90372   -7530.1857    -6949.968   -1000.2514     102002.7      46.7237      46.7237      46.7237 
  341000    113.52398    -7551.602   -6929.6349   -726.68323     102002.7      46.7237      46.7237      46.7237 
  342000    112.39433   -7538.1927   -6922.4147   -1170.5413     102002.7      46.7237      46.7237      46.7237 
  343000     109.0662   -7544.7476   -6947.2035   -1048.9679     102002.7      46.7237      46.7237      46.7237 
  344000     110.8383   -7533.4659   -6926.2129   -608.86732     102002.7      46.7237      46.7237      46.7237 
  345000    107.10142   -7555.2448   -6968.4652   -610.56554     102002.7      46.7237      46.7237      46.7237 
  346000    111.49375   -7541.7449   -6930.9009   -591.07424     102002.7      46.7237      46.7237      46.7237 
  347000    108.80256   -7538.6257    -6942.526   -684.14488     102002.7      46.7237      46.7237      46.7237 
  348000    106.35309   -7541.0504   -6958.3707   -943.40808     102002.7      46.7237      46.7237      46.7237 
  349000    110.05315   -7531.9924    -6929.041   -647.86316     102002.7      46.7237      46.7237      46.7237 
  350000     109.8003   -7542.1114   -6940.5453   -891.82365     102002.7      46.7237      46.7237      46.7237 
  351000    108.73167   -7529.3101   -6933.5988   -956.13167     102002.7      46.7237      46.7237      46.7237 
  352000    110.73787   -7535.6261   -6928.9233   -666.89651     102002.7      46.7237      46.7237      46.7237 
  353000    109.59556   -7547.6205   -6947.1762   -427.78245     102002.7      46.7237      46.7237      46.7237 
  354000     109.3591   -7556.9532   -6957.8044    -513.1286     102002.7      46.7237      46.7237      46.7237 
  355000    108.06696   -7527.6431   -6935.5735   -760.54596     102002.7      46.7237      46.7237      46.7237 
  356000     112.7344   -7530.3608   -6912.7196   -711.95436     102002.7      46.7237      46.7237      46.7237 
  357000    111.41244   -7547.2801   -6936.8815   -808.44197     102002.7      46.7237      46.7237      46.7237 
  358000    109.10121   -7543.0534   -6945.3175   -374.11209     102002.7      46.7237      46.7237      46.7237 
  359000    109.51422   -7533.1667   -6933.1679   -862.53918     102002.7      46.7237      46.7237      46.7237 
  360000    107.40922   -7545.4252   -6956.9592   -864.43967     102002.7      46.7237      46.7237      46.7237 
  361000    110.83732   -7553.9203   -6946.6727   -495.60317     102002.7      46.7237      46.7237      46.7237 
  362000    112.79856   -7540.2114   -6922.2187    -879.5046     102002.7      46.7237      46.7237      46.7237 
  363000    115.18106   -7549.1982   -6918.1524   -556.25601     102002.7      46.7237      46.7237      46.7237 
  364000     110.9424   -7557.5671   -6949.7437   -763.37553     102002.7      46.7237      46.7237      46.7237 
  365000    112.22826    -7510.187   -6895.3188   -803.00977     102002.7      46.7237      46.7237      46.7237 
  366000    109.55734   -7533.4805   -6933.2455   -834.76407     102002.7      46.7237      46.7237      46.7237 
  367000    108.57127    -7549.388   -6954.5555    -720.5562     102002.7      46.7237      46.7237      46.7237 
  368000     111.9186   -7534.0786   -6920.9069   -638.12485     102002.7      46.7237      46.7237      46.7237 
  369000    108.44513   -7528.6732   -6934.5317   -849.65017     102002.7      46.7237      46.7237      46.7237 
  370000    110.35407   -7546.2159   -6941.6158   -847.41216     102002.7      46.7237      46.7237      46.7237 
  371000    107.96676   -7512.0021   -6920.4814   -382.66378     102002.7      46.7237      46.7237      46.7237 
  372000    110.03137   -7535.5134   -6932.6813   -968.46005     102002.7      46.7237      46.7237      46.7237 
  373000    109.01457   -7535.1118   -6937.8505   -734.94618     102002.7      46.7237      46.7237      46.7237 
  374000    113.26868   -7530.2918   -6909.7234    -864.3662     102002.7      46.7237      46.7237      46.7237 
  375000    111.24219   -7520.3891   -6910.9233   -704.29395     102002.7      46.7237      46.7237      46.7237 
  376000    109.73166   -7534.6432   -6933.4532   -707.98713     102002.7      46.7237      46.7237      46.7237 
  377000    109.35455   -7527.1631   -6928.0392   -541.43039     102002.7      46.7237      46.7237      46.7237 
  378000    107.74516   -7521.8248   -6931.5183   -669.69981     102002.7      46.7237      46.7237      46.7237 
  379000    113.01543   -7513.0428   -6893.8619   -679.41471     102002.7      46.7237      46.7237      46.7237 
  380000    108.36148   -7529.0477   -6935.3646   -706.66083     102002.7      46.7237      46.7237      46.7237 
  381000    108.11853     -7524.73   -6932.3779    -771.6699     102002.7      46.7237      46.7237      46.7237 
  382000     108.0005    -7532.966   -6941.2606   -789.75148     102002.7      46.7237      46.7237      46.7237 
  383000     109.6142   -7547.8073   -6947.2608   -659.10499     102002.7      46.7237      46.7237      46.7237 
  384000    108.76821   -7547.8687   -6951.9572   -688.04718     102002.7      46.7237      46.7237      46.7237 
  385000    110.50246   -7525.0681   -6919.6551   -660.60911     102002.7      46.7237      46.7237      46.7237 
  386000    108.88012   -7534.2057   -6937.6811   -591.08244     102002.7      46.7237      46.7237      46.7237 
  387000    109.71547   -7526.6247   -6925.5234   -748.77426     102002.7      46.7237      46.7237      46.7237 
  388000    109.38747   -7530.1008   -6930.7964    -695.2763     102002.7      46.7237      46.7237      46.7237 
  389000    112.02302   -7560.1531   -6946.4094     -721.128     102002.7      46.7237      46.7237      46.7237 
  390000    110.82744   -7533.7873   -6926.5938   -853.24908     102002.7      46.7237      46.7237      46.7237 
  391000    104.79933   -7526.7931    -6952.626   -851.46852     102002.7      46.7237      46.7237      46.7237 
  392000    108.47627   -7530.7574   -6936.4454   -778.37596     102002.7      46.7237      46.7237      46.7237 
  393000     110.2114   -7523.7607   -6919.9423   -631.46673     102002.7      46.7237      46.7237      46.7237 
  394000    112.62685   -7533.3451   -6916.2932   -806.01179     102002.7      46.7237      46.7237      46.7237 
  395000    108.71175   -7536.0168   -6940.4146   -807.63489     102002.7      46.7237      46.7237      46.7237 
  396000    108.17511    -7552.883   -6960.2209   -494.13197     102002.7      46.7237      46.7237      46.7237 
  397000     111.3224   -7531.5457   -6921.6405   -745.42198     102002.7      46.7237      46.7237      46.7237 
  398000    111.39708   -7549.6745   -6939.3601   -710.49068     102002.7      46.7237      46.7237      46.7237 
  399000    114.04623   -7528.2133   -6903.3849   -830.99918     102002.7      46.7237      46.7237      46.7237 
  400000    110.05214   -7537.6117   -6934.6658   -830.65185     102002.7      46.7237      46.7237      46.7237 
  401000    115.14616   -7548.6066    -6917.752   -714.26404     102002.7      46.7237      46.7237      46.7237 
  402000    114.32295   -7530.2117   -6903.8672   -694.63895     102002.7      46.7237      46.7237      46.7237 
  403000    107.39809   -7549.7941   -6961.3891   -856.02403     102002.7      46.7237      46.7237      46.7237 
  404000     112.0452   -7556.0574   -6942.1921   -483.75418     102002.7      46.7237      46.7237      46.7237 
  405000    107.94799   -7515.1164   -6923.6986   -562.51311     102002.7      46.7237      46.7237      46.7237 
  406000    108.84212   -7556.4199   -6960.1034   -479.54363     102002.7      46.7237      46.7237      46.7237 
  407000    107.19775    -7527.857   -6940.5496   -652.12463     102002.7      46.7237      46.7237      46.7237 
  408000    109.75277   -7527.3283   -6926.0226   -554.54723     102002.7      46.7237      46.7237      46.7237 
  409000    109.72273   -7543.2891    -6942.148   -582.76459     102002.7      46.7237      46.7237      46.7237 
  410000    110.37174   -7526.2528   -6921.5559   -1041.7339     102002.7      46.7237      46.7237      46.7237 
  411000    108.62106   -7563.1288   -6968.0234   -639.84402     102002.7      46.7237      46.7237      46.7237 
  412000     111.0618   -7523.5313   -6915.0538   -683.96291     102002.7      46.7237      46.7237      46.7237 
  413000    109.99777   -7531.9911   -6929.3431   -800.04952     102002.7      46.7237      46.7237      46.7237 
  414000    111.65055   -7542.8324   -6931.1294   -612.25866     102002.7      46.7237      46.7237      46.7237 
  415000    110.59219   -7530.3889   -6924.4843   -738.52609     102002.7      46.7237      46.7237      46.7237 
  416000    107.00058   -7544.6754   -6958.4482   -904.25773     102002.7      46.7237      46.7237      46.7237 
  417000    110.85784    -7535.793   -6928.4329   -912.13864     102002.7      46.7237      46.7237      46.7237 
  418000    112.17618    -7533.813   -6919.2301   -738.20696     102002.7      46.7237      46.7237      46.7237 
  419000    108.88014   -7537.7911   -6941.2663   -562.08263     102002.7      46.7237      46.7237      46.7237 
  420000    112.98193   -7519.9349   -6900.9375   -706.07912     102002.7      46.7237      46.7237      46.7237 
  421000    109.45726    -7546.595   -6946.9084   -820.43309     102002.7      46.7237      46.7237      46.7237 
  422000    113.45355   -7529.7147   -6908.1335   -605.33441     102002.7      46.7237      46.7237      46.7237 
  423000    107.76371   -7535.7723   -6945.3641   -668.85935     102002.7      46.7237      46.7237      46.7237 
  424000    113.09188   -7528.0768    -6908.477   -905.72101     102002.7      46.7237      46.7237      46.7237 
  425000    112.04528   -7528.4086   -6914.5429   -321.35774     102002.7      46.7237      46.7237      46.7237 
  426000    112.90932   -7553.1937   -6934.5941   -773.59304     102002.7      46.7237      46.7237      46.7237 
  427000     111.1697   -7549.3225   -6940.2539   -554.44893     102002.7      46.7237      46.7237      46.7237 
  428000    109.85454   -7540.7773    -6938.914   -902.37099     102002.7      46.7237      46.7237      46.7237 
  429000    113.51486   -7539.9525   -6918.0354   -560.68973     102002.7      46.7237      46.7237      46.7237 
  430000    112.73249   -7555.3592   -6937.7284   -425.49675     102002.7      46.7237      46.7237      46.7237 
  431000    109.68039   -7516.2742    -6915.365   -666.08354     102002.7      46.7237      46.7237      46.7237 
  432000     113.6868   -7535.1152    -6912.256   -756.17141     102002.7      46.7237      46.7237      46.7237 
  433000    114.74404   -7537.4871   -6908.8356   -769.05703     102002.7      46.7237      46.7237      46.7237 
  434000    109.24183    -7544.485   -6945.9786   -805.13566     102002.7      46.7237      46.7237      46.7237 
  435000    114.02814   -7542.9391   -6918.2098   -574.45231     102002.7      46.7237      46.7237      46.7237 
  436000    110.59994   -7535.7105   -6929.7634    -691.9202     102002.7      46.7237      46.7237      46.7237 
  437000    108.92291   -7541.5041    -6944.745   -660.08357     102002.7      46.7237      46.7237      46.7237 
  438000    112.08042   -7510.3122    -6896.254   -684.57936     102002.7      46.7237      46.7237      46.7237 
  439000    107.90492   -7534.7318     -6943.55   -493.11855     102002.7      46.7237      46.7237      46.7237 
  440000    105.28835   -7529.3987   -6952.5524   -698.36025     102002.7      46.7237      46.7237      46.7237 
  441000     110.7238   -7550.5626   -6943.9369   -599.54972     102002.7      46.7237      46.7237      46.7237 
  442000     108.0424   -7531.8804   -6939.9453   -637.70974     102002.7      46.7237      46.7237      46.7237 
  443000    111.01677   -7532.2443   -6924.0135   -550.14386     102002.7      46.7237      46.7237      46.7237 
  444000    106.60158   -7537.7564   -6953.7153   -548.22636     102002.7      46.7237      46.7237      46.7237 
  445000    111.94176   -7537.9736    -6924.675    -585.6705     102002.7      46.7237      46.7237      46.7237 
  446000    108.26372   -7545.0767   -6951.9291   -415.64633     102002.7      46.7237      46.7237      46.7237 
  447000    113.53224   -7553.9838   -6931.9714   -507.58722     102002.7      46.7237      46.7237      46.7237 
  448000    111.46722   -7538.0296    -6927.331   -848.96908     102002.7      46.7237      46.7237      46.7237 
  449000    113.27735    -7569.482   -6948.8662   -668.11284     102002.7      46.7237      46.7237      46.7237 
  450000    109.96859    -7533.711   -6931.2229   -957.46428     102002.7      46.7237      46.7237      46.7237 
  451000    110.13207   -7535.0877   -6931.7039   -576.40542     102002.7      46.7237      46.7237      46.7237 
  452000    107.23151   -7513.4918   -6925.9995   -597.81066     102002.7      46.7237      46.7237      46.7237 
  453000    109.63944   -7521.4391   -6920.7543   -740.56925     102002.7      46.7237      46.7237      46.7237 
  454000    108.64616   -7560.8744   -6965.6315   -974.00291     102002.7      46.7237      46.7237      46.7237 
  455000    110.67501   -7534.9047   -6928.5463   -876.96398     102002.7      46.7237      46.7237      46.7237 
  456000    108.48956   -7532.8773   -6938.4924   -696.15383     102002.7      46.7237      46.7237      46.7237 
  457000    111.12166   -7530.3353   -6921.5299   -866.00761     102002.7      46.7237      46.7237      46.7237 
  458000    111.44567   -7523.7569   -6913.1763   -1069.6398     102002.7      46.7237      46.7237      46.7237 
  459000    110.33599   -7535.8045   -6931.3035   -1146.0746     102002.7      46.7237      46.7237      46.7237 
  460000    110.85251   -7521.3778    -6914.047   -813.72521     102002.7      46.7237      46.7237      46.7237 
  461000      108.561   -7549.2184   -6954.4421   -929.48547     102002.7      46.7237      46.7237      46.7237 
  462000    107.79071   -7522.1493   -6931.5932   -822.74151     102002.7      46.7237      46.7237      46.7237 
  463000     110.5935   -7511.0175   -6905.1057   -994.03048     102002.7      46.7237      46.7237      46.7237 
  464000    113.07436   -7549.9294   -6930.4256   -803.51856     102002.7      46.7237      46.7237      46.7237 
  465000    109.33145   -7531.4717   -6932.4743   -941.65135     102002.7      46.7237      46.7237      46.7237 
  466000    110.44579   -7525.3082   -6920.2056   -1162.5059     102002.7      46.7237      46.7237      46.7237 
  467000    107.13132   -7550.4813   -6963.5378   -1040.0916     102002.7      46.7237      46.7237      46.7237 
  468000     111.8873   -7548.1931    -6935.193   -1074.3435     102002.7      46.7237      46.7237      46.7237 
  469000    112.57691   -7516.4931   -6899.7147   -980.69252     102002.7      46.7237      46.7237      46.7237 
  470000    111.33658   -7536.9613   -6926.9784   -910.81583     102002.7      46.7237      46.7237      46.7237 
  471000    109.00839   -7519.4068   -6922.1794   -862.30133     102002.7      46.7237      46.7237      46.7237 
  472000    108.81118   -7540.3577   -6944.2108   -501.62939     102002.7      46.7237      46.7237      46.7237 
  473000    110.75021   -7540.6634   -6933.8931   -760.19808     102002.7      46.7237      46.7237      46.7237 
  474000    109.20519   -7537.6324   -6939.3267    -778.2757     102002.7      46.7237      46.7237      46.7237 
  475000    110.75846    -7536.171   -6929.3554   -739.37449     102002.7      46.7237      46.7237      46.7237 
  476000    113.63213   -7531.7289   -6909.1693   -670.82825     102002.7      46.7237      46.7237      46.7237 
  477000    108.23041   -7516.4583   -6923.4932   -750.68202     102002.7      46.7237      46.7237      46.7237 
  478000    107.86699   -7524.7925   -6933.8185   -639.35952     102002.7      46.7237      46.7237      46.7237 
  479000    113.24913   -7525.5463   -6905.0851   -807.43069     102002.7      46.7237      46.7237      46.7237 
  480000    109.92583   -7538.4837   -6936.2298    -734.0449     102002.7      46.7237      46.7237      46.7237 
  481000    105.83489   -7523.7248   -6943.8842   -920.89048     102002.7      46.7237      46.7237      46.7237 
  482000    111.95001   -7533.8422   -6920.4985   -1095.5968     102002.7      46.7237      46.7237      46.7237 
  483000    111.25017   -7539.2788   -6929.7692   -837.76548     102002.7      46.7237      46.7237      46.7237 
  484000    109.61538   -7547.3511   -6946.7982   -894.11759     102002.7      46.7237      46.7237      46.7237 
  485000    110.30342   -7529.9608   -6925.6382   -739.17501     102002.7      46.7237      46.7237      46.7237 
  486000    108.45577   -7511.5274   -6917.3276   -864.82881     102002.7      46.7237      46.7237      46.7237 
  487000     112.8091   -7519.0067   -6900.9563   -852.59363     102002.7      46.7237      46.7237      46.7237 
  488000    108.25982   -7527.0267   -6933.9005   -681.40824     102002.7      46.7237      46.7237      46.7237 
  489000    108.47068   -7523.1704   -6928.8889   -691.74549     102002.7      46.7237      46.7237      46.7237 
  490000    108.93006   -7550.9648   -6954.1666   -897.10521     102002.7      46.7237      46.7237      46.7237 
  491000    110.80667    -7524.577   -6917.4972   -655.08439     102002.7      46.7237      46.7237      46.7237 
  492000    112.32454   -7523.4758   -6908.0801   -460.43236     102002.7      46.7237      46.7237      46.7237 
  493000    110.28377   -7547.4917   -6943.2768    -644.9291     102002.7      46.7237      46.7237      46.7237 
  494000     113.0283   -7534.1008   -6914.8494   -948.36795     102002.7      46.7237      46.7237      46.7237 
  495000     110.3525   -7531.1001   -6926.5087   -507.05913     102002.7      46.7237      46.7237      46.7237 
  496000    108.25912   -7540.4471   -6947.3247   -890.86796     102002.7      46.7237      46.7237      46.7237 
  497000    109.62652   -7532.7172   -6932.1032   -763.93402     102002.7      46.7237      46.7237      46.7237 
  498000    108.85376   -7540.1176   -6943.7374   -580.21734     102002.7      46.7237      46.7237      46.7237 
  499000    111.88934   -7551.4117   -6938.4003   -652.58604     102002.7      46.7237      46.7237      46.7237 
  500000     109.9459   -7511.7063   -6909.3426   -712.74881     102002.7      46.7237      46.7237      46.7237 
  500502    109.19928   -7546.0111   -6947.7379   -645.19982     102002.7      46.7237      46.7237      46.7237 
Loop time of 591.697 on 24 procs for 500000 steps with 1839 atoms

Performance: 73.010 ns/day, 0.329 hours/ns, 845.027 timesteps/s
99.9% CPU use with 24 MPI tasks x no OpenMP threads

MPI task timing breakdown:
Section |  min time  |  avg time  |  max time  |%varavg| %total
---------------------------------------------------------------
Pair    | 168.51     | 282.97     | 382.29     | 367.5 | 47.82
Bond    | 68.279     | 78.647     | 92.846     |  74.4 | 13.29
Neigh   | 2.4967     | 2.5248     | 2.5433     |   1.1 |  0.43
Comm    | 108.56     | 220.32     | 340.2      | 446.8 | 37.23
Output  | 0.32454    | 0.32485    | 0.32955    |   0.2 |  0.05
Modify  | 3.3796     | 3.9225     | 4.2218     |  12.8 |  0.66
Other   |            | 2.993      |            |       |  0.51

Nlocal:    76.625 ave 101 max 53 min
Histogram: 1 4 3 3 3 0 1 4 4 1
Nghost:    2081.58 ave 2221 max 1996 min
Histogram: 8 7 1 0 0 0 0 0 2 6
Neighs:    7641.58 ave 10968 max 3935 min
Histogram: 2 2 2 3 4 2 2 1 1 5

Total # of neighbors = 183398
Ave neighs/atom = 99.727
Ave special neighs/atom = 6.26427
Neighbor list builds = 4058
Dangerous builds = 0
Neighbor list info ...
  update every 1 steps, delay 10 steps, check yes
  max neighbors/atom: 2000, page size: 100000
  master list distance cutoff = 16
  ghost atom cutoff = 16
  binsize = 8, bins = 6 6 6
  3 neighbor lists, perpetual/occasional/extra = 3 0 0
  (1) pair buck6d/coul/gauss/dsf, perpetual, skip from (3)
      attributes: half, newton on
      pair build: skip
      stencil: none
      bin: none
  (2) pair lj/cut, perpetual, skip from (3)
      attributes: half, newton on
      pair build: skip
      stencil: none
      bin: none
  (3) neighbor class addition, perpetual
      attributes: half, newton on
      pair build: half/bin/newton
      stencil: half/bin/3d/newton
      bin: standard
Setting up Verlet run ...
  Unit style    : real
  Current step  : 500502
  Time step     : 1
WARNING: Inconsistent image flags (../domain.cpp:786)
Per MPI rank memory allocation (min/avg/max) = 24.13 | 24.48 | 24.58 Mbytes
Step Time TotEng KinEng PotEng E_mol E_pair Temp Pxx Pyy Pzz Pxy Pxz Pyz Cella Cellb Cellc CellAlpha CellBeta CellGamma Volume Press 
  500502       500000   -6947.7379    598.27324   -7546.0111    4292.9458   -11838.957    109.19928   -751.60409   -365.28617   -818.70919    78.893361    4.2450799   -4.9600374      46.7237      46.7237      46.7237           90           90           90     102002.7   -645.19982 
  501000       500498   -6933.8248    595.73075   -7529.5555    4310.2217   -11839.777    108.73521   -631.47601   -720.02037   -685.77108   -294.52419    133.10698    221.87933      46.7237      46.7237      46.7237           90           90           90     102002.7   -679.08915 
  502000       501498   -6926.2398    598.71333   -7524.9532    4310.4399   -11835.393     109.2796   -934.98604   -861.91931   -438.30437    41.011573   -25.211467    42.567183      46.7237      46.7237      46.7237           90           90           90     102002.7   -745.06991 
  503000       502498   -6906.1788    602.35157   -7508.5304    4312.5693     -11821.1    109.94367   -413.41329   -719.29452   -790.56587    24.165995    135.04344    65.918286      46.7237      46.7237      46.7237           90           90           90     102002.7   -641.09123 
  504000       503498   -6933.0002     609.5539   -7542.5541    4304.9896   -11847.544    111.25827   -819.66561   -252.28892   -856.60727   -65.764591   -23.449194    129.66393      46.7237      46.7237      46.7237           90           90           90     102002.7   -642.85393 
  505000       504498   -6936.0045    600.07712   -7536.0817     4302.663   -11838.745    109.52853   -423.37815   -821.57879   -647.59551   -8.0488099   -73.365445    111.71309      46.7237      46.7237      46.7237           90           90           90     102002.7   -630.85082 
  506000       505498   -6919.5321    600.04651   -7519.5786    4313.6196   -11833.198    109.52294   -1002.1176   -962.96137   -313.89367    135.63419   -16.886221    72.870126      46.7237      46.7237      46.7237           90           90           90     102002.7   -759.65755 
  507000       506498   -6931.3049    595.60685   -7526.9118    4312.1325   -11839.044     108.7126   -632.61304   -777.99691   -922.37327   -169.96271   -374.00756    5.2020519      46.7237      46.7237      46.7237           90           90           90     102002.7   -777.66107 
  508000       507498   -6938.5391     608.7947   -7547.3338     4291.389   -11838.723     111.1197   -647.56181   -979.91737    -988.3395   -22.429671   -86.380118   -163.81403      46.7237      46.7237      46.7237           90           90           90     102002.7   -871.93956 
  509000       508498   -6950.6496    593.43428   -7544.0839    4292.5713   -11836.655    108.31605   -1258.7834   -805.58438   -729.81112   -123.91903    7.3395264   -39.391041      46.7237      46.7237      46.7237           90           90           90     102002.7   -931.39297 
  510000       509498   -6936.6247    598.51112   -7535.1359     4306.589   -11841.725     109.2427   -788.02205   -695.31159   -731.79126    131.93421     195.9394   -47.389306      46.7237      46.7237      46.7237           90           90           90     102002.7   -738.37497 
  511000       510498   -6944.7526    581.08586   -7525.8385    4330.8073   -11856.646    106.06217   -809.45922   -685.37201   -963.43612    -163.8601    48.126001    230.66669      46.7237      46.7237      46.7237           90           90           90     102002.7   -819.42245 
  512000       511498   -6927.3923    617.51298   -7544.9053    4307.6302   -11852.535      112.711   -407.43434   -838.78663   -722.97875   -81.048454    167.31195     38.94752      46.7237      46.7237      46.7237           90           90           90     102002.7   -656.39991 
  513000       512498    -6960.928    589.39347   -7550.3214    4285.2482    -11835.57    107.57851   -672.00322   -590.67399   -939.96263    21.936214   -66.204442    56.449515      46.7237      46.7237      46.7237           90           90           90     102002.7   -734.21328 
  514000       513498   -6914.2323    610.46465   -7524.6969    4300.9444   -11825.641    111.42451    -43.90586   -392.00789   -633.87328   -26.061465   -44.147579    115.15032      46.7237      46.7237      46.7237           90           90           90     102002.7   -356.59568 
  515000       514498   -6921.4201    598.56568   -7519.9858    4296.7679   -11816.754    109.25266   -884.03644   -370.48457   -585.50871    222.17778    4.6640189   -15.776115      46.7237      46.7237      46.7237           90           90           90     102002.7   -613.34324 
  516000       515498   -6915.6107    605.92071   -7521.5315    4292.8237   -11814.355    110.59513   -673.54031   -678.43722   -812.08463    135.86018   -198.47105    215.33083      46.7237      46.7237      46.7237           90           90           90     102002.7   -721.35405 
  517000       516498   -6923.3646     600.3761   -7523.7407    4312.9777   -11836.718     109.5831   -962.77467   -942.64708   -894.62993   -11.542501    -143.6681     -27.8944      46.7237      46.7237      46.7237           90           90           90     102002.7   -933.35056 
  518000       517498   -6959.2565    589.13895   -7548.3954    4285.0939   -11833.489    107.53205   -970.19871   -571.04591   -385.00093    99.470698   -36.557567     180.6526      46.7237      46.7237      46.7237           90           90           90     102002.7   -642.08185 
  519000       518498   -6930.6246    615.45556   -7546.0802    4290.1022   -11836.182    112.33547   -736.24861   -915.09671   -777.59169    5.4890082   -92.046235     23.45219      46.7237      46.7237      46.7237           90           90           90     102002.7   -809.64567 
  520000       519498   -6895.6086    610.46008   -7506.0687    4331.7116    -11837.78    111.42367   -1080.9521   -1176.2517   -1414.5951   -62.457765    -192.8518    0.2256574      46.7237      46.7237      46.7237           90           90           90     102002.7    -1223.933 
  521000       520498   -6926.2177    614.63489   -7540.8526    4296.8228   -11837.675    112.18567   -918.77131   -857.70685   -365.40885   -67.250007   -105.82153   -145.31975      46.7237      46.7237      46.7237           90           90           90     102002.7   -713.96234 
  522000       521498   -6945.0878    598.98547   -7544.0733    4290.8925   -11834.966    109.32928   -486.92488   -936.76341   -566.74342   -76.184904    51.074909    82.556458      46.7237      46.7237      46.7237           90           90           90     102002.7   -663.47724 
  523000       522498   -6929.9653    602.94697   -7532.9122    4318.1626   -11851.075    110.05235   -921.85012    -693.6355   -1212.5882    -203.3573   -42.190925   -79.024001      46.7237      46.7237      46.7237           90           90           90     102002.7   -942.69126 
  524000       523498   -6927.4697    592.45065   -7519.9204    4319.5995    -11839.52    108.13652   -923.13918   -416.59866   -941.96182   -139.72791    38.435865    151.95458      46.7237      46.7237      46.7237           90           90           90     102002.7   -760.56655 
  525000       524498   -6946.2342    592.24187   -7538.4761    4317.2506   -11855.727    108.09841    -982.9279   -1221.9661   -1430.7857   -1.5848116    -12.67685    182.37103      46.7237      46.7237      46.7237           90           90           90     102002.7   -1211.8932 
  526000       525498   -6904.7925    645.93917   -7550.7316    4292.7984    -11843.53    117.89946   -944.67246   -727.55646   -941.61099    1.1734642   -254.09985     67.24046      46.7237      46.7237      46.7237           90           90           90     102002.7   -871.27997 
  527000       526498   -6933.0893    586.56717   -7519.6565    4303.3661   -11823.023    107.06264   -950.83184   -883.43115   -1270.6324   -103.68291     38.95158    19.060954      46.7237      46.7237      46.7237           90           90           90     102002.7   -1034.9651 
  528000       527498   -6950.5997    599.11677   -7549.7165    4288.4628   -11838.179    109.35324   -1034.4859   -834.67214   -1176.1543   -64.628068    267.17064    85.576753      46.7237      46.7237      46.7237           90           90           90     102002.7   -1015.1041 
  529000       528498   -6906.0062    609.78814   -7515.7944    4321.4487   -11837.243    111.30102   -636.72492   -935.15451    -543.1577     40.25092     171.1487     105.3657      46.7237      46.7237      46.7237           90           90           90     102002.7   -705.01238 
  530000       529498   -6946.3351    578.48237   -7524.8174    4302.7067   -11827.524    105.58697   -954.71727   -830.08187   -948.48976    6.1137471    85.501423    27.593596      46.7237      46.7237      46.7237           90           90           90     102002.7    -911.0963 
  531000       530498   -6899.6584    612.73933   -7512.3977    4305.7741   -11818.172    111.83969   -725.30964    -1145.748    -407.1863   -28.562095     93.90318    215.87201      46.7237      46.7237      46.7237           90           90           90     102002.7   -759.41465 
  532000       531498   -6926.4963      594.534   -7521.0303    4324.4012   -11845.432    108.51678   -855.89525   -515.81505   -1314.5988    14.412329    232.23017    117.74482      46.7237      46.7237      46.7237           90           90           90     102002.7   -895.43637 
  533000       532498   -6909.2918    612.35444   -7521.6462    4309.7207   -11831.367    111.76944   -980.70913   -653.39233   -721.13333    -193.1315    141.90095     164.5372      46.7237      46.7237      46.7237           90           90           90     102002.7   -785.07826 
  534000       533498   -6925.4015    604.89836   -7530.2998     4287.898   -11818.198    110.40852   -434.09198   -758.76506   -856.00786   -275.24673     181.6974    -158.3281      46.7237      46.7237      46.7237           90           90           90     102002.7   -682.95496 
  535000       534498   -6900.8971     613.2856   -7514.1827    4301.1449   -11815.328     111.9394   -872.37894    -594.2236   -816.28393   0.37212107    47.490153   -115.00651      46.7237      46.7237      46.7237           90           90           90     102002.7   -760.96216 
  536000       535498    -6928.142      605.169    -7533.311     4302.204   -11835.515    110.45792   -1306.6649   -857.22666   -1115.3616    291.27926    3.5994207    107.46969      46.7237      46.7237      46.7237           90           90           90     102002.7   -1093.0844 
  537000       536498   -6944.9988    602.46607   -7547.4648    4278.5513   -11826.016    109.96457   -801.94293    -86.97404    -804.7789   -44.807567   -182.03516    30.056994      46.7237      46.7237      46.7237           90           90           90     102002.7   -564.56529 
  538000       537498   -6923.0405    588.89911   -7511.9396    4333.8123   -11845.752    107.48827   -504.00018   -1156.9586   -985.97888    124.39698    56.784106    201.16971      46.7237      46.7237      46.7237           90           90           90     102002.7   -882.31256 
  539000       538498    -6922.423    610.71179   -7533.1348    4314.1232   -11847.258    111.46961   -838.49473   -403.86189   -676.88605    62.440989     42.29256   -30.053519      46.7237      46.7237      46.7237           90           90           90     102002.7   -639.74756 
  540000       539498   -6916.6488    612.16574   -7528.8146    4319.8597   -11848.674    111.73499   -790.94408   -219.53347   -844.91674   -92.497329     51.83163    112.12575      46.7237      46.7237      46.7237           90           90           90     102002.7   -618.46476 
  541000       540498   -6937.7816    603.24027   -7541.0218     4288.377   -11829.399    110.10588   -538.30499   -585.39675   -474.47237   -19.884143    154.09135   -200.44753      46.7237      46.7237      46.7237           90           90           90     102002.7    -532.7247 
  542000       541498   -6905.6127    617.95624    -7523.569    4311.1231   -11834.692     112.7919   -372.71493     -680.103   -795.93573    125.78817    40.876645   -44.114389      46.7237      46.7237      46.7237           90           90           90     102002.7   -616.25122 
  543000       542498    -6944.661    580.72954   -7525.3905    4312.3568   -11837.747    105.99713   -462.89553   -793.49402   -423.05883   -2.0827529   -261.25544    142.70854      46.7237      46.7237      46.7237           90           90           90     102002.7   -559.81613 
  544000       543498   -6919.9993    606.54112   -7526.5404    4316.0606   -11842.601    110.70837   -1156.7474   -831.10192   -803.09388    271.12351    137.41498   -45.666467      46.7237      46.7237      46.7237           90           90           90     102002.7   -930.31441 
  545000       544498   -6905.5217    620.09958   -7525.6213    4296.3225   -11821.944    113.18311    -800.2615   -802.98033   -503.79278   -197.64717    313.46398   -20.776845      46.7237      46.7237      46.7237           90           90           90     102002.7   -702.34487 
  546000       545498   -6929.5693    599.40522   -7528.9745    4304.3118   -11833.286    109.40589   -931.12843   -488.82563   -344.14153   -4.8998447    8.2971558    100.25503      46.7237      46.7237      46.7237           90           90           90     102002.7   -588.03186 
  547000       546498   -6954.8199    598.30661   -7553.1265    4301.3241   -11854.451    109.20537   -751.88437   -676.24735    -879.3287   -75.099336    156.03614   -79.707953      46.7237      46.7237      46.7237           90           90           90     102002.7   -769.15347 
  548000       547498    -6941.062     602.9469   -7544.0089    4290.6918   -11834.701    110.05233   -350.70327   -1027.2195   -668.77735   -106.49043   -18.015043    89.710396      46.7237      46.7237      46.7237           90           90           90     102002.7   -682.23337 
  549000       548498   -6941.6211    601.75761   -7543.3788    4307.8676   -11851.246    109.83526   -1578.9027    -813.7924   -625.35356   -30.091667   -53.214873   -99.979701      46.7237      46.7237      46.7237           90           90           90     102002.7   -1006.0162 
  550000       549498   -6938.9958    588.35572   -7527.3515    4306.3864   -11833.738    107.38909   -768.66065   -1223.0894   -1019.0094 -0.053809315   -178.54201   -80.609655      46.7237      46.7237      46.7237           90           90           90     102002.7   -1003.5865 
  551000       550498   -6955.8706    585.19441    -7541.065    4310.9415   -11852.007    106.81208   -853.59981   -1011.5701   -1125.1359    47.307146    -177.0369   -157.55461      46.7237      46.7237      46.7237           90           90           90     102002.7   -996.76863 
  552000       551498   -6919.5385    608.54694   -7528.0854    4304.6472   -11832.733    111.07448   -1202.5506   -1575.7971   -1088.0691    66.681938   -267.12044    241.96933      46.7237      46.7237      46.7237           90           90           90     102002.7   -1288.8056 
  553000       552498   -6895.3908    625.95444   -7521.3453     4318.298   -11839.643    114.25176   -1013.2778    -779.7853   -748.54358   -156.39198   -166.76907   -17.451503      46.7237      46.7237      46.7237           90           90           90     102002.7   -847.20223 
  554000       553498   -6932.9384    603.21077   -7536.1491    4296.1501   -11832.299     110.1005   -625.11734   -1153.4529    -957.1007    28.042937   -62.639799     -60.8265      46.7237      46.7237      46.7237           90           90           90     102002.7   -911.89031 
  555000       554498   -6934.7633    609.78817   -7544.5515    4299.4569   -11844.008    111.30103   -1237.3831   -1039.6228   -679.10142   -213.23121   -21.706812    81.556731      46.7237      46.7237      46.7237           90           90           90     102002.7   -985.36909 
[...]
  936000       935498   -6946.6925     593.8562   -7540.5488    4307.3619   -11847.911    108.39306   -426.30461   -603.61861   -598.01252   -131.47984   -17.610078     182.6652      46.7237      46.7237      46.7237           90           90           90     102002.7   -542.64525 
  937000       936498   -6908.1725     604.2034   -7512.3759    4335.5058   -11847.882    110.28168   -609.59144   -763.74384   -769.36098    31.415073   -13.639995   -134.60533      46.7237      46.7237      46.7237           90           90           90     102002.7   -714.23209 
  938000       937498   -6927.3846    620.32451   -7547.7091    4292.0009    -11839.71    113.22417   -537.26476   -338.22484   -871.09654    7.7050342    151.43761    18.575528      46.7237      46.7237      46.7237           90           90           90     102002.7   -582.19538 
  939000       938498   -6930.2901    623.48583   -7553.7759    4304.1803   -11857.956    113.80118   -616.00202    -1001.327   -388.66618    84.412092    56.606991    129.49621      46.7237      46.7237      46.7237           90           90           90     102002.7   -668.66506 
  940000       939498   -6939.1121    605.31758   -7544.4297    4320.8335   -11865.263    110.48504   -816.77039   -466.80193    -757.1703   -123.37612    9.5642947   -116.31902      46.7237      46.7237      46.7237           90           90           90     102002.7   -680.24754 
  941000       940498   -6932.3571    613.59596    -7545.953    4290.4834   -11836.436    111.99604   -851.20495   -929.69457   -340.07558    66.229635    101.06544    91.799289      46.7237      46.7237      46.7237           90           90           90     102002.7    -706.9917 
  942000       941498   -6965.2909    593.35187   -7558.6428    4301.0266   -11859.669    108.30101       -796.6   -592.08115   -1028.8319   -145.19041    209.10427   -141.08029      46.7237      46.7237      46.7237           90           90           90     102002.7   -805.83769 
  943000       942498    -6935.142    604.43976   -7539.5818    4295.1883    -11834.77    110.32482   -722.46699   -646.32375   -837.59289   -37.584843   -21.847142   -50.596982      46.7237      46.7237      46.7237           90           90           90     102002.7   -735.46121 
  944000       943498   -6950.4323    586.34126   -7536.7736    4310.1552   -11846.929    107.02141   -690.65841   -740.87849   -1078.3598    59.085097    6.9880691   -27.939197      46.7237      46.7237      46.7237           90           90           90     102002.7   -836.63225 
  945000       944498   -6926.8324    599.46113   -7526.2936    4306.3312   -11832.625     109.4161   -475.22702   -587.77842   -706.33248    85.330612    189.84085   -379.19723      46.7237      46.7237      46.7237           90           90           90     102002.7    -589.7793 
  946000       945498   -6961.6972    578.39308   -7540.0902    4331.1477   -11871.238    105.57067   -579.17399   -618.05514   -705.19955    15.924708    20.887182    30.043838      46.7237      46.7237      46.7237           90           90           90     102002.7    -634.1429 
  947000       946498   -6941.8848    606.22311   -7548.1079    4301.4091   -11849.517    110.65032   -665.34388   -780.36985   -450.50048    144.76716   -161.15212   -100.97069      46.7237      46.7237      46.7237           90           90           90     102002.7    -632.0714 
  948000       947498   -6983.8367     576.5526   -7560.3893    4280.1779   -11840.567    105.23474    -945.4481   -840.06129   -416.27237   -120.27792    78.875623   -183.42849      46.7237      46.7237      46.7237           90           90           90     102002.7   -733.92726 
  949000       948498    -6928.753     612.9305   -7541.6835     4302.901   -11844.584    111.87458   -1086.9472   -876.94916    -787.6646   -113.68339    13.799275   -42.517976      46.7237      46.7237      46.7237           90           90           90     102002.7   -917.18697 
  950000       949498   -6932.4869    611.19275   -7543.6797    4298.7288   -11842.408     111.5574   -281.69582   -570.71769   -607.42452    41.919017    75.037953    28.433026      46.7237      46.7237      46.7237           90           90           90     102002.7   -486.61268 
  951000       950498   -6945.6666    602.31167   -7547.9783    4295.9146   -11843.893    109.93639    -826.2932     -954.524   -620.82313   -71.489496     45.02329    190.53476      46.7237      46.7237      46.7237           90           90           90     102002.7   -800.54678 
  952000       951498   -6967.1972    584.13631   -7551.3335     4291.248   -11842.582    106.61895   -871.55907   -784.44066   -717.49353    41.319747   -105.44836    102.66755      46.7237      46.7237      46.7237           90           90           90     102002.7   -791.16442 
  953000       952498   -6932.9991    617.14102   -7550.1401    4311.3198    -11861.46     112.6431   -489.40191   -567.86012   -812.12814    178.19785   -197.75851    132.42951      46.7237      46.7237      46.7237           90           90           90     102002.7   -623.13005 
  954000       953498   -6921.3441    610.15314   -7531.4973    4326.2026     -11857.7    111.36765   -1231.7603   -907.23629   -1023.3771     45.54069   -298.44204   -44.112332      46.7237      46.7237      46.7237           90           90           90     102002.7   -1054.1246 
  955000       954498   -6940.1936    589.68182   -7529.8754     4308.706   -11838.581    107.63114   -416.58524   -868.36058   -847.61892   -28.418871   -12.299298   -172.45661      46.7237      46.7237      46.7237           90           90           90     102002.7   -710.85491 
  956000       955498   -6928.9038    610.89309   -7539.7969     4289.274   -11829.071     111.5027   -452.95028   -845.11501   -314.98859   -107.49637    48.405429    66.186423      46.7237      46.7237      46.7237           90           90           90     102002.7   -537.68462 
  957000       956498   -6947.8635    596.73466   -7544.5981    4325.7665   -11870.365    108.91845   -391.79968   -504.81904   -1012.5861    42.570589   -236.65882     86.50813      46.7237      46.7237      46.7237           90           90           90     102002.7   -636.40161 
  958000       957498   -6929.9302    599.82191   -7529.7521    4337.4316   -11867.184    109.48195    -972.2665    -940.0502   -823.13427   -27.089205    203.56234   -97.562952      46.7237      46.7237      46.7237           90           90           90     102002.7   -911.81699 
  959000       958498   -6920.8507    613.90482   -7534.7555     4301.201   -11835.956    112.05242   -650.21355   -1032.2511   -627.07932    300.67038   -90.403522   -117.82672      46.7237      46.7237      46.7237           90           90           90     102002.7     -769.848 
  960000       959498   -6919.8229    605.39407    -7525.217     4318.616   -11843.833      110.499   -949.25043   -383.23611   -1088.1919    188.52281   -27.182822    -68.47277      46.7237      46.7237      46.7237           90           90           90     102002.7   -806.89282 
  961000       960498   -6957.6984    588.63244   -7546.3308    4297.5744   -11843.905     107.4396   -304.26417   -315.07357    -331.3304    19.709146    253.32682    -295.2053      46.7237      46.7237      46.7237           90           90           90     102002.7   -316.88938 
  962000       961498   -6921.4804    602.22107   -7523.7015    4325.2735   -11848.975    109.91985   -779.77854   -626.52252   -168.85785    81.492431    14.548537   -383.81422      46.7237      46.7237      46.7237           90           90           90     102002.7   -525.05297 
  963000       962498     -6964.24     589.0459   -7553.2859    4291.9325   -11845.218    107.51507   -509.98355   -357.26014   -739.45851    198.94029    50.507802   -110.43471      46.7237      46.7237      46.7237           90           90           90     102002.7    -535.5674 
  964000       963498   -6921.2348    597.14742   -7518.3822    4326.3672   -11844.749    108.99379   -719.59196   -717.30884   -830.40251    91.333507   -116.61701   -87.465373      46.7237      46.7237      46.7237           90           90           90     102002.7   -755.76777 
  965000       964498   -6949.0707    593.80138   -7542.8721    4284.9307   -11827.803    108.38306   -764.18752   -736.09839   -668.74758    140.83659     158.9917   0.56788885      46.7237      46.7237      46.7237           90           90           90     102002.7   -723.01117 
  966000       965498   -6935.1981      600.284   -7535.4821    4312.8502   -11848.332    109.56629   -659.81042   -1011.7185   -994.82578    366.95483   -24.627022    152.53626      46.7237      46.7237      46.7237           90           90           90     102002.7   -888.78489 
  967000       966498   -6916.7831    617.03775   -7533.8208    4302.4674   -11836.288    112.62425   -847.91565   -690.14459   -786.96562   -69.779861    37.020229   -51.991309      46.7237      46.7237      46.7237           90           90           90     102002.7   -775.00862 
  968000       967498    -6936.362    602.38329   -7538.7452    4311.6814   -11850.427    109.94946   -485.65211   -894.81828   -876.50719   -89.289975    17.834408   -98.685782      46.7237      46.7237      46.7237           90           90           90     102002.7   -752.32586 
  969000       968498   -6949.9134    600.17358    -7550.087    4295.2546   -11845.342    109.54614   -1043.4152   -657.82565   -936.31584   -247.09515   -65.546083    24.943301      46.7237      46.7237      46.7237           90           90           90     102002.7   -879.18556 
  970000       969498   -6914.5426    609.73622   -7524.2788    4315.4985   -11839.777    111.29155   -856.60633   -997.10619   -799.07068    9.7187261   -171.14761    121.73471      46.7237      46.7237      46.7237           90           90           90     102002.7   -884.26107 
  971000       970498   -6956.8805     594.5969   -7551.4774    4301.6846   -11853.162    108.52826   -578.11997   -472.37887    -1068.745    203.86355    29.424521    -182.1224      46.7237      46.7237      46.7237           90           90           90     102002.7   -706.41463 
  972000       971498   -6939.3141    604.86329   -7544.1774    4302.1317   -11846.309    110.40212   -1011.5659   -838.28981   -764.54637    236.73934   -35.222784   -80.667471      46.7237      46.7237      46.7237           90           90           90     102002.7   -871.46735 
  973000       972498   -6898.4362    626.26491   -7524.7011    4307.3378   -11832.039    114.30843   -423.74844   -637.25903   -326.51438    116.53574   -52.118013   -92.310507      46.7237      46.7237      46.7237           90           90           90     102002.7   -462.50729 
  974000       973498   -6924.8533    605.34628   -7530.1996    4327.0764   -11857.276    110.49028   -1161.2921   -408.83887   -753.61623   -122.49696    289.40994    266.21605      46.7237      46.7237      46.7237           90           90           90     102002.7   -774.58238 
  975000       974498    -6913.263    600.39782   -7513.6608    4349.4237   -11863.085    109.58707   -305.28977   -842.24027   -653.41508   -13.984558   -64.022483    4.4352798      46.7237      46.7237      46.7237           90           90           90     102002.7   -600.31504 
  976000       975498   -6912.0251    623.83538   -7535.8604    4323.1589   -11859.019    113.86498   -851.71392    -381.7611    -1012.236    116.17628   -72.570971    153.33368      46.7237      46.7237      46.7237           90           90           90     102002.7   -748.57034 
  977000       976498   -6925.3198    599.86107   -7525.1809    4319.4762   -11844.657     109.4891   -466.56814   -733.64813   -620.21752   -79.723435   -386.27723     -60.3002      46.7237      46.7237      46.7237           90           90           90     102002.7   -606.81126 
  978000       977498   -6948.1656      582.224   -7530.3896    4313.8097   -11844.199     106.2699   -847.72049   -241.43908   -1152.7463   -42.922603    13.360125    66.629165      46.7237      46.7237      46.7237           90           90           90     102002.7   -747.30196 
  979000       978498   -6933.9745    599.36913   -7533.3437    4327.5489   -11860.893    109.39931   -1315.5235   -951.72698   -971.67672    30.965837   -232.54548   -52.856092      46.7237      46.7237      46.7237           90           90           90     102002.7   -1079.6424 
  980000       979498   -6903.3319    623.08658   -7526.4185    4329.9573   -11856.376    113.72831   -702.38748      -194.99   -705.31652   -110.36887   -154.48724   -169.52915      46.7237      46.7237      46.7237           90           90           90     102002.7   -534.23133 
  981000       980498   -6934.2357    605.88461   -7540.1203    4298.7926   -11838.913    110.58854   -734.89399   -968.84045   -587.60113    -37.80196    355.66269    99.251188      46.7237      46.7237      46.7237           90           90           90     102002.7   -763.77852 
  982000       981498   -6917.5081    631.34867   -7548.8568    4281.9363   -11830.793    115.23634   -1159.6019   -558.80426   -962.26871    41.988266   -231.27408     8.838216      46.7237      46.7237      46.7237           90           90           90     102002.7   -893.55827 
  983000       982498   -6958.7153    605.23369    -7563.949    4267.0423   -11830.991    110.46973   -504.79394   -643.50578   -745.49598    37.186151   -57.583774    5.1701446      46.7237      46.7237      46.7237           90           90           90     102002.7   -631.26523 
  984000       983498    -6914.685    607.67418   -7522.3592    4317.9247   -11840.284    110.91518   -712.85618   -1177.4949   -817.21479   -100.70473     160.9001   -164.21687      46.7237      46.7237      46.7237           90           90           90     102002.7   -902.52196 
  985000       984498   -6923.6201    624.67865   -7548.2987     4301.498   -11849.797     114.0189   -447.46738   -871.78747   -987.85152    192.77883    24.233328    36.640566      46.7237      46.7237      46.7237           90           90           90     102002.7   -769.03545 
  986000       985498   -6980.4388    580.42828   -7560.8671    4297.1761   -11858.043    105.94214   -981.65576   -850.26492   -906.28297   -149.91503   -155.05245    31.367467      46.7237      46.7237      46.7237           90           90           90     102002.7   -912.73455 
  987000       986498   -6949.9277    606.81707   -7556.7448    4312.3881   -11869.133    110.75873     -947.265   -864.95351    -789.7044    47.847983    122.59281   -94.126985      46.7237      46.7237      46.7237           90           90           90     102002.7   -867.30764 
  988000       987498   -6913.9246    608.97262   -7522.8972    4326.8659   -11849.763    111.15217   -907.44612   -793.27739    -516.5036    82.823426     67.04205   -10.238493      46.7237      46.7237      46.7237           90           90           90     102002.7    -739.0757 
  989000       988498    -6935.703     599.6305   -7535.3335    4313.9026   -11849.236    109.44701   -782.30287   -489.10719    -452.5406    289.79022   -276.35349    123.25435      46.7237      46.7237      46.7237           90           90           90     102002.7   -574.65022 
  990000       989498   -6961.7454    580.44703   -7542.1924    4301.1083   -11843.301    105.94557   -1027.8488   -1050.5825   -502.98656    226.27556   -177.81729    4.0009633      46.7237      46.7237      46.7237           90           90           90     102002.7   -860.47264 
  991000       990498   -6913.6801    620.00219   -7533.6823    4333.3832   -11867.065    113.16533   -395.77328   -912.47987    -386.1022    16.996371     223.9353   -69.916462      46.7237      46.7237      46.7237           90           90           90     102002.7   -564.78512 
  992000       991498   -6945.3347     626.6043    -7571.939    4281.2705    -11853.21    114.37038   -628.26988   -1211.3314   -289.24231     173.6632   -81.866426    110.89195      46.7237      46.7237      46.7237           90           90           90     102002.7   -709.61452 
  993000       992498   -6905.3938    608.70262   -7514.0964    4322.3187   -11836.415    111.10289   -710.72727   -959.43115   -881.68465    74.687498    41.160523    274.15032      46.7237      46.7237      46.7237           90           90           90     102002.7   -850.61436 
  994000       993498   -6948.1556    608.14665   -7556.3023    4293.5163   -11849.819    111.00141   -748.92249   -732.89094   -1103.7604    119.90023    254.66626    322.96822      46.7237      46.7237      46.7237           90           90           90     102002.7   -861.85794 
  995000       994498   -6938.0266     588.0488   -7526.0754    4311.7148    -11837.79    107.33307   -821.05398    -551.3793   -508.79855    60.051861   -131.20719    80.971218      46.7237      46.7237      46.7237           90           90           90     102002.7   -627.07728 
  996000       995498   -6906.2303    607.55786   -7513.7881    4329.7614    -11843.55    110.89394   -864.11161   -936.85282    -707.2211    26.565885    35.075265    316.37982      46.7237      46.7237      46.7237           90           90           90     102002.7   -836.06185 
  997000       996498   -6936.4687    600.47563   -7536.9443    4306.8863   -11843.831    109.60127    -516.1019   -798.05257    -773.5048   -191.09513    62.178739    117.64929      46.7237      46.7237      46.7237           90           90           90     102002.7   -695.88642 
  998000       997498   -6954.5502    594.09094   -7548.6412    4318.3028   -11866.944    108.43591   -699.67259   -730.65736   -1158.8853    269.01144    151.94143   -58.922796      46.7237      46.7237      46.7237           90           90           90     102002.7   -863.07176 
  999000       998498   -6920.8949    620.90601   -7541.8009    4303.4673   -11845.268     113.3303    -732.7254   -689.90137   -499.04849    -176.7799     305.3174    59.069197      46.7237      46.7237      46.7237           90           90           90     102002.7   -640.55842 
 1000000       999498   -6934.6727     610.2739   -7544.9466    4307.8342   -11852.781    111.38969   -507.59795    -630.8241   -728.73216   -75.801446   -40.083001    197.05852      46.7237      46.7237      46.7237           90           90           90     102002.7   -622.38473 
 1000502      1000000   -6946.5525    597.78776   -7544.3403    4305.8438   -11850.184    109.11067   -727.76084   -589.56054   -882.24276   -73.326314   -415.35801    320.93288      46.7237      46.7237      46.7237           90           90           90     102002.7   -733.18805 
Loop time of 670.096 on 24 procs for 500000 steps with 1839 atoms

Performance: 64.468 ns/day, 0.372 hours/ns, 746.162 timesteps/s
99.9% CPU use with 24 MPI tasks x no OpenMP threads

MPI task timing breakdown:
Section |  min time  |  avg time  |  max time  |%varavg| %total
---------------------------------------------------------------
Pair    | 196.29     | 314.76     | 447.43     | 409.0 | 46.97
Bond    | 65.205     | 82.671     | 105.93     | 131.8 | 12.34
Neigh   | 2.6256     | 2.6519     | 2.675      |   1.0 |  0.40
Comm    | 99.341     | 254.52     | 376.66     | 505.8 | 37.98
Output  | 0.34387    | 0.38074    | 0.38243    |   1.2 |  0.06
Modify  | 11.607     | 12.09      | 12.373     |   6.8 |  1.80
Other   |            | 3.024      |            |       |  0.45

Nlocal:    76.625 ave 110 max 48 min
Histogram: 1 1 4 3 3 7 2 2 0 1
Nghost:    2087.83 ave 2242 max 1992 min
Histogram: 7 8 1 0 0 0 0 0 2 6
Neighs:    7640.67 ave 13040 max 2999 min
Histogram: 1 4 3 0 6 3 1 4 1 1

Total # of neighbors = 183376
Ave neighs/atom = 99.7151
Ave special neighs/atom = 6.26427
Neighbor list builds = 4085
Dangerous builds = 0
Total wall time: 0:21:03
