LAMMPS (30 Mar 2018)
Reading data file ...
  orthogonal box = (0 0 0) to (46.7237 46.7237 46.7237)
  2 by 2 by 4 MPI processor grid
  reading atoms ...
  3217 atoms
  scanning bonds ...
  5 = max bonds/atom
  scanning angles ...
  10 = max angles/atom
  scanning dihedrals ...
  32 = max dihedrals/atom
  scanning impropers ...
  3 = max impropers/atom
  reading bonds ...
  2064 bonds
  reading angles ...
  3696 angles
  reading dihedrals ...
  6240 dihedrals
  reading impropers ...
  1008 impropers
Finding 1-2 1-3 1-4 neighbors ...
  special bond factors lj:   0          0          0         
  special bond factors coul: 0          0          0         
  5 = max # of 1-2 neighbors
  8 = max # of 1-3 neighbors
  20 = max # of 1-4 neighbors
  19 = max # of special neighbors
Finding 1-2 1-3 1-4 neighbors ...
  special bond factors lj:   0          0          1         
  special bond factors coul: 1          1          1         
  5 = max # of 1-2 neighbors
  8 = max # of 1-3 neighbors
  19 = max # of special neighbors
WARNING: Using 'neigh_modify every 1 delay 0 check yes' setting during minimization (../min.cpp:168)
Neighbor list info ...
  update every 1 steps, delay 0 steps, check yes
  max neighbors/atom: 2000, page size: 100000
  master list distance cutoff = 16
  ghost atom cutoff = 16
  binsize = 8, bins = 6 6 6
  3 neighbor lists, perpetual/occasional/extra = 3 0 0
  (1) pair buck6d/coul/gauss/dsf, perpetual, skip from (3)
      attributes: half, newton on
      pair build: skip
      stencil: none
      bin: none
  (2) pair lj/cut, perpetual, skip from (3)
      attributes: half, newton on
      pair build: skip
      stencil: none
      bin: none
  (3) neighbor class addition, perpetual
      attributes: half, newton on
      pair build: half/bin/newton
      stencil: half/bin/3d/newton
      bin: standard
Setting up cg style minimization ...
  Unit style    : real
  Current step  : 0
WARNING: Inconsistent image flags (../domain.cpp:786)
Per MPI rank memory allocation (min/avg/max) = 23.02 | 23.47 | 23.92 Mbytes
Step Temp E_pair E_mol TotEng Press 
       0            0   -15630.359    6482.8914   -9147.4674    5960.4508 
     500            0   -15987.749    3778.4064   -12209.343   -1940.9504 
Loop time of 7.25277 on 16 procs for 500 steps with 3217 atoms

99.9% CPU use with 16 MPI tasks x no OpenMP threads

Minimization stats:
  Stopping criterion = max force evaluations
  Energy initial, next-to-last, final = 
        -9147.46744437     -12209.2621957     -12209.3430552
  Force two-norm initial, final = 2575.02 12.2577
  Force max component initial, final = 152.056 2.57275
  Final line search alpha, max atom move = 0.00614863 0.0158189
  Iterations, force evaluations = 500 1000

MPI task timing breakdown:
Section |  min time  |  avg time  |  max time  |%varavg| %total
---------------------------------------------------------------
Pair    | 2.7843     | 4.2424     | 6.006      |  47.8 | 58.49
Bond    | 0.27665    | 0.42848    | 0.62465    |  13.4 |  5.91
Neigh   | 0.050617   | 0.050785   | 0.050981   |   0.1 |  0.70
Comm    | 0.66066    | 2.4785     | 4.09       |  66.8 | 34.17
Output  | 0          | 0          | 0          |   0.0 |  0.00
Modify  | 0          | 0          | 0          |   0.0 |  0.00
Other   |            | 0.05262    |            |       |  0.73

Nlocal:    201.062 ave 233 max 170 min
Histogram: 1 0 2 2 3 4 2 1 0 1
Nghost:    4016.31 ave 4058 max 3984 min
Histogram: 1 0 3 2 5 3 1 0 0 1
Neighs:    11479.8 ave 15066 max 6658 min
Histogram: 1 2 1 2 0 1 2 3 1 3

Total # of neighbors = 183676
Ave neighs/atom = 57.0954
Ave special neighs/atom = 3.58098
Neighbor list builds = 9
Dangerous builds = 0
Neighbor list info ...
  update every 1 steps, delay 10 steps, check yes
  max neighbors/atom: 2000, page size: 100000
  master list distance cutoff = 16
  ghost atom cutoff = 16
  binsize = 8, bins = 6 6 6
  3 neighbor lists, perpetual/occasional/extra = 3 0 0
  (1) pair buck6d/coul/gauss/dsf, perpetual, skip from (3)
      attributes: half, newton on
      pair build: skip
      stencil: none
      bin: none
  (2) pair lj/cut, perpetual, skip from (3)
      attributes: half, newton on
      pair build: skip
      stencil: none
      bin: none
  (3) neighbor class addition, perpetual
      attributes: half, newton on
      pair build: half/bin/newton
      stencil: half/bin/3d/newton
      bin: standard
Setting up Verlet run ...
  Unit style    : real
  Current step  : 500
  Time step     : 1
WARNING: Inconsistent image flags (../domain.cpp:786)
Per MPI rank memory allocation (min/avg/max) = 22.66 | 22.76 | 23.25 Mbytes
Step Temp PotEng TotEng Press Volume Lx Ly Lz 
     500           91   -12209.343   -11336.991   -1550.0079     102002.7      46.7237      46.7237      46.7237 
    1000     76.38595   -11483.415   -10751.157   -442.92915     102002.7      46.7237      46.7237      46.7237 
    2000    91.561035   -11372.131     -10494.4   -397.64105     102002.7      46.7237      46.7237      46.7237 
    3000    91.893357   -11385.777   -10504.861   -369.57057     102002.7      46.7237      46.7237      46.7237 
    4000    90.599141   -11405.277   -10536.768   -252.86668     102002.7      46.7237      46.7237      46.7237 
    5000    90.842569   -11383.621   -10512.778   -337.42095     102002.7      46.7237      46.7237      46.7237 
    6000     90.95628   -11393.257   -10521.324   -318.54948     102002.7      46.7237      46.7237      46.7237 
    7000    91.829224   -11415.272   -10534.971   -547.36582     102002.7      46.7237      46.7237      46.7237 
    8000    88.347916   -11392.422   -10545.494   -745.02772     102002.7      46.7237      46.7237      46.7237 
    9000    91.403813   -11393.228   -10517.005   -517.90703     102002.7      46.7237      46.7237      46.7237 
   10000     92.31107   -11398.345   -10513.424   -330.53692     102002.7      46.7237      46.7237      46.7237 
   11000    89.120847   -11376.364   -10522.026   -334.95723     102002.7      46.7237      46.7237      46.7237 
   12000    92.092988   -11403.234   -10520.404   -198.75386     102002.7      46.7237      46.7237      46.7237 
   13000    91.786146   -11403.657   -10523.769   -355.78078     102002.7      46.7237      46.7237      46.7237 
   14000    91.646024   -11385.307   -10506.762   -240.11251     102002.7      46.7237      46.7237      46.7237 
   15000     93.39382   -11384.986   -10489.686   -491.78754     102002.7      46.7237      46.7237      46.7237 
   16000    91.163913   -11405.081   -10531.157   -543.62031     102002.7      46.7237      46.7237      46.7237 
   17000    91.383964    -11359.38   -10483.347   -250.88108     102002.7      46.7237      46.7237      46.7237 
   18000    92.000371   -11381.101   -10499.159   -244.98276     102002.7      46.7237      46.7237      46.7237 
   19000    89.506993   -11395.287   -10537.247   -370.05016     102002.7      46.7237      46.7237      46.7237 
   20000    90.074576   -11386.804   -10523.324   -240.43338     102002.7      46.7237      46.7237      46.7237 
   21000    91.232453   -11387.006   -10512.425   -275.72153     102002.7      46.7237      46.7237      46.7237 
   22000    91.827781   -11401.909   -10521.622   -374.71385     102002.7      46.7237      46.7237      46.7237 
   23000    91.374968   -11389.341   -10513.395   -322.09666     102002.7      46.7237      46.7237      46.7237 
   24000    88.908462   -11398.127   -10545.825   -293.10558     102002.7      46.7237      46.7237      46.7237 
   25000    92.207864   -11383.574   -10499.643   -511.27791     102002.7      46.7237      46.7237      46.7237 
   26000    89.124299   -11407.482   -10553.111   -399.07091     102002.7      46.7237      46.7237      46.7237 
   27000    90.286655   -11394.269   -10528.755   -396.91656     102002.7      46.7237      46.7237      46.7237 
   28000    88.276325   -11407.491   -10561.249    -286.7247     102002.7      46.7237      46.7237      46.7237 
   29000    90.632964   -11407.913    -10539.08   -383.34423     102002.7      46.7237      46.7237      46.7237 
   30000    90.806215   -11399.566   -10529.072   -279.19253     102002.7      46.7237      46.7237      46.7237 
   31000    93.226995   -11396.033   -10502.333   -237.77323     102002.7      46.7237      46.7237      46.7237 
   32000    91.989479   -11419.077    -10537.24   -296.80781     102002.7      46.7237      46.7237      46.7237 
   33000    93.141261   -11396.286   -10503.407   -183.67537     102002.7      46.7237      46.7237      46.7237 
   34000    91.408323   -11427.439   -10551.173   -273.55804     102002.7      46.7237      46.7237      46.7237 
   35000      93.1443   -11411.242   -10518.335   -412.48853     102002.7      46.7237      46.7237      46.7237 
   36000    92.030308   -11420.932   -10538.703   -217.59532     102002.7      46.7237      46.7237      46.7237 
   37000    90.550055   -11414.467   -10546.429   -387.19004     102002.7      46.7237      46.7237      46.7237 
   38000     89.95107   -11416.134   -10553.838   -404.82179     102002.7      46.7237      46.7237      46.7237 
   39000    92.906497   -11374.674   -10484.046    -392.2528     102002.7      46.7237      46.7237      46.7237 
   40000    90.909104   -11410.212   -10538.731   -547.08949     102002.7      46.7237      46.7237      46.7237 
   41000      90.4372   -11409.957   -10543.001   -514.48043     102002.7      46.7237      46.7237      46.7237 
   42000     90.57847   -11399.475   -10531.164   -448.72031     102002.7      46.7237      46.7237      46.7237 
   43000    90.763182   -11405.652    -10535.57   -323.82103     102002.7      46.7237      46.7237      46.7237 
   44000    93.590127   -11410.905   -10513.723   -495.48919     102002.7      46.7237      46.7237      46.7237 
   45000    90.604773   -11432.487   -10563.924   -362.36626     102002.7      46.7237      46.7237      46.7237 
   46000    90.955906   -11414.796   -10542.866   -464.10422     102002.7      46.7237      46.7237      46.7237 
   47000    90.246822   -11417.707   -10552.575   -363.81761     102002.7      46.7237      46.7237      46.7237 
   48000    91.663716    -11394.35   -10515.636   -165.37356     102002.7      46.7237      46.7237      46.7237 
   49000    91.808575   -11420.564   -10540.461   -684.06967     102002.7      46.7237      46.7237      46.7237 
   50000    94.298462   -11397.761   -10493.789   -536.46479     102002.7      46.7237      46.7237      46.7237 
   51000    87.795889       -11430   -10588.364   -690.51198     102002.7      46.7237      46.7237      46.7237 
   52000    92.518267   -11418.274   -10531.368   -522.95132     102002.7      46.7237      46.7237      46.7237 
   53000    92.424265   -11419.825    -10533.82   -619.14187     102002.7      46.7237      46.7237      46.7237 
   54000    90.982932   -11415.471   -10543.283   -272.89142     102002.7      46.7237      46.7237      46.7237 
   55000     90.52133   -11413.185   -10545.422   -622.54893     102002.7      46.7237      46.7237      46.7237 
   56000    90.170429   -11418.177   -10553.777   -266.87987     102002.7      46.7237      46.7237      46.7237 
   57000    91.529328   -11405.351   -10527.925   -514.96822     102002.7      46.7237      46.7237      46.7237 
   58000    89.915693   -11416.921   -10554.964   -43.150391     102002.7      46.7237      46.7237      46.7237 
   59000    90.079584   -11421.377   -10557.849   -599.66333     102002.7      46.7237      46.7237      46.7237 
   60000    90.916571   -11398.782   -10527.229   -410.94771     102002.7      46.7237      46.7237      46.7237 
   61000    92.575126   -11412.243   -10524.791   -580.18659     102002.7      46.7237      46.7237      46.7237 
   62000    91.948158   -11413.743   -10532.302   -493.31969     102002.7      46.7237      46.7237      46.7237 
   63000    93.024032    -11425.25   -10533.495   -367.49172     102002.7      46.7237      46.7237      46.7237 
   64000    89.716182   -11427.591   -10567.546     -505.767     102002.7      46.7237      46.7237      46.7237 
   65000    92.480799   -11422.967   -10536.419   -344.66622     102002.7      46.7237      46.7237      46.7237 
   66000    93.367178   -11434.738   -10539.694   -477.83875     102002.7      46.7237      46.7237      46.7237 
   67000    93.141704   -11420.677   -10527.794     -348.791     102002.7      46.7237      46.7237      46.7237 
   68000    88.970739   -11424.906   -10572.007    -292.1227     102002.7      46.7237      46.7237      46.7237 
   69000    92.188033   -11435.065   -10551.324   -272.41315     102002.7      46.7237      46.7237      46.7237 
   70000    93.017703   -11433.783   -10542.089   -376.58992     102002.7      46.7237      46.7237      46.7237 
   71000    88.544263   -11417.531   -10568.721   -165.87667     102002.7      46.7237      46.7237      46.7237 
   72000     90.66731   -11412.117   -10542.955   -221.40343     102002.7      46.7237      46.7237      46.7237 
   73000    90.122611   -11436.815   -10572.874   -427.50153     102002.7      46.7237      46.7237      46.7237 
   74000    90.838914   -11417.929   -10547.122   -216.38283     102002.7      46.7237      46.7237      46.7237 
   75000    91.075325   -11395.227   -10522.153   -509.29185     102002.7      46.7237      46.7237      46.7237 
   76000    91.831477   -11404.262    -10523.94    -418.0031     102002.7      46.7237      46.7237      46.7237 
   77000    91.669882   -11426.569   -10547.796   -483.29636     102002.7      46.7237      46.7237      46.7237 
   78000     90.26171   -11439.252   -10573.978   -405.29302     102002.7      46.7237      46.7237      46.7237 
   79000    89.328566   -11440.458   -10584.129   -384.58023     102002.7      46.7237      46.7237      46.7237 
   80000    89.438284   -11418.544   -10561.163   -331.89771     102002.7      46.7237      46.7237      46.7237 
   81000    92.395822   -11420.962   -10535.229   -203.46945     102002.7      46.7237      46.7237      46.7237 
   82000    90.894324   -11418.892   -10547.553   -467.68083     102002.7      46.7237      46.7237      46.7237 
   83000    91.292926   -11408.745   -10533.585   -288.00812     102002.7      46.7237      46.7237      46.7237 
   84000    89.988252   -11413.766   -10551.113   -369.53835     102002.7      46.7237      46.7237      46.7237 
   85000    92.502935   -11415.346   -10528.586    -435.2639     102002.7      46.7237      46.7237      46.7237 
   86000    90.528543   -11431.668   -10563.835   -348.73356     102002.7      46.7237      46.7237      46.7237 
   87000    92.237835   -11442.466   -10558.247   -518.08787     102002.7      46.7237      46.7237      46.7237 
   88000    90.986194   -11406.188   -10533.968   -435.59544     102002.7      46.7237      46.7237      46.7237 
   89000    91.912311   -11434.369   -10553.271   -564.29133     102002.7      46.7237      46.7237      46.7237 
   90000    90.114322   -11433.757   -10569.895   -527.93267     102002.7      46.7237      46.7237      46.7237 
   91000    90.832299    -11440.21   -10569.466   -397.07435     102002.7      46.7237      46.7237      46.7237 
   92000     90.24881   -11426.887   -10561.736   -146.97846     102002.7      46.7237      46.7237      46.7237 
   93000    91.731119   -11411.316   -10531.955   -257.66511     102002.7      46.7237      46.7237      46.7237 
   94000    88.963931   -11431.887   -10579.054   -390.64964     102002.7      46.7237      46.7237      46.7237 
   95000    92.175596   -11416.819   -10533.198   -509.90177     102002.7      46.7237      46.7237      46.7237 
   96000    93.663631   -11408.314   -10510.428   -674.12978     102002.7      46.7237      46.7237      46.7237 
   97000     90.24761    -11424.93   -10559.791    -459.3318     102002.7      46.7237      46.7237      46.7237 
   98000    92.529294   -11391.781   -10504.769   -335.77799     102002.7      46.7237      46.7237      46.7237 
   99000    89.517121   -11422.885   -10564.748   -381.03607     102002.7      46.7237      46.7237      46.7237 
  100000    90.184968   -11414.314   -10549.775   -254.72791     102002.7      46.7237      46.7237      46.7237 
  101000    90.119309   -11418.138   -10554.229   -396.71279     102002.7      46.7237      46.7237      46.7237 
  102000    90.871881   -11432.478   -10561.354   -576.15071     102002.7      46.7237      46.7237      46.7237 
  103000    90.742063   -11408.359    -10538.48   -571.72421     102002.7      46.7237      46.7237      46.7237 
  104000    90.149605   -11406.984   -10542.784   -644.59762     102002.7      46.7237      46.7237      46.7237 
  105000    89.187409   -11444.184   -10589.208   -523.89749     102002.7      46.7237      46.7237      46.7237 
  106000    92.022038   -11404.759    -10522.61   -453.92168     102002.7      46.7237      46.7237      46.7237 
  107000    93.322255   -11429.488   -10534.874   -433.21409     102002.7      46.7237      46.7237      46.7237 
  108000    91.938267   -11436.068   -10554.721   -409.19456     102002.7      46.7237      46.7237      46.7237 
  109000    89.710509    -11414.97   -10554.979    -337.4678     102002.7      46.7237      46.7237      46.7237 
  110000    90.875569   -11418.693   -10547.534   -168.56697     102002.7      46.7237      46.7237      46.7237 
  111000    91.419606   -11414.053   -10537.678   -117.75659     102002.7      46.7237      46.7237      46.7237 
  112000    90.834672   -11415.556   -10544.788   -129.05492     102002.7      46.7237      46.7237      46.7237 
  113000    90.791121    -11405.74    -10535.39   -460.12583     102002.7      46.7237      46.7237      46.7237 
  114000    88.129345   -11406.704   -10561.871   -184.34731     102002.7      46.7237      46.7237      46.7237 
  115000    92.628077   -11423.028   -10535.069   -598.03582     102002.7      46.7237      46.7237      46.7237 
  116000    91.353524   -11416.654   -10540.913    -405.1511     102002.7      46.7237      46.7237      46.7237 
  117000    91.850531   -11427.675    -10547.17   -450.10424     102002.7      46.7237      46.7237      46.7237 
  118000    88.196896   -11411.533   -10566.052   -204.70227     102002.7      46.7237      46.7237      46.7237 
  119000    92.493533   -11419.661   -10532.992   -311.94521     102002.7      46.7237      46.7237      46.7237 
  120000    87.464272   -11414.914   -10576.457   -526.58995     102002.7      46.7237      46.7237      46.7237 
  121000    92.587816   -11418.158   -10530.585   -188.28159     102002.7      46.7237      46.7237      46.7237 
  122000    90.619779   -11432.134   -10563.427   -381.80292     102002.7      46.7237      46.7237      46.7237 
  123000     87.06973   -11416.253   -10581.578   -353.90723     102002.7      46.7237      46.7237      46.7237 
  124000    90.067953   -11424.058   -10560.641   -246.90185     102002.7      46.7237      46.7237      46.7237 
  125000    92.647782   -11415.912   -10527.764   -137.45859     102002.7      46.7237      46.7237      46.7237 
  126000    89.932774   -11419.904   -10557.783   -249.15781     102002.7      46.7237      46.7237      46.7237 
  127000    90.725064   -11417.539   -10547.822   -613.65671     102002.7      46.7237      46.7237      46.7237 
  128000    89.790784   -11417.507   -10556.747   -540.57328     102002.7      46.7237      46.7237      46.7237 
  129000    89.368218   -11411.341   -10554.632   -332.63868     102002.7      46.7237      46.7237      46.7237 
  130000    91.128609   -11382.079   -10508.494   -306.32782     102002.7      46.7237      46.7237      46.7237 
  131000    90.057816   -11411.687   -10548.368    -427.6484     102002.7      46.7237      46.7237      46.7237 
  132000    92.703287   -11415.821   -10527.141   -484.57484     102002.7      46.7237      46.7237      46.7237 
  133000    89.113578   -11390.288    -10536.02   -561.10596     102002.7      46.7237      46.7237      46.7237 
  134000    91.654031   -11382.314   -10503.692   -525.42804     102002.7      46.7237      46.7237      46.7237 
  135000    91.545227   -11416.807   -10539.228   -351.91482     102002.7      46.7237      46.7237      46.7237 
  136000    89.444814   -11434.615   -10577.171   -154.49236     102002.7      46.7237      46.7237      46.7237 
  137000    91.284222   -11423.478   -10548.401   -414.25243     102002.7      46.7237      46.7237      46.7237 
  138000    90.963686   -11403.581   -10531.577   -412.09846     102002.7      46.7237      46.7237      46.7237 
  139000    89.895169   -11402.282   -10540.522   -541.11979     102002.7      46.7237      46.7237      46.7237 
  140000     92.05607   -11422.814   -10540.338   -551.55106     102002.7      46.7237      46.7237      46.7237 
  141000    90.457472   -11422.613   -10555.462   -340.17943     102002.7      46.7237      46.7237      46.7237 
  142000    91.472997   -11417.479   -10540.593   -515.36461     102002.7      46.7237      46.7237      46.7237 
  143000    90.543455   -11424.702   -10556.726   -287.18239     102002.7      46.7237      46.7237      46.7237 
  144000     91.25637   -11406.777   -10531.968   -269.59897     102002.7      46.7237      46.7237      46.7237 
  145000    92.398628   -11410.888   -10525.128   -507.94407     102002.7      46.7237      46.7237      46.7237 
  146000    90.959618   -11428.877   -10556.912     -532.716     102002.7      46.7237      46.7237      46.7237 
  147000    90.497912   -11440.976   -10573.437   -527.02197     102002.7      46.7237      46.7237      46.7237 
  148000     91.09733   -11417.588   -10544.303   -448.93814     102002.7      46.7237      46.7237      46.7237 
  149000    89.780975   -11423.559   -10562.893   -357.73809     102002.7      46.7237      46.7237      46.7237 
  150000     90.62974   -11441.533    -10572.73   -278.47055     102002.7      46.7237      46.7237      46.7237 
  151000    90.812369   -11398.624   -10528.071   -814.23659     102002.7      46.7237      46.7237      46.7237 
  152000    92.071515   -11418.965   -10536.341   -894.23382     102002.7      46.7237      46.7237      46.7237 
  153000    91.415032   -11424.705   -10548.375    -432.2926     102002.7      46.7237      46.7237      46.7237 
  154000    89.253028   -11427.239   -10571.634   -542.52677     102002.7      46.7237      46.7237      46.7237 
  155000    91.870205   -11416.807   -10536.113   -429.38824     102002.7      46.7237      46.7237      46.7237 
  156000     90.45147   -11414.172   -10547.078   -336.99839     102002.7      46.7237      46.7237      46.7237 
  157000    88.557145   -11427.479   -10578.545   -327.35393     102002.7      46.7237      46.7237      46.7237 
  158000     89.54503   -11408.402   -10549.998   -317.53507     102002.7      46.7237      46.7237      46.7237 
  159000     91.33885   -11416.322   -10540.722   -367.73486     102002.7      46.7237      46.7237      46.7237 
  160000    93.932878   -11434.937   -10534.469   -686.91948     102002.7      46.7237      46.7237      46.7237 
  161000    91.747827   -11418.066   -10538.545   -559.64126     102002.7      46.7237      46.7237      46.7237 
  162000    92.793209    -11404.99   -10515.448   -451.39218     102002.7      46.7237      46.7237      46.7237 
  163000    92.229358   -11414.886    -10530.75   -623.67071     102002.7      46.7237      46.7237      46.7237 
  164000    87.999782   -11407.584   -10563.993   -306.21996     102002.7      46.7237      46.7237      46.7237 
  165000    89.794042   -11420.298   -10559.507   -433.06619     102002.7      46.7237      46.7237      46.7237 
  166000    91.381113   -11410.984   -10534.979   -654.39434     102002.7      46.7237      46.7237      46.7237 
  167000    91.376818   -11434.074    -10558.11   -503.66231     102002.7      46.7237      46.7237      46.7237 
  168000    88.718478   -11422.303   -10571.823   -597.42175     102002.7      46.7237      46.7237      46.7237 
  169000    92.549591   -11407.627    -10520.42   -505.64984     102002.7      46.7237      46.7237      46.7237 
  170000    91.987323   -11412.787   -10530.971    -407.1256     102002.7      46.7237      46.7237      46.7237 
  171000    88.800684   -11400.979    -10549.71   -592.64232     102002.7      46.7237      46.7237      46.7237 
  172000    89.903677   -11426.588   -10564.746   -750.58159     102002.7      46.7237      46.7237      46.7237 
  173000    90.455167   -11422.336   -10555.207   -257.21394     102002.7      46.7237      46.7237      46.7237 
  174000    91.600106   -11405.335    -10527.23   -338.00221     102002.7      46.7237      46.7237      46.7237 
  175000    91.592466   -11421.604   -10543.572   -493.59616     102002.7      46.7237      46.7237      46.7237 
  176000    92.939729    -11418.73   -10527.783    -370.2669     102002.7      46.7237      46.7237      46.7237 
  177000    90.809229   -11415.242   -10544.719   -642.47274     102002.7      46.7237      46.7237      46.7237 
  178000    89.885041     -11424.5   -10562.836   -522.27902     102002.7      46.7237      46.7237      46.7237 
  179000    90.185639   -11420.145     -10555.6    -530.4013     102002.7      46.7237      46.7237      46.7237 
  180000    90.841372   -11419.609   -10548.778   -596.02159     102002.7      46.7237      46.7237      46.7237 
  181000    89.011265   -11419.733   -10566.445   -519.15625     102002.7      46.7237      46.7237      46.7237 
  182000    91.392657   -11421.298   -10545.182   -705.15621     102002.7      46.7237      46.7237      46.7237 
  183000    92.760596   -11431.438   -10542.208   -450.60339     102002.7      46.7237      46.7237      46.7237 
  184000    89.914755   -11429.221   -10567.272   -505.46676     102002.7      46.7237      46.7237      46.7237 
  185000    94.693104   -11436.898   -10529.142     -615.438     102002.7      46.7237      46.7237      46.7237 
  186000    91.220549   -11414.626    -10540.16   -197.15649     102002.7      46.7237      46.7237      46.7237 
  187000     92.06611   -11422.753   -10540.181    -743.6724     102002.7      46.7237      46.7237      46.7237 
  188000    94.649131   -11422.944    -10515.61   -520.92281     102002.7      46.7237      46.7237      46.7237 
  189000    91.278776   -11422.119   -10547.094   -568.76612     102002.7      46.7237      46.7237      46.7237 
  190000    91.309615   -11427.539   -10552.219    -329.8912     102002.7      46.7237      46.7237      46.7237 
  191000    91.394979   -11427.957   -10551.819   -368.09485     102002.7      46.7237      46.7237      46.7237 
  192000    93.193149   -11408.495   -10515.119   -354.82399     102002.7      46.7237      46.7237      46.7237 
  193000    91.319119   -11429.728   -10554.317    -485.1062     102002.7      46.7237      46.7237      46.7237 
  194000    91.910668   -11401.945   -10520.863   -587.88163     102002.7      46.7237      46.7237      46.7237 
  195000    90.594994   -11432.017   -10563.547   -439.32499     102002.7      46.7237      46.7237      46.7237 
  196000    89.754375    -11419.43   -10559.019   -480.69507     102002.7      46.7237      46.7237      46.7237 
  197000    92.408862   -11436.857       -10551   -636.78457     102002.7      46.7237      46.7237      46.7237 
  198000    88.766398   -11445.513   -10594.573   -295.05848     102002.7      46.7237      46.7237      46.7237 
  199000    92.483558   -11418.019   -10531.446   -447.58466     102002.7      46.7237      46.7237      46.7237 
  200000      89.1381   -11427.031   -10572.528   -492.93691     102002.7      46.7237      46.7237      46.7237 
  201000    91.738515   -11422.074   -10542.643   -515.65077     102002.7      46.7237      46.7237      46.7237 
  202000    90.611001   -11378.995   -10510.372   -386.49911     102002.7      46.7237      46.7237      46.7237 
  203000    91.275381   -11429.901   -10554.909   -610.26548     102002.7      46.7237      46.7237      46.7237 
  204000    92.596442   -11425.569   -10537.914   -514.87192     102002.7      46.7237      46.7237      46.7237 
  205000    90.490797   -11452.355   -10584.884   -372.94546     102002.7      46.7237      46.7237      46.7237 
  206000    92.086142   -11423.569   -10540.805    -580.2491     102002.7      46.7237      46.7237      46.7237 
  207000    89.493803   -11458.117   -10600.204   -464.87755     102002.7      46.7237      46.7237      46.7237 
  208000    89.988703   -11428.855   -10566.198   -343.16288     102002.7      46.7237      46.7237      46.7237 
  209000    90.903717   -11434.457   -10563.029   -293.68859     102002.7      46.7237      46.7237      46.7237 
  210000    89.981203   -11439.966   -10577.381   -418.29719     102002.7      46.7237      46.7237      46.7237 
  211000    91.156545   -11418.283    -10544.43   -451.61906     102002.7      46.7237      46.7237      46.7237 
  212000    89.894141   -11406.072   -10544.321   -583.17245     102002.7      46.7237      46.7237      46.7237 
  213000     89.48364   -11416.856    -10559.04   -413.25482     102002.7      46.7237      46.7237      46.7237 
  214000    90.512792    -11406.43   -10538.748   -312.80663     102002.7      46.7237      46.7237      46.7237 
  215000    89.114118   -11419.391   -10565.117   -361.88041     102002.7      46.7237      46.7237      46.7237 
  216000    91.241413   -11418.795   -10544.129   -345.00169     102002.7      46.7237      46.7237      46.7237 
  217000      91.2252   -11419.484   -10544.974   -500.10868     102002.7      46.7237      46.7237      46.7237 
  218000    92.495189   -11424.382   -10537.697   -401.14388     102002.7      46.7237      46.7237      46.7237 
  219000    89.550907   -11433.568   -10575.108   -365.53083     102002.7      46.7237      46.7237      46.7237 
  220000    89.442311   -11406.875   -10549.456   -321.84018     102002.7      46.7237      46.7237      46.7237 
  221000    91.982786   -11433.768   -10551.995   -543.12965     102002.7      46.7237      46.7237      46.7237 
  222000    88.330582   -11426.809   -10580.047   -336.07182     102002.7      46.7237      46.7237      46.7237 
  223000    89.958543   -11438.399   -10576.031   -271.87834     102002.7      46.7237      46.7237      46.7237 
  224000    89.315812   -11413.775   -10557.569   -513.57142     102002.7      46.7237      46.7237      46.7237 
  225000    91.865857    -11400.05   -10519.398   -98.341861     102002.7      46.7237      46.7237      46.7237 
  226000    90.848678   -11431.687   -10560.786   -734.60064     102002.7      46.7237      46.7237      46.7237 
  227000    90.176298   -11432.116    -10567.66   -458.11531     102002.7      46.7237      46.7237      46.7237 
  228000     91.64459   -11405.898   -10527.367   -231.15348     102002.7      46.7237      46.7237      46.7237 
  229000    88.728225   -11433.672   -10583.098   -569.75362     102002.7      46.7237      46.7237      46.7237 
  230000    92.628459   -11414.401   -10526.438   -336.99831     102002.7      46.7237      46.7237      46.7237 
  231000    89.220809   -11402.422   -10547.126   -408.14313     102002.7      46.7237      46.7237      46.7237 
  232000    91.576074   -11409.687   -10531.813   -470.40981     102002.7      46.7237      46.7237      46.7237 
  233000    92.707054   -11414.432   -10525.716   -125.30889     102002.7      46.7237      46.7237      46.7237 
  234000    90.886455   -11416.658   -10545.395   -303.05245     102002.7      46.7237      46.7237      46.7237 
  235000    92.052956   -11413.945   -10531.499   -733.01803     102002.7      46.7237      46.7237      46.7237 
  236000    91.274702   -11440.464   -10565.479   -359.73931     102002.7      46.7237      46.7237      46.7237 
  237000    90.269907   -11427.941   -10562.588   -426.23216     102002.7      46.7237      46.7237      46.7237 
  238000    89.826382   -11408.773   -10547.672   -486.86374     102002.7      46.7237      46.7237      46.7237 
  239000    89.503851   -11442.313   -10584.303    -514.7997     102002.7      46.7237      46.7237      46.7237 
  240000    88.797947    -11415.07   -10563.828   -354.23098     102002.7      46.7237      46.7237      46.7237 
  241000    90.783535   -11431.779   -10561.503   -506.39694     102002.7      46.7237      46.7237      46.7237 
  242000    92.377559   -11428.676   -10543.118    -183.1198     102002.7      46.7237      46.7237      46.7237 
  243000    90.901232   -11421.595    -10550.19    -251.9367     102002.7      46.7237      46.7237      46.7237 
  244000    89.907085   -11428.256   -10566.381   -285.77387     102002.7      46.7237      46.7237      46.7237 
  245000    89.538788   -11427.153   -10568.808   -527.34352     102002.7      46.7237      46.7237      46.7237 
  246000    91.041555   -11414.409   -10541.659   -760.32363     102002.7      46.7237      46.7237      46.7237 
  247000    90.829576   -11408.104   -10537.386   -320.53571     102002.7      46.7237      46.7237      46.7237 
  248000    90.601663   -11433.559   -10565.025   -215.13516     102002.7      46.7237      46.7237      46.7237 
  249000    90.362932   -11420.864   -10554.619   -551.33907     102002.7      46.7237      46.7237      46.7237 
  250000    90.051605     -11394.8   -10531.539   -409.11013     102002.7      46.7237      46.7237      46.7237 
  251000    91.249164   -11419.986   -10545.246   -708.39636     102002.7      46.7237      46.7237      46.7237 
  252000    88.000638   -11413.234   -10569.634   -626.88678     102002.7      46.7237      46.7237      46.7237 
  253000    88.614592   -11421.392   -10571.908   -389.87901     102002.7      46.7237      46.7237      46.7237 
  254000    89.572983    -11410.79   -10552.118   -569.77383     102002.7      46.7237      46.7237      46.7237 
  255000    92.446345   -11432.023   -10545.806   -308.18151     102002.7      46.7237      46.7237      46.7237 
  256000    93.042592   -11418.895   -10526.962    -443.4606     102002.7      46.7237      46.7237      46.7237 
  257000    89.755143   -11407.532   -10547.113   -333.32166     102002.7      46.7237      46.7237      46.7237 
  258000    88.584955   -11398.142   -10548.941   -205.46758     102002.7      46.7237      46.7237      46.7237 
  259000     91.36224   -11423.487   -10547.663   -280.42834     102002.7      46.7237      46.7237      46.7237 
  260000    91.829055   -11404.814   -10524.514   -529.08098     102002.7      46.7237      46.7237      46.7237 
  261000    90.918468   -11412.214   -10540.644   -263.04996     102002.7      46.7237      46.7237      46.7237 
  262000     91.10051   -11423.816     -10550.5   -806.14674     102002.7      46.7237      46.7237      46.7237 
  263000    91.020126   -11407.575    -10535.03   -446.01727     102002.7      46.7237      46.7237      46.7237 
  264000    91.834117   -11407.061   -10526.713   -368.62474     102002.7      46.7237      46.7237      46.7237 
  265000    91.483519   -11416.071   -10539.084   -323.41682     102002.7      46.7237      46.7237      46.7237 
  266000    91.113894   -11396.552   -10523.108   -86.701694     102002.7      46.7237      46.7237      46.7237 
  267000    88.018724   -11403.452   -10559.679   -168.39193     102002.7      46.7237      46.7237      46.7237 
  268000    91.813741   -11409.952   -10529.799   -364.00424     102002.7      46.7237      46.7237      46.7237 
  269000    90.423347    -11422.48   -10555.656     -508.055     102002.7      46.7237      46.7237      46.7237 
  270000    90.733364   -11404.262   -10534.466   -380.48812     102002.7      46.7237      46.7237      46.7237 
  271000    93.569343   -11431.095   -10534.112   -180.27607     102002.7      46.7237      46.7237      46.7237 
  272000    89.908494   -11426.162   -10564.274   -518.36251     102002.7      46.7237      46.7237      46.7237 
  273000    91.612706   -11424.196   -10545.971   -688.40363     102002.7      46.7237      46.7237      46.7237 
  274000    91.013727    -11426.07   -10553.587   -733.88568     102002.7      46.7237      46.7237      46.7237 
  275000    88.900557   -11404.254   -10552.028   -671.97812     102002.7      46.7237      46.7237      46.7237 
  276000    89.823144   -11419.434   -10558.364   -954.04471     102002.7      46.7237      46.7237      46.7237 
  277000    90.494822   -11414.029    -10546.52   -693.48093     102002.7      46.7237      46.7237      46.7237 
  278000    92.801028   -11403.037    -10513.42   -543.81956     102002.7      46.7237      46.7237      46.7237 
  279000     88.97364   -11417.067   -10564.141   -718.75188     102002.7      46.7237      46.7237      46.7237 
  280000     89.29334   -11411.639   -10555.648   -462.42752     102002.7      46.7237      46.7237      46.7237 
  281000    90.784569   -11408.834   -10538.547   -732.82871     102002.7      46.7237      46.7237      46.7237 
  282000    92.210795   -11432.973   -10549.015   -434.19278     102002.7      46.7237      46.7237      46.7237 
  283000    92.539136   -11404.548   -10517.441   -289.32072     102002.7      46.7237      46.7237      46.7237 
  284000    90.530056   -11407.888   -10540.041   -280.97082     102002.7      46.7237      46.7237      46.7237 
  285000      91.5796   -11404.914   -10527.006   -572.64941     102002.7      46.7237      46.7237      46.7237 
  286000    90.722143   -11405.013   -10535.325   -426.11664     102002.7      46.7237      46.7237      46.7237 
  287000     92.71567   -11413.161   -10524.362   -293.81937     102002.7      46.7237      46.7237      46.7237 
  288000    90.046197    -11391.64   -10528.431   -493.47197     102002.7      46.7237      46.7237      46.7237 
  289000    91.269898   -11416.436   -10541.497   -632.93807     102002.7      46.7237      46.7237      46.7237 
  290000    92.044395   -11425.203   -10542.839   -321.62026     102002.7      46.7237      46.7237      46.7237 
  291000    91.043539   -11407.942   -10535.173   -616.42413     102002.7      46.7237      46.7237      46.7237 
  292000    92.265232   -11414.759   -10530.278   -433.22119     102002.7      46.7237      46.7237      46.7237 
  293000    92.377902   -11403.893   -10518.332   -449.53099     102002.7      46.7237      46.7237      46.7237 
  294000    91.924509   -11399.921   -10518.706   -493.88536     102002.7      46.7237      46.7237      46.7237 
  295000    92.462451   -11406.865   -10520.493    -452.0156     102002.7      46.7237      46.7237      46.7237 
  296000    89.714015   -11410.213   -10550.189   -492.35941     102002.7      46.7237      46.7237      46.7237 
  297000    91.579379   -11408.451   -10530.545   -611.89375     102002.7      46.7237      46.7237      46.7237 
  298000    90.821093   -11406.862   -10536.225   -632.16146     102002.7      46.7237      46.7237      46.7237 
  299000    91.506324   -11409.153   -10531.947    -433.5071     102002.7      46.7237      46.7237      46.7237 
  300000    89.328744   -11406.954   -10550.623    -687.4107     102002.7      46.7237      46.7237      46.7237 
  301000    88.113747   -11441.448   -10596.764    -672.5399     102002.7      46.7237      46.7237      46.7237 
  302000    93.032884     -11424.3    -10532.46   -616.85858     102002.7      46.7237      46.7237      46.7237 
  303000    90.510115   -11415.986    -10548.33   -470.10351     102002.7      46.7237      46.7237      46.7237 
  304000    90.067998   -11423.703   -10560.286   -635.63232     102002.7      46.7237      46.7237      46.7237 
  305000    91.642191   -11409.496   -10530.988   -753.08018     102002.7      46.7237      46.7237      46.7237 
  306000    91.702641   -11379.698    -10500.61   -727.26254     102002.7      46.7237      46.7237      46.7237 
  307000    88.869283   -11394.039   -10542.113   -110.89105     102002.7      46.7237      46.7237      46.7237 
  308000    89.619667   -11405.777   -10546.657   -667.39257     102002.7      46.7237      46.7237      46.7237 
  309000    90.349637   -11420.749   -10554.631   -587.27795     102002.7      46.7237      46.7237      46.7237 
  310000    90.074195   -11390.169   -10526.692   -385.93024     102002.7      46.7237      46.7237      46.7237 
  311000    91.376951   -11430.323   -10554.357     -529.915     102002.7      46.7237      46.7237      46.7237 
  312000    89.297432   -11402.915   -10546.884   -389.36021     102002.7      46.7237      46.7237      46.7237 
  313000    92.240367   -11399.275   -10515.032   -208.00533     102002.7      46.7237      46.7237      46.7237 
  314000     91.43947   -11431.315    -10554.75   -366.89184     102002.7      46.7237      46.7237      46.7237 
  315000    91.250318   -11403.665   -10528.913   -237.92204     102002.7      46.7237      46.7237      46.7237 
  316000    92.014537   -11404.122   -10522.044   -315.09301     102002.7      46.7237      46.7237      46.7237 
  317000    88.329266   -11423.616   -10576.866   -332.50885     102002.7      46.7237      46.7237      46.7237 
  318000    91.919615   -11412.339   -10531.171   -330.29498     102002.7      46.7237      46.7237      46.7237 
  319000    91.099209     -11436.6   -10563.297   -506.93677     102002.7      46.7237      46.7237      46.7237 
  320000    92.519385   -11403.414   -10516.496   -447.31193     102002.7      46.7237      46.7237      46.7237 
  321000    89.944587   -11404.494   -10542.259   -588.50416     102002.7      46.7237      46.7237      46.7237 
  322000    90.258168   -11420.253   -10555.012   -860.59025     102002.7      46.7237      46.7237      46.7237 
  323000     90.01567   -11439.704   -10576.788   -632.14226     102002.7      46.7237      46.7237      46.7237 
  324000    89.439103   -11415.623   -10558.234   -518.20685     102002.7      46.7237      46.7237      46.7237 
  325000     92.42901   -11430.929   -10544.878   -574.80715     102002.7      46.7237      46.7237      46.7237 
  326000    89.627411   -11420.862   -10561.668   -435.15126     102002.7      46.7237      46.7237      46.7237 
  327000    90.385065   -11418.779   -10552.322   -650.00979     102002.7      46.7237      46.7237      46.7237 
  328000    93.257894   -11414.606   -10520.609   -698.91473     102002.7      46.7237      46.7237      46.7237 
  329000    90.609128   -11428.747   -10560.142   -724.19709     102002.7      46.7237      46.7237      46.7237 
  330000    87.679032   -11413.801   -10573.285    -431.6001     102002.7      46.7237      46.7237      46.7237 
  331000    90.335491   -11399.744   -10533.762   -644.07131     102002.7      46.7237      46.7237      46.7237 
  332000    92.759748   -11422.376   -10533.155   -602.36768     102002.7      46.7237      46.7237      46.7237 
  333000    91.676519    -11408.82   -10529.983   -605.48563     102002.7      46.7237      46.7237      46.7237 
  334000    91.635591   -11415.663   -10537.218   -308.27548     102002.7      46.7237      46.7237      46.7237 
  335000    89.783889   -11407.908   -10547.214   -337.48216     102002.7      46.7237      46.7237      46.7237 
  336000    90.288983   -11413.668   -10548.132    -263.5448     102002.7      46.7237      46.7237      46.7237 
  337000    91.733537   -11425.217   -10545.834   -151.32662     102002.7      46.7237      46.7237      46.7237 
  338000     89.08283   -11427.485   -10573.511   -297.70062     102002.7      46.7237      46.7237      46.7237 
  339000    91.513229   -11447.901    -10570.63   -423.28618     102002.7      46.7237      46.7237      46.7237 
  340000    90.748453   -11405.169   -10535.229   -108.62636     102002.7      46.7237      46.7237      46.7237 
  341000     90.35952   -11432.866   -10566.654   -474.94073     102002.7      46.7237      46.7237      46.7237 
  342000    89.465441   -11413.248   -10555.607   -224.06239     102002.7      46.7237      46.7237      46.7237 
  343000    91.297199   -11419.894   -10544.693   -269.31397     102002.7      46.7237      46.7237      46.7237 
  344000    89.976719   -11429.768   -10567.225   -700.91268     102002.7      46.7237      46.7237      46.7237 
  345000    92.841039    -11420.42    -10530.42   -413.83364     102002.7      46.7237      46.7237      46.7237 
  346000     87.61346   -11435.086   -10595.198   -711.15077     102002.7      46.7237      46.7237      46.7237 
  347000    91.015782   -11431.088   -10558.585   -671.49587     102002.7      46.7237      46.7237      46.7237 
  348000    91.197416   -11418.577   -10544.333   -273.99455     102002.7      46.7237      46.7237      46.7237 
  349000     92.74043   -11421.801   -10532.765   -267.36744     102002.7      46.7237      46.7237      46.7237 
  350000    91.245539    -11418.09   -10543.385   -615.24701     102002.7      46.7237      46.7237      46.7237 
  351000    89.682443   -11422.217   -10562.496   -475.87052     102002.7      46.7237      46.7237      46.7237 
  352000     92.31897   -11413.814   -10528.818   -406.90991     102002.7      46.7237      46.7237      46.7237 
  353000    89.808765    -11439.23   -10578.297   -193.75894     102002.7      46.7237      46.7237      46.7237 
  354000    91.330122   -11418.165   -10542.648   -615.29339     102002.7      46.7237      46.7237      46.7237 
  355000    89.454918   -11454.659   -10597.119   -524.34135     102002.7      46.7237      46.7237      46.7237 
  356000    90.157198   -11401.449   -10537.176   -638.37099     102002.7      46.7237      46.7237      46.7237 
  357000    88.223611    -11424.47   -10578.733   -427.19416     102002.7      46.7237      46.7237      46.7237 
  358000    92.215489   -11410.814    -10526.81   -433.97215     102002.7      46.7237      46.7237      46.7237 
  359000    90.262476    -11410.33   -10545.048   -325.64389     102002.7      46.7237      46.7237      46.7237 
  360000    91.480142   -11431.357   -10554.402   -401.92747     102002.7      46.7237      46.7237      46.7237 
  361000     90.55908   -11434.053   -10565.928   -510.59275     102002.7      46.7237      46.7237      46.7237 
  362000    89.943923   -11404.522   -10542.294   -439.24561     102002.7      46.7237      46.7237      46.7237 
  363000    90.572629   -11436.099   -10567.844   -624.94038     102002.7      46.7237      46.7237      46.7237 
  364000    89.063556   -11430.791   -10577.002   -399.18138     102002.7      46.7237      46.7237      46.7237 
  365000    88.151803   -11407.814   -10562.766   -508.97082     102002.7      46.7237      46.7237      46.7237 
  366000    90.811507   -11440.923   -10570.378   -345.28701     102002.7      46.7237      46.7237      46.7237 
  367000    90.882802   -11429.103   -10557.875   -459.76288     102002.7      46.7237      46.7237      46.7237 
  368000    90.445684    -11429.15   -10562.112   -539.11233     102002.7      46.7237      46.7237      46.7237 
  369000    91.355348   -11441.338    -10565.58   -488.83506     102002.7      46.7237      46.7237      46.7237 
  370000     91.80812   -11408.566   -10528.467   -555.11812     102002.7      46.7237      46.7237      46.7237 
  371000    93.167311   -11417.232   -10524.104   -601.02156     102002.7      46.7237      46.7237      46.7237 
  372000    90.670909   -11434.795   -10565.598   -531.48898     102002.7      46.7237      46.7237      46.7237 
  373000    89.271658   -11438.944    -10583.16   -719.37516     102002.7      46.7237      46.7237      46.7237 
  374000    90.609633   -11431.806   -10563.196   -373.20899     102002.7      46.7237      46.7237      46.7237 
  375000     89.48502    -11414.47   -10556.641   -251.96233     102002.7      46.7237      46.7237      46.7237 
  376000    89.199616   -11429.564   -10574.471   -768.06547     102002.7      46.7237      46.7237      46.7237 
  377000    92.104551   -11430.043   -10547.102   -742.21107     102002.7      46.7237      46.7237      46.7237 
  378000    90.111914   -11415.945   -10552.107   -346.35307     102002.7      46.7237      46.7237      46.7237 
  379000    90.406047   -11391.746   -10525.088   -360.78771     102002.7      46.7237      46.7237      46.7237 
  380000    92.087154   -11426.405   -10543.631   -408.50934     102002.7      46.7237      46.7237      46.7237 
  381000    91.735663   -11406.076   -10526.672   -401.47858     102002.7      46.7237      46.7237      46.7237 
  382000    90.344788   -11419.897   -10553.826   -634.40505     102002.7      46.7237      46.7237      46.7237 
  383000    92.026038   -11445.221   -10563.033    -420.1867     102002.7      46.7237      46.7237      46.7237 
  384000    91.824176   -11426.811   -10546.558   -468.59198     102002.7      46.7237      46.7237      46.7237 
  385000     92.41864   -11427.724   -10541.773   -403.84942     102002.7      46.7237      46.7237      46.7237 
  386000    92.056013    -11427.88   -10545.405    -517.9161     102002.7      46.7237      46.7237      46.7237 
  387000     90.78739    -11439.67   -10569.356    -465.3243     102002.7      46.7237      46.7237      46.7237 
  388000     90.79521    -11441.16   -10570.771   -424.18233     102002.7      46.7237      46.7237      46.7237 
  389000    89.132366   -11440.592   -10586.144   -538.66325     102002.7      46.7237      46.7237      46.7237 
  390000    91.995741   -11437.866   -10555.969   -490.77821     102002.7      46.7237      46.7237      46.7237 
  391000    89.626349   -11425.181   -10565.997   -523.37388     102002.7      46.7237      46.7237      46.7237 
  392000    89.707362   -11436.403   -10576.442   -634.32639     102002.7      46.7237      46.7237      46.7237 
  393000    91.526375   -11413.183   -10535.786   -526.43957     102002.7      46.7237      46.7237      46.7237 
  394000     91.41594   -11431.028   -10554.688   -407.50421     102002.7      46.7237      46.7237      46.7237 
  395000     91.39028   -11418.557   -10542.464   -269.38881     102002.7      46.7237      46.7237      46.7237 
  396000    91.227934   -11453.863   -10579.326   -311.98214     102002.7      46.7237      46.7237      46.7237 
  397000    91.440467   -11426.374   -10549.799    155.91762     102002.7      46.7237      46.7237      46.7237 
  398000    90.809675   -11413.873   -10543.346   -656.62991     102002.7      46.7237      46.7237      46.7237 
  399000    91.049238   -11421.391   -10548.567   -522.44551     102002.7      46.7237      46.7237      46.7237 
  400000    92.528331   -11411.843    -10524.84   -437.52459     102002.7      46.7237      46.7237      46.7237 
  401000    90.389104   -11427.187   -10560.691   -363.70811     102002.7      46.7237      46.7237      46.7237 
  402000    89.707611   -11408.501   -10548.538   -680.66778     102002.7      46.7237      46.7237      46.7237 
  403000     89.51348   -11427.658   -10569.556   -595.85647     102002.7      46.7237      46.7237      46.7237 
  404000    91.196148    -11429.09   -10554.858   -281.96955     102002.7      46.7237      46.7237      46.7237 
  405000    89.498117   -11435.133   -10577.179   -380.32573     102002.7      46.7237      46.7237      46.7237 
  406000    91.001754   -11406.031   -10533.663   -337.59114     102002.7      46.7237      46.7237      46.7237 
  407000    89.503565   -11435.758   -10577.752   -305.33353     102002.7      46.7237      46.7237      46.7237 
  408000    89.575816   -11396.732   -10538.032    -373.8583     102002.7      46.7237      46.7237      46.7237 
  409000    90.277621   -11439.732   -10574.305   -729.19695     102002.7      46.7237      46.7237      46.7237 
  410000    89.716389   -11426.916   -10566.869   -357.63082     102002.7      46.7237      46.7237      46.7237 
  411000    88.793113   -11419.522   -10568.326   -490.00548     102002.7      46.7237      46.7237      46.7237 
  412000    91.771751   -11422.184   -10542.434   -601.75222     102002.7      46.7237      46.7237      46.7237 
  413000    92.205281   -11408.993   -10525.087   -506.03811     102002.7      46.7237      46.7237      46.7237 
  414000    90.406687   -11417.804    -10551.14   -850.81139     102002.7      46.7237      46.7237      46.7237 
  415000    92.609274   -11425.174   -10537.395   -356.51987     102002.7      46.7237      46.7237      46.7237 
  416000    94.533088   -11402.103   -10495.882   -198.12343     102002.7      46.7237      46.7237      46.7237 
  417000    90.758531   -11419.123   -10549.086   -524.37061     102002.7      46.7237      46.7237      46.7237 
  418000     91.87936   -11423.435   -10542.654   -360.97334     102002.7      46.7237      46.7237      46.7237 
  419000    90.659668   -11415.991   -10546.901   -513.28996     102002.7      46.7237      46.7237      46.7237 
  420000     90.45562   -11406.681   -10539.548   -515.41065     102002.7      46.7237      46.7237      46.7237 
  421000    89.696462       -11433   -10573.145   -152.75753     102002.7      46.7237      46.7237      46.7237 
  422000    90.650563   -11413.759   -10544.757   -361.36734     102002.7      46.7237      46.7237      46.7237 
  423000    92.142601   -11440.959   -10557.653    -599.2677     102002.7      46.7237      46.7237      46.7237 
  424000    90.633857   -11415.768   -10546.926   -291.05291     102002.7      46.7237      46.7237      46.7237 
  425000    91.023382   -11402.844   -10530.268   -251.45167     102002.7      46.7237      46.7237      46.7237 
  426000    90.157783   -11415.801   -10551.523   -419.48081     102002.7      46.7237      46.7237      46.7237 
  427000    89.429726   -11410.472   -10553.173   -578.51062     102002.7      46.7237      46.7237      46.7237 
  428000    91.864859   -11416.775   -10536.133   -714.91803     102002.7      46.7237      46.7237      46.7237 
  429000    91.661591   -11400.669   -10521.975   -354.20589     102002.7      46.7237      46.7237      46.7237 
  430000    89.299353   -11407.341   -10551.292   -754.49581     102002.7      46.7237      46.7237      46.7237 
  431000    90.001052   -11432.179   -10569.403   -544.55247     102002.7      46.7237      46.7237      46.7237 
  432000    89.953714    -11426.81   -10564.488   -539.04658     102002.7      46.7237      46.7237      46.7237 
  433000    89.861845   -11447.674   -10586.233   -705.39984     102002.7      46.7237      46.7237      46.7237 
  434000    91.170146   -11412.351   -10538.368   -214.31519     102002.7      46.7237      46.7237      46.7237 
  435000    90.751345   -11439.916   -10569.948    -331.8801     102002.7      46.7237      46.7237      46.7237 
  436000    92.227426   -11411.381   -10527.263   -764.29851     102002.7      46.7237      46.7237      46.7237 
  437000    91.418043   -11415.626   -10539.267   -495.30812     102002.7      46.7237      46.7237      46.7237 
  438000    89.085668   -11409.026   -10555.025   -524.11687     102002.7      46.7237      46.7237      46.7237 
  439000    89.977639   -11440.135   -10577.584   -816.86895     102002.7      46.7237      46.7237      46.7237 
  440000    90.811548   -11414.278   -10543.733   -445.54741     102002.7      46.7237      46.7237      46.7237 
  441000    89.672048   -11432.183   -10572.561   -506.49578     102002.7      46.7237      46.7237      46.7237 
  442000    90.222782   -11435.684   -10570.783   -662.87496     102002.7      46.7237      46.7237      46.7237 
  443000    90.229377   -11427.384   -10562.419   -753.98664     102002.7      46.7237      46.7237      46.7237 
  444000    90.653907   -11439.137   -10570.102   -605.38182     102002.7      46.7237      46.7237      46.7237 
  445000    89.285974   -11428.923   -10573.002    -615.9845     102002.7      46.7237      46.7237      46.7237 
  446000    90.843656   -11436.839   -10565.986   -503.96977     102002.7      46.7237      46.7237      46.7237 
  447000    91.449067   -11405.849   -10529.193    -389.6929     102002.7      46.7237      46.7237      46.7237 
  448000    89.420921   -11414.718   -10557.504   -557.11187     102002.7      46.7237      46.7237      46.7237 
  449000    89.372495   -11426.332   -10569.582   -502.29255     102002.7      46.7237      46.7237      46.7237 
  450000    92.788034   -11415.559   -10526.066   -750.51412     102002.7      46.7237      46.7237      46.7237 
  451000    91.438547   -11420.091   -10543.535   -697.93199     102002.7      46.7237      46.7237      46.7237 
  452000    91.174812   -11401.794   -10527.766   -537.22371     102002.7      46.7237      46.7237      46.7237 
  453000    90.330566   -11430.125    -10564.19   -601.09088     102002.7      46.7237      46.7237      46.7237 
  454000     92.88158    -11406.73   -10516.341   -602.28792     102002.7      46.7237      46.7237      46.7237 
  455000    90.413337   -11443.682   -10576.954   -313.66702     102002.7      46.7237      46.7237      46.7237 
  456000    89.011118    -11397.13   -10543.844   -625.26537     102002.7      46.7237      46.7237      46.7237 
  457000    92.711852   -11419.231   -10530.469   -847.61221     102002.7      46.7237      46.7237      46.7237 
  458000    92.766555   -11432.746   -10543.459   -278.57588     102002.7      46.7237      46.7237      46.7237 
  459000    88.314932   -11393.631   -10547.019   -515.89869     102002.7      46.7237      46.7237      46.7237 
  460000    90.327188   -11394.959   -10529.057   -585.49695     102002.7      46.7237      46.7237      46.7237 
  461000    89.191767   -11394.118     -10539.1   -256.67247     102002.7      46.7237      46.7237      46.7237 
  462000    90.109243   -11410.156   -10546.343    -627.2327     102002.7      46.7237      46.7237      46.7237 
  463000    89.338812   -11407.285   -10550.857   -390.39645     102002.7      46.7237      46.7237      46.7237 
  464000    91.436935   -11414.259   -10537.718     -472.697     102002.7      46.7237      46.7237      46.7237 
  465000    91.182554   -11416.857   -10542.755   -544.22321     102002.7      46.7237      46.7237      46.7237 
  466000     89.34443   -11425.693   -10569.212   -724.34136     102002.7      46.7237      46.7237      46.7237 
  467000    90.018585   -11400.471   -10537.528   -578.02384     102002.7      46.7237      46.7237      46.7237 
  468000    89.411502   -11432.624     -10575.5   -460.26311     102002.7      46.7237      46.7237      46.7237 
  469000     91.52975   -11419.331     -10541.9   -582.46244     102002.7      46.7237      46.7237      46.7237 
  470000    90.883258   -11418.984   -10547.751   -572.49202     102002.7      46.7237      46.7237      46.7237 
  471000    90.648613   -11440.542   -10571.559   -451.57604     102002.7      46.7237      46.7237      46.7237 
  472000    88.637037   -11418.967   -10569.267   -699.68458     102002.7      46.7237      46.7237      46.7237 
  473000    91.185145   -11428.739   -10554.613   -405.23742     102002.7      46.7237      46.7237      46.7237 
  474000    90.030178   -11414.334   -10551.279   -443.75053     102002.7      46.7237      46.7237      46.7237 
  475000    90.464603   -11417.031   -10549.811   -516.17487     102002.7      46.7237      46.7237      46.7237 
  476000     91.26788   -11430.899   -10555.979   -433.61238     102002.7      46.7237      46.7237      46.7237 
  477000    93.029849   -11430.751    -10538.94   -401.65197     102002.7      46.7237      46.7237      46.7237 
  478000    89.911761   -11423.056   -10561.136   -495.60025     102002.7      46.7237      46.7237      46.7237 
  479000     90.86942   -11394.496   -10523.395   -613.76852     102002.7      46.7237      46.7237      46.7237 
  480000    88.313725   -11436.708   -10590.107   -576.92599     102002.7      46.7237      46.7237      46.7237 
  481000    90.656922   -11427.199   -10558.136   -743.69224     102002.7      46.7237      46.7237      46.7237 
  482000    91.088348    -11443.94   -10570.742   -880.39855     102002.7      46.7237      46.7237      46.7237 
  483000    91.613401   -11391.713   -10513.481   -945.79234     102002.7      46.7237      46.7237      46.7237 
  484000     89.79945   -11420.184   -10559.341   -835.36393     102002.7      46.7237      46.7237      46.7237 
  485000    93.468638   -11423.059   -10527.042   -638.72069     102002.7      46.7237      46.7237      46.7237 
  486000    91.019797   -11440.444   -10567.902   -737.25255     102002.7      46.7237      46.7237      46.7237 
  487000    92.337139   -11448.199   -10563.028   -519.97534     102002.7      46.7237      46.7237      46.7237 
  488000    89.272109   -11428.498    -10572.71   -545.12829     102002.7      46.7237      46.7237      46.7237 
  489000    89.163725   -11417.253   -10562.504   -456.47614     102002.7      46.7237      46.7237      46.7237 
  490000      91.0119   -11415.163   -10542.697   -444.08246     102002.7      46.7237      46.7237      46.7237 
  491000    91.232328   -11412.033   -10537.454   -567.57617     102002.7      46.7237      46.7237      46.7237 
  492000    89.082521   -11410.909   -10556.938   -583.09003     102002.7      46.7237      46.7237      46.7237 
  493000    90.732875   -11401.569   -10531.777   -573.63066     102002.7      46.7237      46.7237      46.7237 
  494000    91.485269   -11434.796   -10557.792   -548.24793     102002.7      46.7237      46.7237      46.7237 
  495000    91.454033   -11409.294   -10532.589   -544.85241     102002.7      46.7237      46.7237      46.7237 
  496000    92.158535   -11428.804   -10545.346   -747.98873     102002.7      46.7237      46.7237      46.7237 
  497000    91.415398   -11410.301   -10533.967   -802.57593     102002.7      46.7237      46.7237      46.7237 
  498000    87.566612   -11428.499    -10589.06   -734.84759     102002.7      46.7237      46.7237      46.7237 
  499000    88.408084     -11426.7   -10579.195   -619.58708     102002.7      46.7237      46.7237      46.7237 
  500000     92.32772   -11441.812   -10556.732   -542.01928     102002.7      46.7237      46.7237      46.7237 
  500500    92.203257   -11427.457    -10543.57   -621.33928     102002.7      46.7237      46.7237      46.7237 
Loop time of 1784.36 on 16 procs for 500000 steps with 3217 atoms

Performance: 24.210 ns/day, 0.991 hours/ns, 280.212 timesteps/s
99.9% CPU use with 16 MPI tasks x no OpenMP threads

MPI task timing breakdown:
Section |  min time  |  avg time  |  max time  |%varavg| %total
---------------------------------------------------------------
Pair    | 834.43     | 1158.8     | 1358.1     | 435.3 | 64.94
Bond    | 141.66     | 174.84     | 200.01     | 147.1 |  9.80
Neigh   | 14.388     | 14.417     | 14.436     |   0.4 |  0.81
Comm    | 228.56     | 419.38     | 776.98     | 759.0 | 23.50
Output  | 0.021369   | 0.022187   | 0.026351   |   0.8 |  0.00
Modify  | 9.3181     | 10.125     | 10.804     |  11.7 |  0.57
Other   |            | 6.813      |            |       |  0.38

Nlocal:    201.062 ave 225 max 170 min
Histogram: 1 0 3 1 1 1 4 1 3 1
Nghost:    4046.44 ave 4079 max 4003 min
Histogram: 1 0 2 1 3 2 1 2 2 2
Neighs:    11438.1 ave 16321 max 6458 min
Histogram: 3 1 1 1 0 2 2 3 2 1

Total # of neighbors = 183010
Ave neighs/atom = 56.8884
Ave special neighs/atom = 3.58098
Neighbor list builds = 4178
Dangerous builds = 0
Neighbor list info ...
  update every 1 steps, delay 10 steps, check yes
  max neighbors/atom: 2000, page size: 100000
  master list distance cutoff = 16
  ghost atom cutoff = 16
  binsize = 8, bins = 6 6 6
  3 neighbor lists, perpetual/occasional/extra = 3 0 0
  (1) pair buck6d/coul/gauss/dsf, perpetual, skip from (3)
      attributes: half, newton on
      pair build: skip
      stencil: none
      bin: none
  (2) pair lj/cut, perpetual, skip from (3)
      attributes: half, newton on
      pair build: skip
      stencil: none
      bin: none
  (3) neighbor class addition, perpetual
      attributes: half, newton on
      pair build: half/bin/newton
      stencil: half/bin/3d/newton
      bin: standard
Setting up Verlet run ...
  Unit style    : real
  Current step  : 500500
  Time step     : 1
WARNING: Inconsistent image flags (../domain.cpp:786)
Per MPI rank memory allocation (min/avg/max) = 22.79 | 23.16 | 23.44 Mbytes
Step Time TotEng KinEng PotEng E_mol E_pair Temp Pxx Pyy Pzz Pxy Pxz Pyz Cella Cellb Cellc CellAlpha CellBeta CellGamma Volume Press 
  500500       500000    -10543.57    883.88671   -11427.457    4195.8881   -15623.345    92.203257   -520.36072   -598.39895   -745.25818   -78.534549   -136.52303    190.16113      46.7237      46.7237      46.7237           90           90           90     102002.7   -621.33928 
  501000       500500   -10522.938    886.41951   -11409.357     4212.455   -15621.812    92.467468   -198.86779    -1272.243   -251.05476   -88.459967   -155.09879   -58.071716      46.7237      46.7237      46.7237           90           90           90     102002.7    -574.0552 
  502000       501500   -10536.081    880.59115   -11416.672    4194.9537   -15611.626    91.859478   -490.83414   -556.84391   -344.44971     36.47154   -34.208398     -130.247      46.7237      46.7237      46.7237           90           90           90     102002.7   -464.04259 
  503000       502500   -10540.816    890.06222   -11430.879    4188.2839   -15619.163    92.847459   -450.81204   -272.69333   -250.41188   -37.386279   -19.031012   -133.33766      46.7237      46.7237      46.7237           90           90           90     102002.7   -324.63908 
  504000       503500   -10550.148    878.49594   -11428.644    4187.3393   -15615.983    91.640915   -854.92763   -655.10768   -123.20266   -33.326146    4.7730107    101.60652      46.7237      46.7237      46.7237           90           90           90     102002.7   -544.41266 
  505000       504500   -10542.593    874.55417   -11417.147    4193.8221   -15610.969    91.229726   -747.74234   -489.05879   -505.72801    193.86517   -169.83528    201.99504      46.7237      46.7237      46.7237           90           90           90     102002.7   -580.84304 
  506000       505500   -10579.639    855.91568   -11435.554    4173.4888   -15609.043    89.285439    -985.3078   -413.26541    -608.6035    87.741875    14.886876   -22.833966      46.7237      46.7237      46.7237           90           90           90     102002.7   -669.05891 
  507000       506500   -10516.789    885.71642   -11402.506    4203.9355   -15606.441    92.394125   -402.88823   -301.40772   -585.42524    103.81247   -50.633205   -299.57433      46.7237      46.7237      46.7237           90           90           90     102002.7   -429.90706 
  508000       507500   -10558.687    863.18513   -11421.872    4188.2697   -15610.142    90.043757   -290.44709   -551.66053   -681.98737    55.580578   -28.914524    23.788579      46.7237      46.7237      46.7237           90           90           90     102002.7   -508.03166 
  509000       508500   -10536.676    878.32189   -11414.998    4190.4091   -15605.407    91.622758   -758.55669    -638.0048   -517.25164   -48.689495   -5.3371654   -54.274923      46.7237      46.7237      46.7237           90           90           90     102002.7   -637.93771 
  510000       509500    -10602.42    848.11179   -11450.532    4174.6534   -15625.186    88.471371   -360.54645   -733.77908   -524.97711    95.357939    159.34009    -50.71703      46.7237      46.7237      46.7237           90           90           90     102002.7   -539.76754 
  511000       510500   -10550.377    865.96169   -11416.339    4184.1766   -15600.516    90.333396   -699.48895   -668.70567   -800.80904    198.30822    48.272332    111.70717      46.7237      46.7237      46.7237           90           90           90     102002.7   -723.00122 
  512000       511500   -10568.008    848.54215    -11416.55    4196.9196    -15613.47    88.516265   -383.83257   -648.31761   -541.62398   -139.05835   -3.8085763   -25.403068      46.7237      46.7237      46.7237           90           90           90     102002.7   -524.59139 
  513000       512500   -10546.295    875.65992   -11421.955    4189.7951    -15611.75    91.345074   -487.97976   -583.97028    -391.5909   -160.08222   -34.313535   -38.292489      46.7237      46.7237      46.7237           90           90           90     102002.7   -487.84698 
  514000       513500   -10520.237    889.09752   -11409.335    4205.6543   -15614.989    92.746827    -231.8031   -196.72185   -833.49253   -109.70826   -25.442108    83.789213      46.7237      46.7237      46.7237           90           90           90     102002.7    -420.6725 
  515000       514500   -10524.898    885.68152   -11410.579     4192.165   -15602.744    92.390484   -462.85431    -595.7502   -563.03543   -50.337832   -297.62995   -45.433954      46.7237      46.7237      46.7237           90           90           90     102002.7   -540.54665 
  516000       515500   -10588.796    854.40779   -11443.204    4178.1397   -15621.344    89.128143   -723.67742   -528.00776   -730.04515     53.09053    166.05619   -85.845781      46.7237      46.7237      46.7237           90           90           90     102002.7   -660.57678 
  517000       516500   -10516.679    896.10241   -11412.782    4207.8971   -15620.679    93.477546   -603.77093   -969.16095   -597.72531    119.20479   -1.8848435   -72.895954      46.7237      46.7237      46.7237           90           90           90     102002.7    -723.5524 
  518000       517500   -10574.973    838.14592   -11413.119    4205.3473   -15618.466    87.431775   -548.29782   -761.55206   -581.75712    163.73071   -273.60494   -133.66462      46.7237      46.7237      46.7237           90           90           90     102002.7   -630.53567 
  519000       518500   -10553.479    862.96022   -11416.439     4197.725   -15614.164    90.020295   -388.05227   -435.93615    51.906158    242.30142    172.41713    100.31814      46.7237      46.7237      46.7237           90           90           90     102002.7   -257.36076 
  520000       519500   -10534.993    881.16012   -11416.153    4194.5079   -15610.661    91.918831   -560.99625   -292.88766   -741.99298    -33.15132   -152.23796   -271.42581      46.7237      46.7237      46.7237           90           90           90     102002.7   -531.95896 
  521000       520500    -10535.19    882.59216   -11417.782    4181.7361   -15599.518    92.068215   -780.42251   -607.93174   -696.30387    207.76716   -82.028051   -204.01733      46.7237      46.7237      46.7237           90           90           90     102002.7   -694.88604 
  522000       521500   -10527.261     877.2846   -11404.546    4196.0894   -15600.635    91.514553   -353.99129     81.47348    39.109015    136.90483   -66.261749   -21.167626      46.7237      46.7237      46.7237           90           90           90     102002.7   -77.802931 
  523000       522500     -10551.3    876.46252   -11427.762    4181.1887   -15608.951    91.428797   -551.63627   -353.86587   -606.47068    130.09707   -141.03837   -25.843613      46.7237      46.7237      46.7237           90           90           90     102002.7   -503.99094 
  524000       523500   -10553.025    862.55375   -11415.579    4195.4106   -15610.989    89.977894   -586.75513   -293.73622   -296.50563    139.96722    102.16924    30.205915      46.7237      46.7237      46.7237           90           90           90     102002.7   -392.33233 
  525000       524500   -10589.995    842.88458    -11432.88    4190.4008    -15623.28    87.926092   -699.05643   -514.73733   -195.23971   -120.48549   -8.8784062    144.48044      46.7237      46.7237      46.7237           90           90           90     102002.7   -469.67782 
  526000       525500   -10543.019     892.4938   -11435.512    4180.0291   -15615.541    93.101111   -641.73103   -1050.6214   -680.40589   -193.80969   -121.74895   -265.93775      46.7237      46.7237      46.7237           90           90           90     102002.7   -790.91942 
  527000       526500   -10531.364    874.12643   -11405.491    4198.8594    -15604.35    91.185107   -937.81288   -548.50731   -714.41533   -46.590435    253.89126   -134.80512      46.7237      46.7237      46.7237           90           90           90     102002.7    -733.5785 
  528000       527500   -10549.848    875.66067   -11425.509    4182.0356   -15607.545    91.345152   -704.11053   -602.62571   -789.94178    275.47474    44.034193    73.501158      46.7237      46.7237      46.7237           90           90           90     102002.7   -698.89268 
  529000       528500   -10564.391    867.80883   -11432.199     4199.704   -15631.903    90.526082   -810.65948   -575.59476   -1021.3528    94.829708    145.10992    164.21497      46.7237      46.7237      46.7237           90           90           90     102002.7   -802.53567 
  530000       529500   -10534.263    880.95703    -11415.22    4212.8328   -15628.053    91.897645   -696.23499   -530.98262   -871.38194    126.42672    9.8362732    160.73067      46.7237      46.7237      46.7237           90           90           90     102002.7   -699.53318 
  531000       530500   -10577.576     849.9743    -11427.55    4194.3739   -15621.924    88.665661   -708.24644   -796.19405   -729.47382   -83.464429   -198.32825   -6.7897214      46.7237      46.7237      46.7237           90           90           90     102002.7    -744.6381 
  532000       531500   -10537.899    886.34718   -11424.247    4192.7985   -15617.045    92.459923   -619.43908   -190.04725   -629.52142    69.790561    6.9467447    82.837351      46.7237      46.7237      46.7237           90           90           90     102002.7   -479.66925 
  533000       532500   -10525.348    900.03822   -11425.386    4199.5242   -15624.911    93.888113   -441.69481   -594.61936   -825.54185   -66.573206    15.214029   -256.12156      46.7237      46.7237      46.7237           90           90           90     102002.7   -620.61867 
  534000       533500   -10530.688    860.78884   -11391.477    4214.4301   -15605.907    89.793786   -422.51454    -699.3892    -164.1462    31.004271    8.2591122    182.28933      46.7237      46.7237      46.7237           90           90           90     102002.7   -428.68331 
  535000       534500   -10561.286    834.35788   -11395.643     4211.974   -15607.617    87.036622   -353.50386   -454.27212   -548.34968   -82.487155    -72.72177    -87.78774      46.7237      46.7237      46.7237           90           90           90     102002.7   -452.04188 
  536000       535500   -10526.349    873.67675   -11400.026    4209.6414   -15609.667    91.138198    -147.2782   -1270.5473   -711.85183    81.684116    115.27247   -50.388612      46.7237      46.7237      46.7237           90           90           90     102002.7   -709.89246 
  537000       536500   -10554.788    866.58557   -11421.373    4203.6226   -15624.996    90.398476   -504.63819   -813.48002   -747.86151     15.12232   -29.843597   -49.612072      46.7237      46.7237      46.7237           90           90           90     102002.7   -688.65991 
  538000       537500   -10536.841    881.89427   -11418.736    4195.3919   -15614.127    91.995414   -230.84354   -798.52626   -540.86444    94.493142  -0.99652917   -2.0261363      46.7237      46.7237      46.7237           90           90           90     102002.7   -523.41141 
  539000       538500     -10529.6    875.65581   -11405.256    4195.3545    -15600.61    91.344644   -596.91738   -361.61227   -256.83198   -73.783469   -38.251113    173.78503      46.7237      46.7237      46.7237           90           90           90     102002.7   -405.12054 
  540000       539500   -10510.613    895.61464   -11406.228    4198.8546   -15605.083    93.426665   -490.15755   -324.69165   -351.14056   -142.11761   -33.182217    181.55696      46.7237      46.7237      46.7237           90           90           90     102002.7   -388.66325 
  541000       540500   -10507.656    882.61226   -11390.268    4208.6792   -15598.947    92.070312   -421.07826    -753.6961   -821.19496   -74.947527    114.72329    11.646395      46.7237      46.7237      46.7237           90           90           90     102002.7    -665.3231 
  542000       541500   -10527.751    875.65004   -11403.401    4219.5918   -15622.993    91.344043   -765.35102   -751.19816   -303.91357   -116.41404    85.469729   -150.48125      46.7237      46.7237      46.7237           90           90           90     102002.7   -606.82092 
  543000       542500   -10556.897    867.81601   -11424.713    4188.8205   -15613.533    90.526831   -444.48952   -601.35699    -628.6727    59.796397   -183.76247    177.48066      46.7237      46.7237      46.7237           90           90           90     102002.7   -558.17307 
  544000       543500   -10543.464    863.12011   -11406.584    4208.7239   -15615.308    90.036975   -795.72349   -664.44602   -839.41936   -28.204659   -9.3065526     11.01041      46.7237      46.7237      46.7237           90           90           90     102002.7   -766.52962 
  545000       544500   -10539.125    890.84868   -11429.973    4215.3775   -15645.351      92.9295   -271.37197   -885.14941   -404.74772   -55.063576     22.65667   -240.69924      46.7237      46.7237      46.7237           90           90           90     102002.7   -520.42303 
  546000       545500   -10575.278    864.17714   -11439.455    4191.9681   -15631.423     90.14724   -733.29075   -596.70591   -710.33921   -5.1851987    91.501099   -124.66977      46.7237      46.7237      46.7237           90           90           90     102002.7   -680.11196 
  547000       546500   -10549.356     865.1035   -11414.459     4213.131    -15627.59    90.243873   -1189.1199   -501.27944   -339.51466    135.94708   -10.362174    141.52621      46.7237      46.7237      46.7237           90           90           90     102002.7   -676.63802 
  548000       547500   -10537.518    879.45049   -11416.968    4190.9944   -15607.963     91.74049   -702.94555   -209.45597   -1098.8035    70.330736    75.676375    88.892696      46.7237      46.7237      46.7237           90           90           90     102002.7   -670.40169 
  549000       548500   -10583.315     860.7151    -11444.03    4188.0442   -15632.074    89.786094   -822.16802   -708.57071   -770.11275    286.03649   -200.49664    71.883487      46.7237      46.7237      46.7237           90           90           90     102002.7   -766.95049 
  550000       549500   -10579.428    846.69799   -11426.126    4187.7018   -15613.827     88.32389   -469.64655   -655.29377   -792.34748   -42.458138    -188.0071    90.247696      46.7237      46.7237      46.7237           90           90           90     102002.7   -639.09593 
  551000       550500   -10528.416    881.38253   -11409.798    4201.9622   -15611.761    91.942032   -613.92687   -590.34228   -653.46514   -2.3396235   -35.468213    23.515333      46.7237      46.7237      46.7237           90           90           90     102002.7   -619.24476 
  552000       551500   -10552.932     875.5698   -11428.502    4206.5434   -15635.045    91.335673   -692.37043    -724.1385   -598.86264   -185.97864   -110.13081     123.6279      46.7237      46.7237      46.7237           90           90           90     102002.7   -671.79052 
  553000       552500   -10564.295    877.66025   -11441.955    4182.5343   -15624.489     91.55374   -947.75249   -736.78893   -405.66805    48.092597    7.3069678    29.108479      46.7237      46.7237      46.7237           90           90           90     102002.7   -696.73649 
  554000       553500   -10505.117    885.49322    -11390.61      4222.02    -15612.63    92.370841   -820.10001   -479.95734   -688.40229   -54.691457   -62.978844   -10.013664      46.7237      46.7237      46.7237           90           90           90     102002.7   -662.81988 
  555000       554500   -10566.749    861.64779   -11428.397    4175.5781   -15603.975    89.883388   -640.53877   -726.49708   -749.33094    45.872998   -66.396176    106.03947      46.7237      46.7237      46.7237           90           90           90     102002.7    -705.4556 
[...]
  936000       935500   -10561.014    874.47346   -11435.487    4171.0915   -15606.579    91.221308   -178.24173   -584.79092   -343.82827    37.004554   -186.15864   -136.71445      46.7237      46.7237      46.7237           90           90           90     102002.7   -368.95364 
  937000       936500    -10538.45    858.77997    -11397.23    4201.5244   -15598.755     89.58423     -171.016    -337.8856   -241.15589   -174.60505   -115.77326    42.016101      46.7237      46.7237      46.7237           90           90           90     102002.7   -250.01916 
  938000       937500    -10531.23    871.36947   -11402.599    4183.5717   -15586.171    90.897512   -90.921123    126.90079    -233.0808   -17.089842    24.085824   -165.50983      46.7237      46.7237      46.7237           90           90           90     102002.7   -65.700378 
  939000       938500   -10543.956    861.76817   -11405.724    4173.6815   -15579.405    89.895946   -388.94556   -589.11889   -228.94009   -185.91898    33.758699    77.906054      46.7237      46.7237      46.7237           90           90           90     102002.7   -402.33485 
  940000       939500   -10530.668    865.22191    -11395.89    4176.9572   -15572.847    90.256226   -531.08617   -194.34116   -300.25135   -166.83612    113.38612   -9.5808918      46.7237      46.7237      46.7237           90           90           90     102002.7   -341.89289 
  941000       940500   -10560.878    885.13809   -11446.016    4165.1492   -15611.165    92.333795   -565.88364   -469.26888   -368.43526   -129.34034   -22.534934    160.05897      46.7237      46.7237      46.7237           90           90           90     102002.7    -467.8626 
  942000       941500   -10528.886     882.0453   -11410.932    4187.1774   -15598.109    92.011169     22.76525   -880.08416   -360.16236   -70.367772   -124.41963    -346.1457      46.7237      46.7237      46.7237           90           90           90     102002.7   -405.82709 
  943000       942500    -10565.07    859.25765   -11424.328    4180.8711   -15605.199    89.634059   -155.06998   -588.23255   -321.49102    106.54718    1.3195056   -136.86314      46.7237      46.7237      46.7237           90           90           90     102002.7   -354.93118 
  944000       943500   -10541.894    885.69153   -11427.585    4173.3571   -15600.942    92.391528   -316.11154   -368.13756   -484.14571   -76.307452   -21.828362   -83.667936      46.7237      46.7237      46.7237           90           90           90     102002.7   -389.46494 
  945000       944500   -10563.759    864.99445   -11428.754    4194.9883   -15623.742    90.232498   -97.091952   -523.28712   -591.07143    26.220867    -146.4913   -6.9565973      46.7237      46.7237      46.7237           90           90           90     102002.7   -403.81683 
  946000       945500   -10527.899    886.68435   -11414.583    4169.4509   -15584.034    92.495095     197.8802   -159.78252     33.03305    19.560734    73.657354   -18.727255      46.7237      46.7237      46.7237           90           90           90     102002.7    23.710244 
  947000       946500    -10541.86    875.32412   -11417.184    4184.6671   -15601.851    91.310045   -262.74452   -569.38354   -149.69591    204.66953    40.690445   -70.439095      46.7237      46.7237      46.7237           90           90           90     102002.7   -327.27465 
  948000       947500   -10538.322    882.15689   -11420.479    4180.5242   -15601.003    92.022809   -426.46213   -362.20075   -281.98537    28.230645    76.033941   -243.98212      46.7237      46.7237      46.7237           90           90           90     102002.7   -356.88275 
  949000       948500   -10545.148    877.39779   -11422.546    4165.8953   -15588.441    91.526361   -317.64839   -517.12904   -305.26109   -76.593437    227.91105   -181.40993      46.7237      46.7237      46.7237           90           90           90     102002.7   -380.01284 
  950000       949500   -10581.978    849.58957   -11431.568     4177.583   -15609.151    88.625527   -245.68882   -1110.0445   -858.68186    -110.0273    369.54433    87.113947      46.7237      46.7237      46.7237           90           90           90     102002.7   -738.13838 
  951000       950500   -10526.039    869.67292   -11395.712    4189.6216   -15585.334    90.720536   -137.60654   -623.52713   -174.44489    95.211543   -39.681162   -1.6328399      46.7237      46.7237      46.7237           90           90           90     102002.7   -311.85952 
  952000       951500   -10525.031    862.42139   -11387.452    4199.6763   -15587.129    89.964087   -440.50586   -682.84799   -165.14183    198.63345    138.40271   -202.19624      46.7237      46.7237      46.7237           90           90           90     102002.7   -429.49856 
  953000       952500   -10508.228    889.80986   -11398.037    4196.9809   -15595.018    92.821134   -546.61487    -1020.438   -368.95816   -24.829304   -61.996774   -97.660277      46.7237      46.7237      46.7237           90           90           90     102002.7   -645.33702 
  954000       953500   -10548.864     858.9121   -11407.776    4184.5194   -15592.295    89.598013   -676.97435   -425.13211     46.38061    -43.67361   -138.64475   -35.284005      46.7237      46.7237      46.7237           90           90           90     102002.7   -351.90862 
  955000       954500   -10527.574    869.14462   -11396.718    4189.9272   -15586.645    90.665425   -571.86174   -74.855853   -898.59749   -279.81051    281.86303    81.375559      46.7237      46.7237      46.7237           90           90           90     102002.7   -515.10503 
  956000       955500   -10520.915    883.05833   -11403.974    4193.0459    -15597.02    92.116844   -323.17646   -250.20848   -61.723081    241.23307    161.07397    104.45997      46.7237      46.7237      46.7237           90           90           90     102002.7   -211.70267 
  957000       956500   -10514.115    888.03316   -11402.148    4193.1997   -15595.348    92.635797   -111.00839    147.20925    282.37275    122.63607   -122.51298    149.38615      46.7237      46.7237      46.7237           90           90           90     102002.7     106.1912 
  958000       957500   -10573.587    840.57879   -11414.166    4171.4453   -15585.611    87.685561   -658.03599   -394.65207   -659.44482   -131.64794   -66.137732    165.52418      46.7237      46.7237      46.7237           90           90           90     102002.7   -570.71096 
  959000       958500   -10552.999    871.80353   -11424.803    4169.0298   -15593.833    90.942792   -493.60599   -504.03451   -51.398316    106.20677    35.757484   -68.809459      46.7237      46.7237      46.7237           90           90           90     102002.7   -349.67961 
  960000       959500   -10531.536    883.86753   -11415.403    4180.0929   -15595.496    92.201256     -330.925   -497.43797   -16.915537   -161.76851   -50.520738   -53.505406      46.7237      46.7237      46.7237           90           90           90     102002.7    -281.7595 
  961000       960500   -10551.092    864.91422   -11416.006    4192.6964   -15608.703    90.224128   -445.23525   -310.35342   -634.60274   -43.122989    83.215103    195.46804      46.7237      46.7237      46.7237           90           90           90     102002.7   -463.39714 
  962000       961500   -10524.202     893.5748   -11417.777    4177.0984   -15594.875    93.213876   -338.99494   -42.780309    -87.50961   -151.27343    91.619121    35.591089      46.7237      46.7237      46.7237           90           90           90     102002.7   -156.42829 
  963000       962500   -10566.757    853.65199   -11420.409    4172.9008    -15593.31    89.049301    183.17534   0.85991607   -147.00555    -214.4086    96.110155    53.362571      46.7237      46.7237      46.7237           90           90           90     102002.7    12.343236 
  964000       963500   -10546.593    869.17383   -11415.767    4182.2863   -15598.053    90.668472   -385.94806   -401.43637   -336.27957    278.96178    162.44361   -27.768309      46.7237      46.7237      46.7237           90           90           90     102002.7   -374.55467 
  965000       964500   -10531.795     873.6472   -11405.442    4198.9628   -15604.405    91.135115    88.285386     -747.729   -288.36646   -88.985722   -34.169612    27.673552      46.7237      46.7237      46.7237           90           90           90     102002.7   -315.93669 
  966000       965500   -10569.379    852.45644   -11421.836    4199.4804   -15621.316    88.924587   -290.38237   -456.42448   -605.98125    -32.04933   -74.556574   -61.862016      46.7237      46.7237      46.7237           90           90           90     102002.7   -450.92936 
  967000       966500   -10504.629    888.38919   -11393.018    4202.0311   -15595.049    92.672936   -834.31144   -737.18347   -695.41488   -138.04824   -9.4736464    51.729026      46.7237      46.7237      46.7237           90           90           90     102002.7    -755.6366 
  968000       967500   -10544.979    886.03813   -11431.018    4187.9588   -15618.976    92.427683   -981.90869   -666.04304   -633.03477    38.915734    176.80505    21.850074      46.7237      46.7237      46.7237           90           90           90     102002.7   -760.32884 
  969000       968500    -10566.47    854.47115   -11420.941    4190.9598     -15611.9    89.134752   -882.57218   -904.41426   -382.46255   -162.53676    126.11584   -18.471139      46.7237      46.7237      46.7237           90           90           90     102002.7   -723.14966 
  970000       969500   -10540.203    868.16679    -11408.37    4192.8845   -15601.255    90.563422   -352.30248   -607.70737    -519.1672   -60.943049    127.57688    83.734087      46.7237      46.7237      46.7237           90           90           90     102002.7   -493.05902 
  971000       970500   -10582.354    867.69727   -11450.052     4166.747   -15616.799    90.514444   -936.91373   -657.48566   -497.07296    84.435725    42.940341   -51.526834      46.7237      46.7237      46.7237           90           90           90     102002.7   -697.15745 
  972000       971500   -10531.584    866.60992   -11398.194    4187.1083   -15585.302    90.401017   -569.20293   -46.636183   -293.40714    152.52957     207.2078   -220.71713      46.7237      46.7237      46.7237           90           90           90     102002.7   -303.08208 
  973000       972500   -10538.284    866.20588    -11404.49    4199.3543   -15603.844    90.358869   -690.93287   -126.56662   -307.58154    157.49656   -28.344794    172.36622      46.7237      46.7237      46.7237           90           90           90     102002.7   -375.02701 
  974000       973500   -10544.011    867.81299   -11411.824    4178.4897   -15590.313    90.526516    -647.9038   -223.08311   -434.13467   -62.777044    92.874169   -165.58938      46.7237      46.7237      46.7237           90           90           90     102002.7   -435.04053 
  975000       974500   -10513.125    903.73153   -11416.857    4174.4906   -15591.347    94.273383   -228.65394   -455.84171   -480.96175     37.91096   -193.49539   -20.829197      46.7237      46.7237      46.7237           90           90           90     102002.7    -388.4858 
  976000       975500   -10545.764    861.89263   -11407.657    4178.6208   -15586.278    89.908929   -239.11398   -403.09042   -35.789544   -80.978908    36.993209   -48.976773      46.7237      46.7237      46.7237           90           90           90     102002.7   -225.99798 
  977000       976500   -10539.498    880.76109   -11420.259    4171.6033   -15591.863    91.877205   -594.55488   -151.36959   -551.01145    54.078764    108.82957    -47.30315      46.7237      46.7237      46.7237           90           90           90     102002.7   -432.31198 
  978000       977500   -10584.729    854.44188    -11439.17    4128.9028   -15568.073    89.131699   -62.572075   -174.71042   -340.16216   -145.77054    67.383919    77.975056      46.7237      46.7237      46.7237           90           90           90     102002.7   -192.48155 
  979000       978500    -10543.21    861.80642   -11405.016    4188.3704   -15593.387    89.899936   -188.79465   -961.05118   -772.60018   -125.81951   -6.2288173  -0.36954845      46.7237      46.7237      46.7237           90           90           90     102002.7   -640.81534 
  980000       979500   -10553.898    879.01579   -11432.913    4161.0589   -15593.972    91.695143   -496.36567   -644.95391   -468.60724   -93.657378     62.87361    150.48038      46.7237      46.7237      46.7237           90           90           90     102002.7   -536.64227 
  981000       980500   -10550.492    877.01932   -11427.511     4165.742   -15593.253     91.48688   -695.28569   -692.66651   -295.14963    103.99541   -152.91396    144.31742      46.7237      46.7237      46.7237           90           90           90     102002.7   -561.03394 
  982000       981500   -10548.029    869.01593   -11417.045    4167.9506   -15584.995    90.652002   -234.90875   -679.05802   -453.87824    65.978551    25.958265   -214.83921      46.7237      46.7237      46.7237           90           90           90     102002.7   -455.94834 
  983000       982500   -10576.568    873.31608   -11449.884    4166.4105   -15616.295    91.100575   -421.30956    -220.8306   -260.82736   -228.97036    11.117532    23.094072      46.7237      46.7237      46.7237           90           90           90     102002.7   -300.98917 
  984000       983500   -10530.722    894.13733   -11424.859    4180.9557   -15605.815    93.272557   -220.64333   -209.44963   -431.27104   -163.58521   -9.7125524   -139.14492      46.7237      46.7237      46.7237           90           90           90     102002.7   -287.12133 
  985000       984500   -10526.459    861.86632   -11388.326    4204.0358   -15592.362    89.906185   -261.93933   -338.31173   -652.59578   -76.518538    105.63283   -13.953475      46.7237      46.7237      46.7237           90           90           90     102002.7   -417.61561 
  986000       985500   -10564.125     856.0478   -11420.173    4189.0556   -15609.228    89.299222   -547.21187   -301.32076   -396.22091    183.61011   -16.435092    53.766501      46.7237      46.7237      46.7237           90           90           90     102002.7   -414.91785 
  987000       986500   -10584.476    855.85709   -11440.333    4178.9936   -15619.327    89.279328   -337.64711   -320.59547   -416.96163    61.493496   -233.93713   -80.111103      46.7237      46.7237      46.7237           90           90           90     102002.7    -358.4014 
  988000       987500   -10552.201    865.96076   -11418.162     4188.851   -15607.013    90.333299   -295.99548   -204.45475   -596.30448    104.79219    35.171247    135.98327      46.7237      46.7237      46.7237           90           90           90     102002.7   -365.58491 
  989000       988500     -10539.7    883.16607   -11422.866     4190.801   -15613.667    92.128083   -503.22675   -395.41088   -324.89486    177.89276   -101.34221   -227.35492      46.7237      46.7237      46.7237           90           90           90     102002.7   -407.84416 
  990000       989500   -10555.993    887.06193   -11443.054    4164.7268   -15607.781    92.534482   -53.779952   -499.60642   -51.078757   -103.61246   -5.4855481    20.920529      46.7237      46.7237      46.7237           90           90           90     102002.7   -201.48838 
  991000       990500   -10558.888     864.0597   -11422.948    4169.6527     -15592.6    90.134989   -292.67227   -134.09017   -872.37435    92.102682   -165.05511   -51.697505      46.7237      46.7237      46.7237           90           90           90     102002.7    -433.0456 
  992000       991500   -10545.801    891.55143   -11437.353    4161.0658   -15598.418    93.002808   -24.734712    11.444923   -273.01395   -41.161605   -22.834468   -115.24011      46.7237      46.7237      46.7237           90           90           90     102002.7   -95.434579 
  993000       992500   -10544.501    878.12158   -11422.622      4172.36   -15594.982    91.601864   -377.98066   -442.17293   -546.52035    48.117037    35.015447    193.10647      46.7237      46.7237      46.7237           90           90           90     102002.7   -455.55798 
  994000       993500   -10587.557    854.79469   -11442.352    4167.8132   -15610.165    89.168503   -262.34676   -107.15131   -517.65333   -66.280775    28.394415   -209.70103      46.7237      46.7237      46.7237           90           90           90     102002.7   -295.71713 
  995000       994500    -10568.16    854.61146   -11422.771    4166.1035   -15588.875    89.149389   -379.47408   -275.52625   -571.64779   -158.81367   -117.42781   -113.20447      46.7237      46.7237      46.7237           90           90           90     102002.7   -408.88271 
  996000       995500   -10536.409    875.67952   -11412.088     4168.106   -15580.194    91.347118   -452.38889   -183.84377     -536.225    271.64439    232.46383   -94.610395      46.7237      46.7237      46.7237           90           90           90     102002.7   -390.81922 
  997000       996500   -10558.983    883.22449   -11442.208     4168.333   -15610.541    92.134177    65.030724   -172.43927    -899.2877   -56.199676    79.492677   -227.31574      46.7237      46.7237      46.7237           90           90           90     102002.7   -335.56541 
  998000       997500    -10540.42    883.32915   -11423.749    4173.5568   -15597.306    92.145095   -122.07757    -358.1193   -509.19977    176.38802     -47.2641   -106.43194      46.7237      46.7237      46.7237           90           90           90     102002.7   -329.79888 
  999000       998500   -10558.726    864.30973   -11423.036    4180.9482   -15603.984    90.161071   -466.37208   -681.50236   -966.91953   -1.8333828    311.90085   -210.18225      46.7237      46.7237      46.7237           90           90           90     102002.7   -704.93132 
 1000000       999500   -10543.611    860.97929    -11404.59    4193.9457   -15598.536    89.813653   -97.790444   -690.99331   -1206.3098    20.391736    107.75756    -456.1373      46.7237      46.7237      46.7237           90           90           90     102002.7   -665.03118 
 1000500      1000000   -10552.371    880.09496   -11432.466    4153.6097   -15586.076    91.807718   -381.99285    -360.7464   -679.86301   -135.03225   -56.849494   -163.42285      46.7237      46.7237      46.7237           90           90           90     102002.7   -474.20075 
Loop time of 2220.53 on 16 procs for 500000 steps with 3217 atoms

Performance: 19.455 ns/day, 1.234 hours/ns, 225.171 timesteps/s
99.9% CPU use with 16 MPI tasks x no OpenMP threads

MPI task timing breakdown:
Section |  min time  |  avg time  |  max time  |%varavg| %total
---------------------------------------------------------------
Pair    | 1126.2     | 1477.6     | 1767.6     | 488.6 | 66.54
Bond    | 141.22     | 184.09     | 213.72     | 175.2 |  8.29
Neigh   | 14.292     | 14.317     | 14.349     |   0.4 |  0.64
Comm    | 194.4      | 512.18     | 883.67     | 883.7 | 23.07
Output  | 0.13051    | 0.13845    | 0.13927    |   0.6 |  0.01
Modify  | 23.511     | 25.246     | 27.141     |  27.2 |  1.14
Other   |            | 6.999      |            |       |  0.32

Nlocal:    201.062 ave 230 max 170 min
Histogram: 1 0 3 1 3 1 3 2 0 2
Nghost:    4089.69 ave 4124 max 4056 min
Histogram: 2 2 1 1 1 2 2 2 1 2
Neighs:    11440.3 ave 14953 max 6816 min
Histogram: 2 1 1 2 1 0 2 1 2 4

Total # of neighbors = 183045
Ave neighs/atom = 56.8993
Ave special neighs/atom = 3.58098
Neighbor list builds = 4154
Dangerous builds = 0
Total wall time: 1:06:52
