LAMMPS (30 Mar 2018)
Reading data file ...
  orthogonal box = (0 0 0) to (46.7237 46.7237 46.7237)
  2 by 2 by 4 MPI processor grid
  reading atoms ...
  1755 atoms
  scanning bonds ...
  5 = max bonds/atom
  scanning angles ...
  10 = max angles/atom
  scanning dihedrals ...
  32 = max dihedrals/atom
  scanning impropers ...
  3 = max impropers/atom
  reading bonds ...
  2064 bonds
  reading angles ...
  3696 angles
  reading dihedrals ...
  6240 dihedrals
  reading impropers ...
  1008 impropers
Finding 1-2 1-3 1-4 neighbors ...
  special bond factors lj:   0          0          0         
  special bond factors coul: 0          0          0         
  5 = max # of 1-2 neighbors
  8 = max # of 1-3 neighbors
  20 = max # of 1-4 neighbors
  19 = max # of special neighbors
Finding 1-2 1-3 1-4 neighbors ...
  special bond factors lj:   0          0          1         
  special bond factors coul: 1          1          1         
  5 = max # of 1-2 neighbors
  8 = max # of 1-3 neighbors
  19 = max # of special neighbors
WARNING: Using 'neigh_modify every 1 delay 0 check yes' setting during minimization (../min.cpp:168)
Neighbor list info ...
  update every 1 steps, delay 0 steps, check yes
  max neighbors/atom: 2000, page size: 100000
  master list distance cutoff = 16
  ghost atom cutoff = 16
  binsize = 8, bins = 6 6 6
  3 neighbor lists, perpetual/occasional/extra = 3 0 0
  (1) pair buck6d/coul/gauss/dsf, perpetual, skip from (3)
      attributes: half, newton on
      pair build: skip
      stencil: none
      bin: none
  (2) pair lj/cut, perpetual, skip from (3)
      attributes: half, newton on
      pair build: skip
      stencil: none
      bin: none
  (3) neighbor class addition, perpetual
      attributes: half, newton on
      pair build: half/bin/newton
      stencil: half/bin/3d/newton
      bin: standard
Setting up cg style minimization ...
  Unit style    : real
  Current step  : 0
WARNING: Inconsistent image flags (../domain.cpp:786)
Per MPI rank memory allocation (min/avg/max) = 22.89 | 23.35 | 23.79 Mbytes
Step Temp E_pair E_mol TotEng Press 
       0            0   -11587.182    6482.8914   -5104.2904    6260.6622 
     505            0   -11609.758    3729.3517    -7880.406   -460.05754 
Loop time of 2.8206 on 16 procs for 505 steps with 1755 atoms

99.8% CPU use with 16 MPI tasks x no OpenMP threads

Minimization stats:
  Stopping criterion = max force evaluations
  Energy initial, next-to-last, final = 
        -5104.29041124     -7880.40216194     -7880.40596783
  Force two-norm initial, final = 2576.85 3.09444
  Force max component initial, final = 151.974 0.466351
  Final line search alpha, max atom move = 0.0236629 0.0110352
  Iterations, force evaluations = 505 1001

MPI task timing breakdown:
Section |  min time  |  avg time  |  max time  |%varavg| %total
---------------------------------------------------------------
Pair    | 1.2352     | 1.584      | 2.0837     |  19.4 | 56.16
Bond    | 0.30549    | 0.36156    | 0.42886    |   5.2 | 12.82
Neigh   | 0.01063    | 0.010785   | 0.010904   |   0.1 |  0.38
Comm    | 0.30796    | 0.81917    | 1.185      |  27.0 | 29.04
Output  | 0          | 0          | 0          |   0.0 |  0.00
Modify  | 0          | 0          | 0          |   0.0 |  0.00
Other   |            | 0.04513    |            |       |  1.60

Nlocal:    109.688 ave 126 max 83 min
Histogram: 1 0 0 1 1 2 6 2 1 2
Nghost:    2215.06 ave 2244 max 2198 min
Histogram: 1 3 1 4 4 1 1 0 0 1
Neighs:    11431.7 ave 14779 max 7437 min
Histogram: 3 2 1 0 1 0 2 2 1 4

Total # of neighbors = 182907
Ave neighs/atom = 104.221
Ave special neighs/atom = 6.5641
Neighbor list builds = 9
Dangerous builds = 0
Neighbor list info ...
  update every 1 steps, delay 10 steps, check yes
  max neighbors/atom: 2000, page size: 100000
  master list distance cutoff = 16
  ghost atom cutoff = 16
  binsize = 8, bins = 6 6 6
  3 neighbor lists, perpetual/occasional/extra = 3 0 0
  (1) pair buck6d/coul/gauss/dsf, perpetual, skip from (3)
      attributes: half, newton on
      pair build: skip
      stencil: none
      bin: none
  (2) pair lj/cut, perpetual, skip from (3)
      attributes: half, newton on
      pair build: skip
      stencil: none
      bin: none
  (3) neighbor class addition, perpetual
      attributes: half, newton on
      pair build: half/bin/newton
      stencil: half/bin/3d/newton
      bin: standard
Setting up Verlet run ...
  Unit style    : real
  Current step  : 505
  Time step     : 1
WARNING: Inconsistent image flags (../domain.cpp:786)
Per MPI rank memory allocation (min/avg/max) = 22.54 | 22.61 | 22.67 Mbytes
Step Temp PotEng TotEng Press Volume Lx Ly Lz 
     505          130    -7880.406   -7200.7217   -155.45858     102002.7      46.7237      46.7237      46.7237 
    1000    113.58664   -7272.6486    -6678.779    -818.2284     102002.7      46.7237      46.7237      46.7237 
    2000    126.71548   -7135.4618   -6472.9501    -629.9904     102002.7      46.7237      46.7237      46.7237 
    3000    125.95799   -7178.1231   -6519.5718   -946.91275     102002.7      46.7237      46.7237      46.7237 
    4000    130.47382   -7186.9301   -6504.7685   -482.74981     102002.7      46.7237      46.7237      46.7237 
    5000    127.77606   -7159.8541   -6491.7973   -1096.6836     102002.7      46.7237      46.7237      46.7237 
    6000    124.39321   -7196.7101     -6546.34   -773.20956     102002.7      46.7237      46.7237      46.7237 
    7000    132.09362   -7179.6286   -6488.9981   -529.17193     102002.7      46.7237      46.7237      46.7237 
    8000    131.83241   -7195.8974   -6506.6326   -631.59778     102002.7      46.7237      46.7237      46.7237 
    9000    131.27648   -7179.0047   -6492.6465   -450.45308     102002.7      46.7237      46.7237      46.7237 
   10000     128.0482   -7206.4989   -6537.0192   -572.48494     102002.7      46.7237      46.7237      46.7237 
   11000     130.2881   -7201.6662   -6520.4756   -885.29898     102002.7      46.7237      46.7237      46.7237 
   12000    128.14455   -7180.5424    -6510.559   -694.77225     102002.7      46.7237      46.7237      46.7237 
   13000    132.16621   -7189.7693   -6498.7592   -187.10718     102002.7      46.7237      46.7237      46.7237 
   14000    128.49571   -7202.0023   -6530.1829   -627.73102     102002.7      46.7237      46.7237      46.7237 
   15000    129.57244   -7186.4754   -6509.0266   -844.99379     102002.7      46.7237      46.7237      46.7237 
   16000    127.79424   -7173.9333   -6505.7815   -504.43793     102002.7      46.7237      46.7237      46.7237 
   17000    128.70013   -7165.8058   -6492.9177   -828.72871     102002.7      46.7237      46.7237      46.7237 
   18000    129.72517   -7206.4539   -6528.2064    -712.5684     102002.7      46.7237      46.7237      46.7237 
   19000     126.2108   -7198.3251   -6538.4521   -972.06438     102002.7      46.7237      46.7237      46.7237 
   20000    128.34101   -7166.8937   -6495.8832   -691.04967     102002.7      46.7237      46.7237      46.7237 
   21000    127.81995   -7200.5834   -6532.2971   -740.83208     102002.7      46.7237      46.7237      46.7237 
   22000    130.82076   -7183.2001   -6499.2245   -530.73381     102002.7      46.7237      46.7237      46.7237 
   23000    133.00555   -7192.6064   -6497.2081   -928.34049     102002.7      46.7237      46.7237      46.7237 
   24000    131.83248   -7192.1104   -6502.8453   -706.90644     102002.7      46.7237      46.7237      46.7237 
   25000    128.51298    -7182.787   -6510.8773   -784.09728     102002.7      46.7237      46.7237      46.7237 
   26000    125.07563   -7172.8135   -6518.8755   -1139.8028     102002.7      46.7237      46.7237      46.7237 
   27000    132.13751    -7166.841    -6475.981   -758.64372     102002.7      46.7237      46.7237      46.7237 
   28000    131.04106    -7191.549   -6506.4217   -625.24238     102002.7      46.7237      46.7237      46.7237 
   29000    130.72929   -7193.0651   -6509.5678   -778.93211     102002.7      46.7237      46.7237      46.7237 
   30000    132.12529   -7168.3475   -6477.5515     -747.195     102002.7      46.7237      46.7237      46.7237 
   31000    131.17546   -7184.3856   -6498.5556   -786.70899     102002.7      46.7237      46.7237      46.7237 
   32000    128.71808   -7199.1119   -6526.1299   -901.22926     102002.7      46.7237      46.7237      46.7237 
   33000    131.20811   -7183.4437   -6497.4429   -658.20279     102002.7      46.7237      46.7237      46.7237 
   34000    128.41006   -7180.6731   -6509.3016   -926.59345     102002.7      46.7237      46.7237      46.7237 
   35000     129.5235   -7185.7325   -6508.5394   -1055.2535     102002.7      46.7237      46.7237      46.7237 
   36000    126.03654   -7188.8181   -6529.8561   -936.71124     102002.7      46.7237      46.7237      46.7237 
   37000    128.23481   -7170.7718   -6500.3165   -719.84544     102002.7      46.7237      46.7237      46.7237 
   38000    123.52051   -7170.8254   -6525.0181   -778.16116     102002.7      46.7237      46.7237      46.7237 
   39000    129.34511   -7195.5039   -6519.2436   -908.25848     102002.7      46.7237      46.7237      46.7237 
   40000    133.60314   -7189.7993   -6491.2766   -801.81961     102002.7      46.7237      46.7237      46.7237 
   41000    123.19829   -7185.2701   -6541.1475   -666.05641     102002.7      46.7237      46.7237      46.7237 
   42000    125.29257   -7180.3269   -6525.2547   -1074.0733     102002.7      46.7237      46.7237      46.7237 
   43000    130.11224   -7197.8405   -6517.5694   -847.82615     102002.7      46.7237      46.7237      46.7237 
   44000    124.52566   -7201.9165    -6550.854   -766.30222     102002.7      46.7237      46.7237      46.7237 
   45000    133.51205   -7207.5467   -6509.5002   -879.15293     102002.7      46.7237      46.7237      46.7237 
   46000     130.4338   -7205.9916   -6524.0393   -595.95585     102002.7      46.7237      46.7237      46.7237 
   47000     127.4264   -7191.8708   -6525.6422    -647.6256     102002.7      46.7237      46.7237      46.7237 
   48000    131.19008   -7208.9712   -6523.0648   -1027.2192     102002.7      46.7237      46.7237      46.7237 
   49000    128.89763   -7182.7063   -6508.7856   -548.99941     102002.7      46.7237      46.7237      46.7237 
   50000    128.07096   -7181.5418   -6511.9432   -430.36199     102002.7      46.7237      46.7237      46.7237 
   51000    128.20362    -7197.433   -6527.1408   -786.89593     102002.7      46.7237      46.7237      46.7237 
   52000    126.72631    -7178.868   -6516.2996   -686.81457     102002.7      46.7237      46.7237      46.7237 
   53000    125.82148   -7160.2639   -6502.4264   -948.29589     102002.7      46.7237      46.7237      46.7237 
   54000    130.34846   -7179.9239   -6498.4178   -734.97784     102002.7      46.7237      46.7237      46.7237 
   55000    127.58166    -7193.605   -6526.5646   -934.50138     102002.7      46.7237      46.7237      46.7237 
   56000    132.43347   -7191.5717   -6499.1643   -946.02346     102002.7      46.7237      46.7237      46.7237 
   57000    130.26164   -7204.9294   -6523.8772   -566.13852     102002.7      46.7237      46.7237      46.7237 
   58000     133.0093   -7176.3141   -6480.8962   -802.27196     102002.7      46.7237      46.7237      46.7237 
   59000    131.37352   -7192.2599   -6505.3944   -476.24376     102002.7      46.7237      46.7237      46.7237 
   60000    129.33383   -7201.9582   -6525.7569   -798.25259     102002.7      46.7237      46.7237      46.7237 
   61000    132.91666   -7183.0242   -6488.0906   -783.59874     102002.7      46.7237      46.7237      46.7237 
   62000    127.53482   -7219.7439   -6552.9484   -807.90899     102002.7      46.7237      46.7237      46.7237 
   63000    134.61339   -7189.8867    -6486.082   -582.64535     102002.7      46.7237      46.7237      46.7237 
   64000    126.05685   -7174.8563   -6515.7881   -767.85815     102002.7      46.7237      46.7237      46.7237 
   65000    129.68603   -7186.2984   -6508.2557   -533.52046     102002.7      46.7237      46.7237      46.7237 
   66000    132.25122   -7197.4254    -6505.971    -487.0161     102002.7      46.7237      46.7237      46.7237 
   67000    134.12819   -7183.9146   -6482.6467    -647.0176     102002.7      46.7237      46.7237      46.7237 
   68000    130.90987   -7183.6843   -6499.2429   -187.52496     102002.7      46.7237      46.7237      46.7237 
   69000     130.4482   -7192.1127   -6510.0851    -709.4983     102002.7      46.7237      46.7237      46.7237 
   70000    130.14954   -7164.9322   -6484.4661   -843.00854     102002.7      46.7237      46.7237      46.7237 
   71000    132.26565   -7193.2704   -6501.7405   -808.68855     102002.7      46.7237      46.7237      46.7237 
   72000    125.98617   -7183.5328   -6524.8341   -866.94556     102002.7      46.7237      46.7237      46.7237 
   73000    129.53259   -7167.5438   -6490.3032   -831.03378     102002.7      46.7237      46.7237      46.7237 
   74000    133.51032   -7186.2284    -6488.191   -807.55429     102002.7      46.7237      46.7237      46.7237 
   75000     129.2754   -7156.9691   -6481.0732   -483.18871     102002.7      46.7237      46.7237      46.7237 
   76000    129.85052   -7188.2262   -6509.3234    -637.9913     102002.7      46.7237      46.7237      46.7237 
   77000    130.05543   -7186.7047   -6506.7306   -729.52354     102002.7      46.7237      46.7237      46.7237 
   78000     135.8651   -7202.0595   -6491.7105   -705.01769     102002.7      46.7237      46.7237      46.7237 
   79000    127.90336   -7187.3067   -6518.5844    -775.4255     102002.7      46.7237      46.7237      46.7237 
   80000    132.53337   -7192.9116    -6499.982    -885.6017     102002.7      46.7237      46.7237      46.7237 
   81000    130.81745   -7182.2885   -6498.3303   -634.05704     102002.7      46.7237      46.7237      46.7237 
   82000    126.93926    -7188.029   -6524.3473   -600.93205     102002.7      46.7237      46.7237      46.7237 
   83000    127.68709   -7181.0654   -6513.4738   -541.24686     102002.7      46.7237      46.7237      46.7237 
   84000    131.87854   -7142.2997   -6452.7937   -629.69487     102002.7      46.7237      46.7237      46.7237 
   85000    127.91221   -7169.8875   -6501.1189   -646.37343     102002.7      46.7237      46.7237      46.7237 
   86000    127.84389   -7207.3727   -6538.9613   -550.02009     102002.7      46.7237      46.7237      46.7237 
   87000    126.85706   -7183.9369    -6520.685    -876.8394     102002.7      46.7237      46.7237      46.7237 
   88000    132.26008   -7188.3986   -6496.8978   -824.64372     102002.7      46.7237      46.7237      46.7237 
   89000    129.91233   -7185.7481   -6506.5222   -624.49293     102002.7      46.7237      46.7237      46.7237 
   90000     132.0479   -7179.3748   -6488.9834   -640.20569     102002.7      46.7237      46.7237      46.7237 
   91000    125.37114   -7206.5954   -6551.1123   -730.24168     102002.7      46.7237      46.7237      46.7237 
   92000    129.64986   -7179.1677   -6501.3141   -405.24239     102002.7      46.7237      46.7237      46.7237 
   93000    129.27796   -7195.6343    -6519.725   -649.17007     102002.7      46.7237      46.7237      46.7237 
   94000    131.42919   -7174.4656    -6487.309    -534.2888     102002.7      46.7237      46.7237      46.7237 
   95000    131.02123   -7192.6511   -6507.6274   -747.45245     102002.7      46.7237      46.7237      46.7237 
   96000    131.03933   -7214.8674   -6529.7491   -880.45191     102002.7      46.7237      46.7237      46.7237 
   97000    130.77597   -7177.2429   -6493.5015   -542.63148     102002.7      46.7237      46.7237      46.7237 
   98000    128.96724   -7179.8316   -6505.5469   -990.07504     102002.7      46.7237      46.7237      46.7237 
   99000    131.71044   -7183.8707   -6495.2436   -712.24251     102002.7      46.7237      46.7237      46.7237 
  100000    130.71393   -7175.6198   -6492.2028   -789.49327     102002.7      46.7237      46.7237      46.7237 
  101000    128.45039    -7192.463   -6520.8806   -806.72429     102002.7      46.7237      46.7237      46.7237 
  102000    129.86846   -7174.3482   -6495.3516   -486.21207     102002.7      46.7237      46.7237      46.7237 
  103000    133.23743   -7172.0209   -6475.4102    -726.8434     102002.7      46.7237      46.7237      46.7237 
  104000     127.3985   -7185.9428     -6519.86   -387.90166     102002.7      46.7237      46.7237      46.7237 
  105000    135.22078   -7180.3969   -6473.4165     -741.439     102002.7      46.7237      46.7237      46.7237 
  106000    130.02035   -7185.5041   -6505.7133    -694.4634     102002.7      46.7237      46.7237      46.7237 
  107000    129.73113   -7179.3321   -6501.0536   -631.91554     102002.7      46.7237      46.7237      46.7237 
  108000    126.21146   -7191.7539   -6531.8774   -638.91288     102002.7      46.7237      46.7237      46.7237 
  109000    131.66698   -7182.3676   -6493.9678   -772.80927     102002.7      46.7237      46.7237      46.7237 
  110000    129.28005   -7194.8992   -6518.9791   -850.32948     102002.7      46.7237      46.7237      46.7237 
  111000    129.60209   -7183.7723   -6506.1684   -408.31414     102002.7      46.7237      46.7237      46.7237 
  112000    132.51645   -7195.3927   -6502.5515   -1002.8569     102002.7      46.7237      46.7237      46.7237 
  113000    133.07367   -7194.1286   -6498.3741   -720.15331     102002.7      46.7237      46.7237      46.7237 
  114000    126.10138   -7188.3913   -6529.0904    -916.9172     102002.7      46.7237      46.7237      46.7237 
  115000    129.80125    -7198.742   -6520.0968   -990.57773     102002.7      46.7237      46.7237      46.7237 
  116000    131.05656   -7167.6264    -6482.418   -741.36758     102002.7      46.7237      46.7237      46.7237 
  117000    128.27665   -7185.6541     -6514.98   -812.42683     102002.7      46.7237      46.7237      46.7237 
  118000    132.18482   -7172.0748   -6480.9675   -662.04601     102002.7      46.7237      46.7237      46.7237 
  119000    130.52789   -7212.0511   -6529.6068   -453.31265     102002.7      46.7237      46.7237      46.7237 
  120000     132.2931   -7197.4573   -6505.7839   -872.04216     102002.7      46.7237      46.7237      46.7237 
  121000    132.19966   -7191.9232   -6500.7384   -798.55253     102002.7      46.7237      46.7237      46.7237 
  122000     135.0285   -7186.9247   -6480.9497   -572.05791     102002.7      46.7237      46.7237      46.7237 
  123000    128.68718   -7185.9135   -6513.0931   -941.18692     102002.7      46.7237      46.7237      46.7237 
  124000    129.44164   -7202.4731   -6525.7081   -474.21377     102002.7      46.7237      46.7237      46.7237 
  125000    131.95524   -7199.6489    -6509.742   -850.35426     102002.7      46.7237      46.7237      46.7237 
  126000    129.17962   -7191.9182   -6516.5231   -855.84135     102002.7      46.7237      46.7237      46.7237 
  127000    127.28108   -7203.8053   -6538.3364   -927.62982     102002.7      46.7237      46.7237      46.7237 
  128000    129.99054   -7185.8722   -6506.2373   -901.59276     102002.7      46.7237      46.7237      46.7237 
  129000    133.46618   -7174.3262   -6476.5195   -1105.7183     102002.7      46.7237      46.7237      46.7237 
  130000    131.29115   -7197.0141   -6510.5792   -956.93244     102002.7      46.7237      46.7237      46.7237 
  131000    130.91831   -7207.5199   -6523.0343   -800.43404     102002.7      46.7237      46.7237      46.7237 
  132000    131.81435    -7169.521   -6480.3507   -880.65905     102002.7      46.7237      46.7237      46.7237 
  133000    127.41146   -7194.5821   -6528.4316   -1045.3693     102002.7      46.7237      46.7237      46.7237 
  134000    132.45239   -7192.5151   -6500.0088   -658.19916     102002.7      46.7237      46.7237      46.7237 
  135000    129.22388   -7187.9601   -6512.3336   -778.10963     102002.7      46.7237      46.7237      46.7237 
  136000    135.66874   -7181.3435   -6472.0211   -604.25693     102002.7      46.7237      46.7237      46.7237 
  137000    128.91958   -7198.1594   -6524.1239   -399.81634     102002.7      46.7237      46.7237      46.7237 
  138000    131.96322   -7200.9266   -6510.9779   -638.07636     102002.7      46.7237      46.7237      46.7237 
  139000    132.92816    -7174.582   -6479.5883   -710.89978     102002.7      46.7237      46.7237      46.7237 
  140000    128.91809   -7187.4194   -6513.3917   -821.19829     102002.7      46.7237      46.7237      46.7237 
  141000     137.0457   -7196.5057   -6479.9841   -941.98414     102002.7      46.7237      46.7237      46.7237 
  142000     129.2588   -7187.1725   -6511.3634    -709.1659     102002.7      46.7237      46.7237      46.7237 
  143000    132.92547   -7193.5806    -6498.601   -752.18164     102002.7      46.7237      46.7237      46.7237 
  144000     132.5161   -7173.2059   -6480.3666   -705.72491     102002.7      46.7237      46.7237      46.7237 
  145000    126.32304   -7189.5928   -6529.1329   -740.56319     102002.7      46.7237      46.7237      46.7237 
  146000    134.05189    -7197.868    -6496.999   -531.23708     102002.7      46.7237      46.7237      46.7237 
  147000    131.86191    -7179.855   -6490.4359   -649.73174     102002.7      46.7237      46.7237      46.7237 
  148000    130.39841   -7201.3345   -6519.5671   -735.89268     102002.7      46.7237      46.7237      46.7237 
  149000    130.04912   -7184.7652   -6504.8241   -887.92685     102002.7      46.7237      46.7237      46.7237 
  150000    133.79735   -7176.7786   -6477.2404   -928.21671     102002.7      46.7237      46.7237      46.7237 
  151000    126.97203   -7189.1419   -6525.2888   -710.24139     102002.7      46.7237      46.7237      46.7237 
  152000    132.26673    -7188.964   -6497.4285   -844.18306     102002.7      46.7237      46.7237      46.7237 
  153000    130.40564    -7173.328   -6491.5229   -669.08314     102002.7      46.7237      46.7237      46.7237 
  154000    128.68737   -7189.0265   -6516.2051   -742.02196     102002.7      46.7237      46.7237      46.7237 
  155000    128.13582   -7191.0336   -6521.0959   -623.93127     102002.7      46.7237      46.7237      46.7237 
  156000    128.92847    -7195.515    -6521.433   -285.74589     102002.7      46.7237      46.7237      46.7237 
  157000     129.6863   -7196.2538   -6518.2097   -563.34821     102002.7      46.7237      46.7237      46.7237 
  158000    129.51803   -7188.4504    -6511.286   -403.30558     102002.7      46.7237      46.7237      46.7237 
  159000    128.97243   -7168.4502   -6494.1384   -658.98102     102002.7      46.7237      46.7237      46.7237 
  160000      130.533   -7193.5004   -6511.0294   -713.89423     102002.7      46.7237      46.7237      46.7237 
  161000    132.64704    -7201.748   -6508.2241   -640.32319     102002.7      46.7237      46.7237      46.7237 
  162000    130.04326   -7181.2871   -6501.3766   -765.08677     102002.7      46.7237      46.7237      46.7237 
  163000    129.43649   -7198.6996   -6521.9615   -707.66011     102002.7      46.7237      46.7237      46.7237 
  164000    129.00013   -7168.3985   -6493.9418    -654.6418     102002.7      46.7237      46.7237      46.7237 
  165000    128.48977   -7189.7531   -6517.9648   -400.05658     102002.7      46.7237      46.7237      46.7237 
  166000    131.01531   -7183.0591   -6498.0664    -756.2912     102002.7      46.7237      46.7237      46.7237 
  167000    128.46029   -7185.3584   -6513.7242   -512.47931     102002.7      46.7237      46.7237      46.7237 
  168000     132.1203   -7174.9139   -6484.1439   -530.06101     102002.7      46.7237      46.7237      46.7237 
  169000    128.08191   -7191.5865   -6521.9306   -791.16305     102002.7      46.7237      46.7237      46.7237 
  170000    132.62792    -7187.832    -6494.408   -538.63069     102002.7      46.7237      46.7237      46.7237 
  171000    128.41873   -7199.9457   -6528.5288   -711.12697     102002.7      46.7237      46.7237      46.7237 
  172000    131.16125   -7172.0798    -6486.324   -680.06772     102002.7      46.7237      46.7237      46.7237 
  173000    127.70971   -7184.8421   -6517.1322   -507.49664     102002.7      46.7237      46.7237      46.7237 
  174000    127.06833   -7186.2649   -6521.9084   -734.26714     102002.7      46.7237      46.7237      46.7237 
  175000    130.61802   -7191.6614   -6508.7459   -650.12353     102002.7      46.7237      46.7237      46.7237 
  176000    130.61434   -7204.3761   -6521.4798   -523.79433     102002.7      46.7237      46.7237      46.7237 
  177000    128.95588   -7182.6451   -6508.4198    -582.2611     102002.7      46.7237      46.7237      46.7237 
  178000    129.53081   -7208.2008   -6530.9696   -506.00873     102002.7      46.7237      46.7237      46.7237 
  179000    130.80666   -7185.7116   -6501.8099   -775.81268     102002.7      46.7237      46.7237      46.7237 
  180000    129.46394    -7198.412   -6521.5304   -646.20695     102002.7      46.7237      46.7237      46.7237 
  181000    129.50851   -7202.0736   -6524.9589    -882.0998     102002.7      46.7237      46.7237      46.7237 
  182000     131.6617   -7170.8961   -6482.5239   -715.16319     102002.7      46.7237      46.7237      46.7237 
  183000    132.73732   -7198.1849   -6504.1889   -579.09629     102002.7      46.7237      46.7237      46.7237 
  184000    129.94683   -7183.1311   -6503.7248   -523.77682     102002.7      46.7237      46.7237      46.7237 
  185000    132.24718   -7181.1647   -6489.7314   -598.26636     102002.7      46.7237      46.7237      46.7237 
  186000    127.81146   -7198.1155   -6529.8736   -710.40049     102002.7      46.7237      46.7237      46.7237 
  187000     130.9988    -7184.107   -6499.2006   -296.50991     102002.7      46.7237      46.7237      46.7237 
  188000    130.97482   -7216.4934   -6531.7123   -941.01536     102002.7      46.7237      46.7237      46.7237 
  189000    130.80144    -7201.185   -6517.3105   -925.64587     102002.7      46.7237      46.7237      46.7237 
  190000    130.02725   -7192.1351   -6512.3083   -651.94354     102002.7      46.7237      46.7237      46.7237 
  191000    131.50664   -7199.0786   -6511.5171   -677.29359     102002.7      46.7237      46.7237      46.7237 
  192000    131.07933   -7168.6519   -6483.3245   -630.58891     102002.7      46.7237      46.7237      46.7237 
  193000    130.38769   -7198.6729   -6516.9616   -578.93698     102002.7      46.7237      46.7237      46.7237 
  194000    131.01453   -7184.5644   -6499.5758   -989.54654     102002.7      46.7237      46.7237      46.7237 
  195000    128.00552   -7170.5094   -6501.2529   -707.56501     102002.7      46.7237      46.7237      46.7237 
  196000     133.2345   -7185.3542   -6488.7589   -748.11021     102002.7      46.7237      46.7237      46.7237 
  197000    131.46716    -7166.785   -6479.4299   -582.40618     102002.7      46.7237      46.7237      46.7237 
  198000    131.55413   -7209.3089    -6521.499   -766.56975     102002.7      46.7237      46.7237      46.7237 
  199000    131.24642   -7225.9542   -6539.7532   -635.05759     102002.7      46.7237      46.7237      46.7237 
  200000    130.47494   -7182.7882   -6500.6207   -827.79449     102002.7      46.7237      46.7237      46.7237 
  201000    127.60034   -7197.1374   -6529.9993   -996.35125     102002.7      46.7237      46.7237      46.7237 
  202000    127.60535   -7168.5969   -6501.4327   -813.50797     102002.7      46.7237      46.7237      46.7237 
  203000    129.83905   -7197.3923   -6518.5495   -690.92878     102002.7      46.7237      46.7237      46.7237 
  204000     130.4823   -7194.7757   -6512.5697    -857.6199     102002.7      46.7237      46.7237      46.7237 
  205000    129.38273   -7196.4796   -6520.0226   -680.43104     102002.7      46.7237      46.7237      46.7237 
  206000    127.34168   -7157.2993   -6491.5136   -959.26095     102002.7      46.7237      46.7237      46.7237 
  207000    128.45607   -7189.9466   -6518.3344   -685.38725     102002.7      46.7237      46.7237      46.7237 
  208000     134.0613   -7186.2588   -6485.3406   -750.50257     102002.7      46.7237      46.7237      46.7237 
  209000    134.86051   -7209.1925   -6504.0958   -922.78714     102002.7      46.7237      46.7237      46.7237 
  210000    130.29669   -7186.7177   -6505.4822    -411.2072     102002.7      46.7237      46.7237      46.7237 
  211000    131.84925   -7178.6176   -6489.2648   -950.18689     102002.7      46.7237      46.7237      46.7237 
  212000    127.74373   -7202.4408   -6534.5531   -720.49153     102002.7      46.7237      46.7237      46.7237 
  213000     130.1653   -7192.9784   -6512.4298    -878.9629     102002.7      46.7237      46.7237      46.7237 
  214000    132.04427   -7169.1665   -6478.7941   -902.92716     102002.7      46.7237      46.7237      46.7237 
  215000    130.42554   -7173.9815   -6492.0723   -656.57377     102002.7      46.7237      46.7237      46.7237 
  216000    128.16109   -7190.1578   -6520.0879   -845.31262     102002.7      46.7237      46.7237      46.7237 
  217000    133.37066   -7175.8876   -6478.5803   -762.40665     102002.7      46.7237      46.7237      46.7237 
  218000    130.56469   -7207.2536   -6524.6169   -824.48585     102002.7      46.7237      46.7237      46.7237 
  219000    132.23042   -7158.2211   -6466.8754   -730.37329     102002.7      46.7237      46.7237      46.7237 
  220000    126.30612   -7178.9076   -6518.5362   -687.11063     102002.7      46.7237      46.7237      46.7237 
  221000    123.70737   -7177.6112   -6530.8269   -651.29984     102002.7      46.7237      46.7237      46.7237 
  222000     131.1024   -7204.6278   -6519.1798   -1067.0004     102002.7      46.7237      46.7237      46.7237 
  223000    128.61773   -7205.5395   -6533.0821   -890.59141     102002.7      46.7237      46.7237      46.7237 
  224000    129.57714    -7176.597   -6499.1236   -785.10047     102002.7      46.7237      46.7237      46.7237 
  225000    130.70393   -7199.3809   -6516.0162   -805.85572     102002.7      46.7237      46.7237      46.7237 
  226000    127.61662   -7201.6434   -6534.4202   -690.97645     102002.7      46.7237      46.7237      46.7237 
  227000    131.16852   -7222.5594   -6536.7656   -668.94009     102002.7      46.7237      46.7237      46.7237 
  228000    131.02886   -7172.5768   -6487.5132   -648.11808     102002.7      46.7237      46.7237      46.7237 
  229000    129.44543   -7193.9171   -6517.1323    -766.0892     102002.7      46.7237      46.7237      46.7237 
  230000    126.20984   -7185.9654   -6526.0974   -718.36768     102002.7      46.7237      46.7237      46.7237 
  231000    132.09556   -7176.7404   -6486.0998   -539.37027     102002.7      46.7237      46.7237      46.7237 
  232000    127.75841   -7186.8835    -6518.919   -344.44295     102002.7      46.7237      46.7237      46.7237 
  233000    134.70396   -7176.3468   -6472.0686   -523.95241     102002.7      46.7237      46.7237      46.7237 
  234000    131.02533   -7188.2898   -6503.2447   -760.12848     102002.7      46.7237      46.7237      46.7237 
  235000    130.71674    -7197.426   -6513.9943   -549.07903     102002.7      46.7237      46.7237      46.7237 
  236000    130.31896   -7174.6352   -6493.2832   -611.91765     102002.7      46.7237      46.7237      46.7237 
  237000    128.21758   -7215.2138   -6544.8485   -512.05462     102002.7      46.7237      46.7237      46.7237 
  238000    132.31421   -7189.6126   -6497.8288   -783.78213     102002.7      46.7237      46.7237      46.7237 
  239000    130.14099   -7196.9138   -6516.4923   -778.51751     102002.7      46.7237      46.7237      46.7237 
  240000    125.78046   -7185.4532   -6527.8301   -769.74175     102002.7      46.7237      46.7237      46.7237 
  241000    131.05199   -7188.7338   -6503.5494   -660.99616     102002.7      46.7237      46.7237      46.7237 
  242000    130.37472   -7208.6927   -6527.0492   -611.04202     102002.7      46.7237      46.7237      46.7237 
  243000    128.95817   -7172.6709   -6498.4337   -563.86692     102002.7      46.7237      46.7237      46.7237 
  244000    130.37409    -7180.045   -6498.4048   -488.51116     102002.7      46.7237      46.7237      46.7237 
  245000    126.52889   -7194.9227   -6533.3865   -561.75231     102002.7      46.7237      46.7237      46.7237 
  246000    131.05758   -7201.3448   -6516.1311   -673.59601     102002.7      46.7237      46.7237      46.7237 
  247000    134.60337   -7178.4864   -6474.7341   -641.61878     102002.7      46.7237      46.7237      46.7237 
  248000    126.71304   -7163.6062   -6501.1073   -976.65248     102002.7      46.7237      46.7237      46.7237 
  249000    130.45524   -7186.6376   -6504.5731   -755.60783     102002.7      46.7237      46.7237      46.7237 
  250000    129.10795   -7213.8117   -6538.7913   -607.32111     102002.7      46.7237      46.7237      46.7237 
  251000    129.86706   -7175.3004   -6496.3111   -462.58824     102002.7      46.7237      46.7237      46.7237 
  252000    133.12803   -7173.8674   -6477.8287   -480.01498     102002.7      46.7237      46.7237      46.7237 
  253000    129.89882   -7184.1123    -6504.957   -812.38196     102002.7      46.7237      46.7237      46.7237 
  254000      129.671   -7188.6118   -6510.6476   -938.37463     102002.7      46.7237      46.7237      46.7237 
  255000    129.47787    -7161.515   -6484.5606   -663.73278     102002.7      46.7237      46.7237      46.7237 
  256000    128.60781   -7181.9443   -6509.5388   -1060.2706     102002.7      46.7237      46.7237      46.7237 
  257000    131.12752    -7180.839   -6495.2597   -777.43023     102002.7      46.7237      46.7237      46.7237 
  258000    131.02359    -7178.677    -6493.641    -964.7275     102002.7      46.7237      46.7237      46.7237 
  259000     126.0851   -7188.1814   -6528.9656   -1042.1477     102002.7      46.7237      46.7237      46.7237 
  260000    125.43996    -7215.902   -6560.0591   -863.53442     102002.7      46.7237      46.7237      46.7237 
  261000    130.94237   -7175.3079   -6490.6965    -791.0989     102002.7      46.7237      46.7237      46.7237 
  262000    129.17695   -7173.0326   -6497.6515   -820.96347     102002.7      46.7237      46.7237      46.7237 
  263000    131.76496   -7191.9914   -6503.0793   -627.24988     102002.7      46.7237      46.7237      46.7237 
  264000    125.17957   -7193.0094   -6538.5279   -533.21955     102002.7      46.7237      46.7237      46.7237 
  265000    129.90474   -7201.0396   -6521.8533   -873.23725     102002.7      46.7237      46.7237      46.7237 
  266000    137.27949    -7205.664   -6487.9201   -316.60842     102002.7      46.7237      46.7237      46.7237 
  267000    129.49198   -7160.6781   -6483.6499   -800.21681     102002.7      46.7237      46.7237      46.7237 
  268000    130.09432   -7189.3463   -6509.1689   -751.90355     102002.7      46.7237      46.7237      46.7237 
  269000    127.16066   -7187.7292   -6522.8899   -883.42751     102002.7      46.7237      46.7237      46.7237 
  270000     125.4375   -7196.2254   -6540.3954   -606.43358     102002.7      46.7237      46.7237      46.7237 
  271000    130.90117   -7183.8836   -6499.4877   -838.22199     102002.7      46.7237      46.7237      46.7237 
  272000    129.65274   -7206.9106   -6529.0419   -788.80503     102002.7      46.7237      46.7237      46.7237 
  273000    129.08703   -7179.8021   -6504.8911   -482.93831     102002.7      46.7237      46.7237      46.7237 
  274000    128.42395   -7204.1904   -6532.7462   -914.59177     102002.7      46.7237      46.7237      46.7237 
  275000    129.78008   -7186.8282   -6508.2937   -748.82724     102002.7      46.7237      46.7237      46.7237 
  276000    130.61862   -7192.5654   -6509.6467   -623.80494     102002.7      46.7237      46.7237      46.7237 
  277000    130.49288   -7177.3846   -6495.1234   -848.93222     102002.7      46.7237      46.7237      46.7237 
  278000    129.86545   -7185.5916   -6506.6107   -1135.8958     102002.7      46.7237      46.7237      46.7237 
  279000    125.65569   -7186.9489   -6529.9781    -664.7964     102002.7      46.7237      46.7237      46.7237 
  280000    131.63581     -7181.86   -6493.6231   -824.75672     102002.7      46.7237      46.7237      46.7237 
  281000    132.43685   -7174.2393   -6481.8144   -866.77642     102002.7      46.7237      46.7237      46.7237 
  282000    127.92728   -7187.2862   -6518.4388   -899.36636     102002.7      46.7237      46.7237      46.7237 
  283000    131.40923   -7161.2338   -6474.1815   -795.56323     102002.7      46.7237      46.7237      46.7237 
  284000    130.29126    -7199.937   -6518.7299   -574.75872     102002.7      46.7237      46.7237      46.7237 
  285000    132.23565   -7184.5418   -6493.1687   -839.13016     102002.7      46.7237      46.7237      46.7237 
  286000     129.3841   -7203.3367   -6526.8725   -418.85659     102002.7      46.7237      46.7237      46.7237 
  287000    136.46233   -7188.3658   -6474.8942   -692.38113     102002.7      46.7237      46.7237      46.7237 
  288000    133.38329   -7190.5826   -6493.2093   -647.15257     102002.7      46.7237      46.7237      46.7237 
  289000    128.97441    -7186.137   -6511.8148   -485.13359     102002.7      46.7237      46.7237      46.7237 
  290000    127.97942   -7178.5639   -6509.4438   -1065.2216     102002.7      46.7237      46.7237      46.7237 
  291000    132.75281    -7181.177   -6487.1001   -422.54754     102002.7      46.7237      46.7237      46.7237 
  292000     126.5293   -7192.2109   -6530.6726   -718.53935     102002.7      46.7237      46.7237      46.7237 
  293000    129.53719   -7180.9259   -6503.6613   -507.18621     102002.7      46.7237      46.7237      46.7237 
  294000     125.3168   -7189.1611   -6533.9622   -561.41135     102002.7      46.7237      46.7237      46.7237 
  295000    131.12905   -7182.2682   -6496.6808   -530.11107     102002.7      46.7237      46.7237      46.7237 
  296000    127.22519   -7179.5966   -6514.4199   -618.53241     102002.7      46.7237      46.7237      46.7237 
  297000    129.32961    -7193.586   -6517.4067   -1018.5969     102002.7      46.7237      46.7237      46.7237 
  298000    126.69877   -7167.4404    -6505.016   -623.32667     102002.7      46.7237      46.7237      46.7237 
  299000    129.42193   -7196.6532   -6519.9912   -809.51333     102002.7      46.7237      46.7237      46.7237 
  300000    129.93748   -7188.4298   -6509.0724    -522.9529     102002.7      46.7237      46.7237      46.7237 
  301000    133.11079   -7183.9021   -6487.9535   -540.11709     102002.7      46.7237      46.7237      46.7237 
  302000    126.78852   -7193.5431   -6530.6495   -1063.9488     102002.7      46.7237      46.7237      46.7237 
  303000    131.19839   -7179.7803   -6493.8304   -771.19266     102002.7      46.7237      46.7237      46.7237 
  304000    128.78154   -7225.3223   -6552.0085   -744.04506     102002.7      46.7237      46.7237      46.7237 
  305000    129.54387   -7176.1101   -6498.8106   -589.99125     102002.7      46.7237      46.7237      46.7237 
  306000    125.74356   -7200.7652    -6543.335   -293.81601     102002.7      46.7237      46.7237      46.7237 
  307000    129.93219   -7204.1829   -6524.8532   -637.85701     102002.7      46.7237      46.7237      46.7237 
  308000    133.32205   -7187.8891    -6490.836   -395.40267     102002.7      46.7237      46.7237      46.7237 
  309000    126.68474   -7186.6206   -6524.2696   -667.72525     102002.7      46.7237      46.7237      46.7237 
  310000    132.97423    -7193.234   -6497.9994     -953.429     102002.7      46.7237      46.7237      46.7237 
  311000    132.27858   -7206.7372   -6515.1397   -674.11681     102002.7      46.7237      46.7237      46.7237 
  312000    130.28227   -7153.6101   -6472.4499   -768.08964     102002.7      46.7237      46.7237      46.7237 
  313000    123.02995   -7184.8917   -6541.6492   -839.78887     102002.7      46.7237      46.7237      46.7237 
  314000    132.94858   -7201.3604   -6506.2599   -740.04735     102002.7      46.7237      46.7237      46.7237 
  315000    130.62511   -7175.8347   -6492.8821   -746.10358     102002.7      46.7237      46.7237      46.7237 
  316000    129.10674   -7203.7715   -6528.7575   -750.93529     102002.7      46.7237      46.7237      46.7237 
  317000    130.51847   -7175.9788   -6493.5838   -796.08056     102002.7      46.7237      46.7237      46.7237 
  318000    132.45482   -7205.7497   -6513.2307    -967.6791     102002.7      46.7237      46.7237      46.7237 
  319000    130.00062   -7174.5936   -6494.9061   -864.64545     102002.7      46.7237      46.7237      46.7237 
  320000    129.46341   -7197.6021   -6520.7233   -861.25312     102002.7      46.7237      46.7237      46.7237 
  321000    130.45334   -7188.6381   -6506.5835   -904.95286     102002.7      46.7237      46.7237      46.7237 
  322000    128.34114   -7191.8756   -6520.8644   -655.16887     102002.7      46.7237      46.7237      46.7237 
  323000    130.37941   -7178.7884   -6497.1204   -517.92158     102002.7      46.7237      46.7237      46.7237 
  324000    134.89902   -7202.6472   -6497.3492   -1000.2361     102002.7      46.7237      46.7237      46.7237 
  325000    127.71301   -7199.7114   -6531.9843   -626.58132     102002.7      46.7237      46.7237      46.7237 
  326000    129.01847   -7169.9886    -6495.436   -1072.6183     102002.7      46.7237      46.7237      46.7237 
  327000     130.5579    -7213.284   -6530.6828    -823.7314     102002.7      46.7237      46.7237      46.7237 
  328000    131.51742   -7198.2461   -6510.6282   -565.79058     102002.7      46.7237      46.7237      46.7237 
  329000    130.83602   -7181.4057   -6497.3504   -817.16084     102002.7      46.7237      46.7237      46.7237 
  330000    129.17818   -7213.2376     -6537.85   -627.65713     102002.7      46.7237      46.7237      46.7237 
  331000     133.2842   -7182.7875   -6485.9323   -801.49861     102002.7      46.7237      46.7237      46.7237 
  332000    132.32505   -7185.2904   -6493.4499    -750.7697     102002.7      46.7237      46.7237      46.7237 
  333000    131.28962   -7222.0886   -6535.6617   -692.76965     102002.7      46.7237      46.7237      46.7237 
  334000    130.42031   -7174.5093   -6492.6275    -711.9639     102002.7      46.7237      46.7237      46.7237 
  335000    125.24788   -7192.7015   -6537.8629   -771.11828     102002.7      46.7237      46.7237      46.7237 
  336000    128.74906   -7170.8267   -6497.6828   -750.30936     102002.7      46.7237      46.7237      46.7237 
  337000    130.19388   -7190.9902   -6510.2922    -635.6264     102002.7      46.7237      46.7237      46.7237 
  338000     128.4872   -7210.4991   -6538.7242   -405.23844     102002.7      46.7237      46.7237      46.7237 
  339000    136.15803   -7208.4725   -6496.5919   -523.61218     102002.7      46.7237      46.7237      46.7237 
  340000    133.41493   -7182.2686   -6484.7298   -790.97077     102002.7      46.7237      46.7237      46.7237 
  341000    129.09627   -7186.7003    -6511.741   -884.02191     102002.7      46.7237      46.7237      46.7237 
  342000    125.64259   -7195.3733    -6538.471   -1002.8041     102002.7      46.7237      46.7237      46.7237 
  343000    129.65193   -7176.5344   -6498.6699   -924.71772     102002.7      46.7237      46.7237      46.7237 
  344000    128.04564   -7191.3434   -6521.8772   -743.73598     102002.7      46.7237      46.7237      46.7237 
  345000    131.19235   -7187.2407   -6501.3224   -722.98209     102002.7      46.7237      46.7237      46.7237 
  346000    133.27819    -7181.067   -6484.2432   -974.19222     102002.7      46.7237      46.7237      46.7237 
  347000    129.83971   -7188.8159   -6509.9696   -770.21486     102002.7      46.7237      46.7237      46.7237 
  348000    127.65255   -7202.9097   -6535.4986   -928.16453     102002.7      46.7237      46.7237      46.7237 
  349000    132.16901   -7203.0691   -6512.0445   -814.99308     102002.7      46.7237      46.7237      46.7237 
  350000    137.30169   -7167.1734   -6449.3133   -1130.2332     102002.7      46.7237      46.7237      46.7237 
  351000    126.73246   -7176.8182   -6514.2177   -741.30159     102002.7      46.7237      46.7237      46.7237 
  352000    128.48033   -7209.6824   -6537.9434   -782.61789     102002.7      46.7237      46.7237      46.7237 
  353000    129.32843   -7159.7181   -6483.5449   -746.78174     102002.7      46.7237      46.7237      46.7237 
  354000    126.78663   -7218.0091   -6555.1254   -757.33447     102002.7      46.7237      46.7237      46.7237 
  355000    134.62368   -7188.1546   -6484.2961   -558.10006     102002.7      46.7237      46.7237      46.7237 
  356000    131.81324   -7176.5339   -6487.3693   -728.58422     102002.7      46.7237      46.7237      46.7237 
  357000    128.85193   -7190.4395   -6516.7576   -713.71064     102002.7      46.7237      46.7237      46.7237 
  358000    129.04503    -7180.807   -6506.1157   -718.96019     102002.7      46.7237      46.7237      46.7237 
  359000    124.88903   -7195.6502   -6542.6878   -686.29908     102002.7      46.7237      46.7237      46.7237 
  360000    128.97585   -7177.8218   -6503.4921   -884.27432     102002.7      46.7237      46.7237      46.7237 
  361000    126.96604   -7177.3433   -6513.5216   -833.31416     102002.7      46.7237      46.7237      46.7237 
  362000    134.83366   -7183.4796   -6478.5233   -963.46316     102002.7      46.7237      46.7237      46.7237 
  363000     127.7651   -7177.8208   -6509.8213   -636.31453     102002.7      46.7237      46.7237      46.7237 
  364000    135.27747   -7161.6153   -6454.3386   -876.99969     102002.7      46.7237      46.7237      46.7237 
  365000    127.63811   -7167.1047   -6499.7691   -1003.7636     102002.7      46.7237      46.7237      46.7237 
  366000    129.61414   -7171.3594   -6493.6926   -610.94101     102002.7      46.7237      46.7237      46.7237 
  367000    128.68593   -7175.9872   -6503.1733   -934.77072     102002.7      46.7237      46.7237      46.7237 
  368000    128.83878   -7177.3093   -6503.6962   -804.12948     102002.7      46.7237      46.7237      46.7237 
  369000    129.22089   -7190.8666   -6515.2557   -562.45929     102002.7      46.7237      46.7237      46.7237 
  370000    130.74995    -7171.858   -6488.2527   -977.32237     102002.7      46.7237      46.7237      46.7237 
  371000    127.86159   -7202.0996   -6533.5957   -712.24926     102002.7      46.7237      46.7237      46.7237 
  372000    132.40466   -7181.9642   -6489.7075   -784.32535     102002.7      46.7237      46.7237      46.7237 
  373000    134.28792   -7185.5441   -6483.4411   -635.10363     102002.7      46.7237      46.7237      46.7237 
  374000     127.3761   -7180.7887    -6514.823    -596.5762     102002.7      46.7237      46.7237      46.7237 
  375000     129.1144   -7168.1381    -6493.084   -675.63277     102002.7      46.7237      46.7237      46.7237 
  376000    129.70097   -7196.6989   -6518.5781   -743.51528     102002.7      46.7237      46.7237      46.7237 
  377000    129.97047   -7165.5733   -6486.0434   -737.99347     102002.7      46.7237      46.7237      46.7237 
  378000    127.42359   -7173.6754   -6507.4614   -625.23831     102002.7      46.7237      46.7237      46.7237 
  379000    130.64356    -7165.299   -6482.2499   -929.47438     102002.7      46.7237      46.7237      46.7237 
  380000    132.55539   -7193.8001   -6500.7553   -473.49707     102002.7      46.7237      46.7237      46.7237 
  381000    125.77693   -7193.1795   -6535.5749   -292.82285     102002.7      46.7237      46.7237      46.7237 
  382000    130.36106   -7188.9841   -6507.4121    -421.0402     102002.7      46.7237      46.7237      46.7237 
  383000    133.60362   -7194.6321   -6496.1068   -674.62391     102002.7      46.7237      46.7237      46.7237 
  384000    131.46905   -7194.0284   -6506.6634   -602.67785     102002.7      46.7237      46.7237      46.7237 
  385000    132.88706   -7151.1436   -6456.3648   -476.82326     102002.7      46.7237      46.7237      46.7237 
  386000    128.45029   -7195.6591   -6524.0772   -466.52188     102002.7      46.7237      46.7237      46.7237 
  387000     129.5545   -7171.6776   -6494.3225   -528.34854     102002.7      46.7237      46.7237      46.7237 
  388000    128.42081   -7167.1597    -6495.732   -347.27906     102002.7      46.7237      46.7237      46.7237 
  389000    129.79809     -7188.88   -6510.2513   -618.80232     102002.7      46.7237      46.7237      46.7237 
  390000     128.7575   -7188.4512   -6515.2632   -719.42427     102002.7      46.7237      46.7237      46.7237 
  391000    127.79749   -7188.5835   -6520.4147   -741.14963     102002.7      46.7237      46.7237      46.7237 
  392000    131.34241   -7207.0396   -6520.3367   -834.58202     102002.7      46.7237      46.7237      46.7237 
  393000    127.20624   -7168.6834   -6503.6058   -524.41038     102002.7      46.7237      46.7237      46.7237 
  394000    135.22054   -7180.2908   -6473.3118   -556.93698     102002.7      46.7237      46.7237      46.7237 
  395000    128.93903   -7181.1878   -6507.0506   -212.77987     102002.7      46.7237      46.7237      46.7237 
  396000    125.51326   -7203.9467   -6547.7206   -643.00741     102002.7      46.7237      46.7237      46.7237 
  397000    128.55785   -7168.0978   -6495.9535   -358.75177     102002.7      46.7237      46.7237      46.7237 
  398000    131.90211   -7154.6064   -6464.9773   -760.57653     102002.7      46.7237      46.7237      46.7237 
  399000    131.14927    -7201.881   -6516.1879   -473.44181     102002.7      46.7237      46.7237      46.7237 
  400000    130.24094    -7190.873    -6509.929    -635.3046     102002.7      46.7237      46.7237      46.7237 
  401000     130.5658   -7180.6988   -6498.0563    -937.5577     102002.7      46.7237      46.7237      46.7237 
  402000    127.42917   -7181.2137   -6514.9706   -591.25576     102002.7      46.7237      46.7237      46.7237 
  403000    129.51894   -7189.9121   -6512.7429   -601.63217     102002.7      46.7237      46.7237      46.7237 
  404000    128.05458   -7169.2041   -6499.6911   -703.00369     102002.7      46.7237      46.7237      46.7237 
  405000     128.0965   -7199.6297   -6529.8976    -818.4028     102002.7      46.7237      46.7237      46.7237 
  406000    129.15969   -7194.6127   -6519.3218   -162.43071     102002.7      46.7237      46.7237      46.7237 
  407000    129.67117   -7185.3702   -6507.4051   -592.25928     102002.7      46.7237      46.7237      46.7237 
  408000    127.94229   -7201.3667   -6532.4408   -691.88834     102002.7      46.7237      46.7237      46.7237 
  409000    131.26196    -7179.142   -6492.8597   -523.46761     102002.7      46.7237      46.7237      46.7237 
  410000    134.09783   -7171.0926   -6469.9834   -819.02044     102002.7      46.7237      46.7237      46.7237 
  411000    131.76432   -7194.0959   -6505.1871    -749.9517     102002.7      46.7237      46.7237      46.7237 
  412000    129.91349   -7191.9506   -6512.7186   -694.13364     102002.7      46.7237      46.7237      46.7237 
  413000     135.2936   -7172.9727   -6465.6116   -759.82619     102002.7      46.7237      46.7237      46.7237 
  414000    130.04873   -7175.7745   -6495.8354   -934.08641     102002.7      46.7237      46.7237      46.7237 
  415000    131.10015   -7188.2953    -6502.859   -760.00724     102002.7      46.7237      46.7237      46.7237 
  416000    133.75829   -7206.0258   -6506.6918   -485.19413     102002.7      46.7237      46.7237      46.7237 
  417000    127.46989   -7194.7514   -6528.2953   -486.67937     102002.7      46.7237      46.7237      46.7237 
  418000    127.19686   -7169.9352   -6504.9066    -644.7113     102002.7      46.7237      46.7237      46.7237 
  419000    128.62566   -7210.9848    -6538.486   -616.38818     102002.7      46.7237      46.7237      46.7237 
  420000    130.77589     -7184.34   -6500.5991   -604.60332     102002.7      46.7237      46.7237      46.7237 
  421000    127.37428    -7180.869   -6514.9129   -597.94818     102002.7      46.7237      46.7237      46.7237 
  422000    130.15562    -7212.816   -6532.3181   -584.56682     102002.7      46.7237      46.7237      46.7237 
  423000    132.48143   -7201.6212   -6508.9631   -901.40651     102002.7      46.7237      46.7237      46.7237 
  424000    133.43715   -7188.5751   -6490.9202   -704.72573     102002.7      46.7237      46.7237      46.7237 
  425000    128.16691   -7183.4917   -6513.3914   -561.21946     102002.7      46.7237      46.7237      46.7237 
  426000    133.27297   -7184.8936   -6488.0971   -494.48209     102002.7      46.7237      46.7237      46.7237 
  427000    129.21533   -7179.3206   -6503.7388    -602.0027     102002.7      46.7237      46.7237      46.7237 
  428000    129.22215    -7207.998   -6532.3805   -629.00933     102002.7      46.7237      46.7237      46.7237 
  429000    130.10647   -7185.0545   -6504.8136   -869.09456     102002.7      46.7237      46.7237      46.7237 
  430000     136.1269   -7204.6092   -6492.8914    -691.8511     102002.7      46.7237      46.7237      46.7237 
  431000    131.59989   -7207.7189   -6519.6698   -593.21192     102002.7      46.7237      46.7237      46.7237 
  432000    131.88412   -7173.2992   -6483.7641   -478.90892     102002.7      46.7237      46.7237      46.7237 
  433000    130.29168   -7203.9365   -6522.7271   -546.86776     102002.7      46.7237      46.7237      46.7237 
  434000    131.61923   -7183.4913   -6495.3412   -550.59403     102002.7      46.7237      46.7237      46.7237 
  435000    125.94371   -7205.7045   -6547.2279   -639.44406     102002.7      46.7237      46.7237      46.7237 
  436000    131.51067   -7201.3668   -6513.7842   -803.62516     102002.7      46.7237      46.7237      46.7237 
  437000    130.03545   -7152.8803   -6473.0106   -965.43102     102002.7      46.7237      46.7237      46.7237 
  438000    133.30049   -7198.2069   -6501.2666   -885.96567     102002.7      46.7237      46.7237      46.7237 
  439000    126.62645   -7199.6714   -6537.6251   -851.13889     102002.7      46.7237      46.7237      46.7237 
  440000    130.04318   -7203.8714   -6523.9613   -503.64261     102002.7      46.7237      46.7237      46.7237 
  441000      128.157   -7156.8165    -6486.768   -829.09202     102002.7      46.7237      46.7237      46.7237 
  442000    125.04569   -7187.8365    -6534.055   -664.60012     102002.7      46.7237      46.7237      46.7237 
  443000    129.13502   -7189.8175   -6514.6556   -674.16203     102002.7      46.7237      46.7237      46.7237 
  444000    130.80423   -7182.1187   -6498.2296   -606.46626     102002.7      46.7237      46.7237      46.7237 
  445000    127.95874   -7187.5371   -6518.5253   -344.59165     102002.7      46.7237      46.7237      46.7237 
  446000    132.89916   -7197.7082   -6502.8661   -455.70435     102002.7      46.7237      46.7237      46.7237 
  447000    134.01765   -7177.1643   -6476.4744   -599.39448     102002.7      46.7237      46.7237      46.7237 
  448000    130.71452   -7166.8397   -6483.4197   -607.89007     102002.7      46.7237      46.7237      46.7237 
  449000    129.67138   -7191.1503   -6513.1841    -720.4498     102002.7      46.7237      46.7237      46.7237 
  450000      130.669   -7197.8856   -6514.7035   -724.64819     102002.7      46.7237      46.7237      46.7237 
  451000     129.6443    -7186.534   -6508.7095   -859.59749     102002.7      46.7237      46.7237      46.7237 
  452000    128.83346   -7198.1158   -6524.5306    -1182.618     102002.7      46.7237      46.7237      46.7237 
  453000     130.1604   -7168.4209    -6487.898   -886.36916     102002.7      46.7237      46.7237      46.7237 
  454000    130.68925   -7195.4312   -6512.1433   -709.92048     102002.7      46.7237      46.7237      46.7237 
  455000    127.20229   -7202.8922   -6537.8353   -933.28416     102002.7      46.7237      46.7237      46.7237 
  456000    132.05126   -7191.0244   -6500.6154   -490.21295     102002.7      46.7237      46.7237      46.7237 
  457000    131.16155   -7203.0993    -6517.342   -552.01066     102002.7      46.7237      46.7237      46.7237 
  458000    127.69421   -7182.5377   -6514.9088   -581.22703     102002.7      46.7237      46.7237      46.7237 
  459000    128.78853   -7198.5418   -6525.1914   -384.67648     102002.7      46.7237      46.7237      46.7237 
  460000    126.56838   -7158.0555   -6496.3129   -747.31236     102002.7      46.7237      46.7237      46.7237 
  461000    133.09131   -7178.2673   -6482.4206   -719.03665     102002.7      46.7237      46.7237      46.7237 
  462000    130.08807   -7191.7085   -6511.5637    -707.6074     102002.7      46.7237      46.7237      46.7237 
  463000    124.96855   -7184.3434   -6530.9653   -668.22367     102002.7      46.7237      46.7237      46.7237 
  464000    130.78465   -7192.5541   -6508.7674   -716.70185     102002.7      46.7237      46.7237      46.7237 
  465000    127.81365   -7184.9989   -6516.7456   -524.20559     102002.7      46.7237      46.7237      46.7237 
  466000    135.04263   -7197.0942   -6491.0453   -736.67483     102002.7      46.7237      46.7237      46.7237 
  467000    130.29069   -7174.1191   -6492.9149   -366.12617     102002.7      46.7237      46.7237      46.7237 
  468000    131.02696   -7174.3929   -6489.3393   -524.31385     102002.7      46.7237      46.7237      46.7237 
  469000    128.38079   -7156.0492   -6484.8307   -644.99887     102002.7      46.7237      46.7237      46.7237 
  470000    129.29056   -7200.6417   -6524.6666   -728.35585     102002.7      46.7237      46.7237      46.7237 
  471000    128.99009   -7197.3053   -6522.9011   -754.77998     102002.7      46.7237      46.7237      46.7237 
  472000    130.07733   -7199.1869   -6519.0983   -398.21235     102002.7      46.7237      46.7237      46.7237 
  473000    132.54641   -7198.5369   -6505.5392   -520.82803     102002.7      46.7237      46.7237      46.7237 
  474000    128.05455   -7174.8436   -6505.3308   -688.27371     102002.7      46.7237      46.7237      46.7237 
  475000    127.08325   -7169.9968   -6505.5622   -832.22697     102002.7      46.7237      46.7237      46.7237 
  476000    130.84094   -7176.2733   -6492.1922   -501.56552     102002.7      46.7237      46.7237      46.7237 
  477000    127.32921   -7181.3371   -6515.6166   -1035.2342     102002.7      46.7237      46.7237      46.7237 
  478000    134.45965   -7188.1443   -6485.1434   -519.98487     102002.7      46.7237      46.7237      46.7237 
  479000    127.87157   -7165.6388   -6497.0826   -700.16713     102002.7      46.7237      46.7237      46.7237 
  480000    132.12519   -7169.4392   -6478.6437    -779.8641     102002.7      46.7237      46.7237      46.7237 
  481000     133.1135   -7202.7697   -6506.8069    -551.4904     102002.7      46.7237      46.7237      46.7237 
  482000    124.82718   -7189.2743   -6536.6353    -406.5881     102002.7      46.7237      46.7237      46.7237 
  483000    129.68943   -7162.5745    -6484.514   -470.13922     102002.7      46.7237      46.7237      46.7237 
  484000    130.14049   -7176.1298    -6495.711   -666.71421     102002.7      46.7237      46.7237      46.7237 
  485000     131.7326   -7173.6203   -6484.8773   -596.27162     102002.7      46.7237      46.7237      46.7237 
  486000    130.36194   -7189.7883   -6508.2116   -707.22527     102002.7      46.7237      46.7237      46.7237 
  487000    130.35161   -7204.8403   -6523.3176   -603.03587     102002.7      46.7237      46.7237      46.7237 
  488000    128.67624    -7173.122   -6500.3587   -708.57296     102002.7      46.7237      46.7237      46.7237 
  489000    131.12691   -7195.8456   -6510.2694   -684.71482     102002.7      46.7237      46.7237      46.7237 
  490000    133.37542   -7179.5398   -6482.2077   -600.76651     102002.7      46.7237      46.7237      46.7237 
  491000    127.63906   -7175.9789   -6508.6384   -792.43607     102002.7      46.7237      46.7237      46.7237 
  492000    131.08144   -7201.5871   -6516.2487   -534.08064     102002.7      46.7237      46.7237      46.7237 
  493000     128.9308   -7162.4768   -6488.3826   -565.24845     102002.7      46.7237      46.7237      46.7237 
  494000    128.40747   -7190.5682   -6519.2102   -641.11715     102002.7      46.7237      46.7237      46.7237 
  495000    130.92499   -7199.4617   -6514.9412   -524.20666     102002.7      46.7237      46.7237      46.7237 
  496000    130.82856   -7166.5442   -6482.5279   -709.99838     102002.7      46.7237      46.7237      46.7237 
  497000    127.93748   -7195.7434   -6526.8426   -693.48992     102002.7      46.7237      46.7237      46.7237 
  498000    132.02269   -7186.7527    -6496.493   -854.95254     102002.7      46.7237      46.7237      46.7237 
  499000    133.69629   -7188.2088    -6489.199   -754.95181     102002.7      46.7237      46.7237      46.7237 
  500000    127.16644    -7173.922   -6509.0525   -981.67792     102002.7      46.7237      46.7237      46.7237 
  500505    127.21155   -7197.7418   -6532.6364   -562.17238     102002.7      46.7237      46.7237      46.7237 
Loop time of 1302.95 on 16 procs for 500000 steps with 1755 atoms

Performance: 33.156 ns/day, 0.724 hours/ns, 383.745 timesteps/s
99.8% CPU use with 16 MPI tasks x no OpenMP threads

MPI task timing breakdown:
Section |  min time  |  avg time  |  max time  |%varavg| %total
---------------------------------------------------------------
Pair    | 491.19     | 691.49     | 881.38     | 529.2 | 53.07
Bond    | 160.94     | 174.02     | 184.53     |  51.5 | 13.36
Neigh   | 4.8682     | 4.9254     | 4.9772     |   2.1 |  0.38
Comm    | 225.87     | 419.42     | 622.35     | 704.7 | 32.19
Output  | 0.02014    | 0.020532   | 0.023069   |   0.5 |  0.00
Modify  | 7.2465     | 7.9482     | 8.6802     |  18.0 |  0.61
Other   |            | 5.12       |            |       |  0.39

Nlocal:    109.688 ave 145 max 81 min
Histogram: 2 0 2 3 3 3 1 1 0 1
Nghost:    2227.69 ave 2256 max 2189 min
Histogram: 1 0 2 0 2 4 1 3 2 1
Neighs:    11444.2 ave 18022 max 6249 min
Histogram: 2 1 4 1 0 2 3 1 1 1

Total # of neighbors = 183107
Ave neighs/atom = 104.334
Ave special neighs/atom = 6.5641
Neighbor list builds = 4083
Dangerous builds = 0
Neighbor list info ...
  update every 1 steps, delay 10 steps, check yes
  max neighbors/atom: 2000, page size: 100000
  master list distance cutoff = 16
  ghost atom cutoff = 16
  binsize = 8, bins = 6 6 6
  3 neighbor lists, perpetual/occasional/extra = 3 0 0
  (1) pair buck6d/coul/gauss/dsf, perpetual, skip from (3)
      attributes: half, newton on
      pair build: skip
      stencil: none
      bin: none
  (2) pair lj/cut, perpetual, skip from (3)
      attributes: half, newton on
      pair build: skip
      stencil: none
      bin: none
  (3) neighbor class addition, perpetual
      attributes: half, newton on
      pair build: half/bin/newton
      stencil: half/bin/3d/newton
      bin: standard
Setting up Verlet run ...
  Unit style    : real
  Current step  : 500505
  Time step     : 1
WARNING: Inconsistent image flags (../domain.cpp:786)
Per MPI rank memory allocation (min/avg/max) = 23.03 | 23.31 | 23.34 Mbytes
Step Time TotEng KinEng PotEng E_mol E_pair Temp Pxx Pyy Pzz Pxy Pxz Pyz Cella Cellb Cellc CellAlpha CellBeta CellGamma Volume Press 
  500505       500000   -6532.6364    665.10535   -7197.7418    4396.1553   -11593.897    127.21155   -345.30471   -424.33351   -916.87894    84.667164   -59.859544    28.664379      46.7237      46.7237      46.7237           90           90           90     102002.7   -562.17238 
  501000       500495   -6493.3607     685.4556   -7178.8163    4420.7857   -11599.602    131.10385   -687.49005   -405.32864    -1447.879    305.08272   -14.640538    34.918616      46.7237      46.7237      46.7237           90           90           90     102002.7   -846.89924 
  502000       501495   -6478.6082    686.54902   -7165.1573    4412.7884   -11577.946    131.31298   -292.70842   -1004.4875   -527.37947   -152.57188   -55.127345   -293.77257      46.7237      46.7237      46.7237           90           90           90     102002.7   -608.19179 
  503000       502495   -6511.6039    697.65153   -7209.2554    4394.7763   -11604.032    133.43651   -1128.2325   -837.37237   -853.91423   -198.26277   -128.63715    177.07529      46.7237      46.7237      46.7237           90           90           90     102002.7   -939.83969 
  504000       503495     -6500.82    673.54589   -7174.3659    4409.4155   -11583.781    128.82593   -369.36078   -388.55654   -718.07551    16.866634    92.491023    70.724317      46.7237      46.7237      46.7237           90           90           90     102002.7   -491.99761 
  505000       504495     -6521.26    669.14342   -7190.4034    4376.3217   -11566.725    127.98389   -492.85707   -1307.7786   -400.24452    116.93499   -190.29517   -216.51702      46.7237      46.7237      46.7237           90           90           90     102002.7   -733.62672 
  506000       505495   -6489.6152    688.10543   -7177.7206    4414.0074   -11591.728    131.61067   -537.49409   -972.90226   -1178.8151   -8.0553337     131.5498   -242.01533      46.7237      46.7237      46.7237           90           90           90     102002.7   -896.40381 
  507000       506495   -6479.7251    693.62774   -7173.3528    4416.9917   -11590.344    132.66689   -1001.9548   -304.63668   -217.93494    129.28422   -95.075035     17.93383      46.7237      46.7237      46.7237           90           90           90     102002.7   -508.17548 
  508000       507495   -6515.6566    671.71722   -7187.3739    4402.9168   -11590.291    128.47617   -928.16075   -638.36512   -827.02116    105.18771   -8.3161522    132.32314      46.7237      46.7237      46.7237           90           90           90     102002.7   -797.84901 
  509000       508495   -6493.0374    688.14871   -7181.1862    4414.0427   -11595.229    131.61895   -678.97276   -315.84314   -940.87397    176.09091    282.12535     359.0089      46.7237      46.7237      46.7237           90           90           90     102002.7   -645.22996 
  510000       509495   -6497.2222     682.2584   -7179.4806    4420.3057   -11599.786    130.49233   -1364.0424   -798.18964   -1030.4264   -439.06476    91.797559    196.80761      46.7237      46.7237      46.7237           90           90           90     102002.7   -1064.2195 
  511000       510495   -6493.4187    684.34382   -7177.7625    4416.6195   -11594.382     130.8912   -734.78123   -1376.0771   -725.95322    16.255319    60.157387   -82.048931      46.7237      46.7237      46.7237           90           90           90     102002.7   -945.60384 
  512000       511495   -6511.3712    656.57131   -7167.9426    4441.6402   -11609.583    125.57929   -762.28661   -948.04259   -572.88726    50.270022    98.038322    221.62382      46.7237      46.7237      46.7237           90           90           90     102002.7   -761.07215 
  513000       512495   -6499.8806    664.76131   -7164.6419    4403.9221   -11568.564    127.14575   -760.72715   -897.86667   -606.62631    166.00011   -528.66144     51.37854      46.7237      46.7237      46.7237           90           90           90     102002.7   -755.07338 
  514000       513495   -6500.3148    666.12924    -7166.444    4426.8644   -11593.308    127.40739   -942.37978   -808.73345   -891.73565    170.18175   -262.97343   -28.652856      46.7237      46.7237      46.7237           90           90           90     102002.7   -880.94963 
  515000       514495   -6480.2432     683.4522   -7163.6954    4419.9611   -11583.656    130.72067   -433.30969   -31.785596    -495.7679   -30.025751    106.45811   -251.79567      46.7237      46.7237      46.7237           90           90           90     102002.7   -320.28773 
  516000       515495   -6515.5799    663.70417   -7179.2841     4405.853   -11585.137    126.94356   -1253.1004   -790.68553   -1142.5281   -23.980234   -88.092065   -104.28745      46.7237      46.7237      46.7237           90           90           90     102002.7   -1062.1047 
  517000       516495   -6524.8459    660.61957   -7185.4655    4423.0245    -11608.49    126.35358   -1385.2484   -459.43568   -740.62418    52.443474     -96.1575   -12.737101      46.7237      46.7237      46.7237           90           90           90     102002.7   -861.76942 
  518000       517495   -6490.6613    706.59578   -7197.2571    4378.7727    -11576.03    135.14723   -442.06864   -865.34197   -892.20578    21.739238    86.739339   -98.432789      46.7237      46.7237      46.7237           90           90           90     102002.7   -733.20547 
  519000       518495   -6507.3031    676.41726   -7183.7204    4414.6776   -11598.398    129.37513   -779.31875   -1120.4928   -1161.6526   -73.922326    199.59195     21.50729      46.7237      46.7237      46.7237           90           90           90     102002.7    -1020.488 
  520000       519495    -6495.633    676.91745   -7172.5504    4426.7803   -11599.331     129.4708   -682.80922   -792.35129   -683.28703   -109.76511   -40.755072     81.55929      46.7237      46.7237      46.7237           90           90           90     102002.7   -719.48251 
  521000       520495   -6475.9327     684.3492   -7160.2819    4434.6764   -11594.958    130.89223   -805.77393   -1031.0244   -784.04979    28.366685   -93.544243   -22.392824      46.7237      46.7237      46.7237           90           90           90     102002.7   -873.61603 
  522000       521495   -6495.7052    675.68304   -7171.3882    4415.8313   -11587.219     129.2347   -578.80242   -405.85842   -601.82972   -131.34167      -87.387    117.76796      46.7237      46.7237      46.7237           90           90           90     102002.7   -528.83019 
  523000       522495   -6549.6223    658.45245   -7208.0747    4389.0419   -11597.117    125.93908    -623.2098   -810.38493   -1034.6672   -187.35641    211.45688    140.10922      46.7237      46.7237      46.7237           90           90           90     102002.7   -822.75399 
  524000       523495   -6497.0497    678.27845   -7175.3281     4398.494   -11573.822    129.73111   -891.42123   -1036.5531   -259.32645    12.645288   -45.286484    115.97459      46.7237      46.7237      46.7237           90           90           90     102002.7   -729.10025 
  525000       524495    -6510.216    671.70542   -7181.9214     4423.651   -11605.572    128.47392   -922.95912    -1206.486   -1062.5964    70.427891    274.77065   -143.82552      46.7237      46.7237      46.7237           90           90           90     102002.7   -1064.0138 
  526000       525495   -6541.7653    661.76761   -7203.5329    4375.7552   -11579.288    126.57316   -679.19218    -1284.622    -292.2035    -358.2972    23.220322   -45.994339      46.7237      46.7237      46.7237           90           90           90     102002.7    -752.0059 
  527000       526495   -6500.3821    673.26532   -7173.6474     4422.955   -11596.602    128.77227   -191.78418   -937.26253   -1265.3711   -171.07903     97.44688   -44.603235      46.7237      46.7237      46.7237           90           90           90     102002.7   -798.13925 
  528000       527495   -6541.9583    648.99297   -7190.9513    4377.0038   -11567.955    124.12981   -631.21163   -568.30083   -946.61863    87.281945    438.32848    19.832884      46.7237      46.7237      46.7237           90           90           90     102002.7   -715.37703 
  529000       528495     -6493.74    671.88017   -7165.6202    4421.1757   -11586.796    128.50734   -864.58703   -494.94114   -618.05858    78.655973    86.537506    73.468579      46.7237      46.7237      46.7237           90           90           90     102002.7   -659.19558 
  530000       529495   -6541.8636    666.89315   -7208.7567    4378.1019   -11586.859    127.55349    92.053538   -791.29759   -337.00726   -50.542927    82.390112   -95.762523      46.7237      46.7237      46.7237           90           90           90     102002.7    -345.4171 
  531000       530495   -6491.2787    677.57879   -7168.8575    4423.8158   -11592.673    129.59729   -256.17079   -654.98634   -522.00987    -177.0658   -5.2553769     342.7224      46.7237      46.7237      46.7237           90           90           90     102002.7   -477.72233 
  532000       531495   -6541.8918     670.1199   -7212.0117    4366.4006   -11578.412    128.17066   -508.60859   -1176.5103   -288.13481    122.57215     -57.8217    257.14236      46.7237      46.7237      46.7237           90           90           90     102002.7   -657.75124 
  533000       532495   -6491.2405    666.88778   -7158.1282    4442.7602   -11600.888    127.55247   -1087.9441   -588.89039   -183.78958   -196.75935    43.622875   -34.388536      46.7237      46.7237      46.7237           90           90           90     102002.7   -620.20802 
  534000       533495   -6511.0374    687.14309   -7198.1805    4405.4089   -11603.589    131.42661   -391.83742   -1027.1803   -659.43352    105.92602    67.034223   -291.72469      46.7237      46.7237      46.7237           90           90           90     102002.7   -692.81709 
  535000       534495   -6503.7881    670.65811   -7174.4462    4428.3563   -11602.802     128.2736   -691.26214   -650.25776   -1095.8711    73.160719   -74.051464     267.5576      46.7237      46.7237      46.7237           90           90           90     102002.7   -812.46366 
  536000       535495    -6468.219    696.52655   -7164.7456    4434.8417   -11599.587    133.22134   -506.03656   -863.39581   -732.29079    38.684911    136.37905    113.85339      46.7237      46.7237      46.7237           90           90           90     102002.7   -700.57439 
  537000       536495    -6522.879    674.08943   -7196.9684     4392.625   -11589.593    128.92989   -592.45394   -578.14518   -1469.9091    90.406424   -8.6427167     133.4805      46.7237      46.7237      46.7237           90           90           90     102002.7    -880.1694 
  538000       537495   -6544.0863    654.70567    -7198.792    4394.7401   -11593.532    125.22245   -256.70833   -959.32484   -956.32985   -95.924526    96.514316    61.391591      46.7237      46.7237      46.7237           90           90           90     102002.7   -724.12101 
  539000       538495   -6504.5874    694.95602   -7199.5434    4379.2124   -11578.756    132.92095   -544.43694   -969.70414   -1162.4959   -33.031012    265.49409   -118.32731      46.7237      46.7237      46.7237           90           90           90     102002.7   -892.21232 
  540000       539495   -6521.9405    669.08457   -7191.0251    4395.4263   -11586.451    127.97264   -707.18425   -778.95098    -1042.742   -19.706648    57.421756   -223.18438      46.7237      46.7237      46.7237           90           90           90     102002.7   -842.95907 
  541000       540495   -6503.0355    672.25908   -7175.2946    4410.6924   -11585.987    128.57981   -516.24901   -686.91107   -795.44268    231.44651    184.41737    -47.72406      46.7237      46.7237      46.7237           90           90           90     102002.7   -666.20092 
  542000       541495   -6509.7949    678.71993   -7188.5148    4398.4435   -11586.958    129.81555    -794.1338   -643.92145   -806.85864    140.21714     168.8845    51.924111      46.7237      46.7237      46.7237           90           90           90     102002.7   -748.30463 
  543000       542495   -6471.7059    699.36682   -7171.0727    4419.5323   -11590.605    133.76458   -608.72029   -824.17378   -393.48459    133.21481   -187.91052   -98.533365      46.7237      46.7237      46.7237           90           90           90     102002.7   -608.79289 
  544000       543495   -6528.8429    681.85899   -7210.7019    4368.7283    -11579.43    130.41594   -147.58007   -33.724715   -540.96404   -53.349931   -379.47184    -91.67873      46.7237      46.7237      46.7237           90           90           90     102002.7   -240.75627 
  545000       544495   -6480.3492    692.35315   -7172.7024    4418.0186   -11590.721    132.42311    -714.2355    -580.3595   -438.50658    102.22139    -251.8158   -40.115294      46.7237      46.7237      46.7237           90           90           90     102002.7   -577.70053 
  546000       545495   -6506.9605    696.51988   -7203.4803    4396.5273   -11600.008    133.22006   -403.23668   -738.83442   -842.32883     58.10235   -21.914414   -41.874412      46.7237      46.7237      46.7237           90           90           90     102002.7   -661.46664 
  547000       546495   -6526.2731     674.8411   -7201.1142    4403.1682   -11604.282    129.07366   -669.95603   -745.80685   -842.59247   -323.73834      43.9081     26.13329      46.7237      46.7237      46.7237           90           90           90     102002.7   -752.78512 
  548000       547495   -6495.1537    696.41377   -7191.5674    4406.2128    -11597.78    133.19977    -983.7191   -1324.7814   -720.64209     16.14086    60.052068   -21.379358      46.7237      46.7237      46.7237           90           90           90     102002.7   -1009.7142 
  549000       548495   -6505.2801    674.87971   -7180.1598     4401.054   -11581.214    129.08105    -1015.332   -1020.2624   -587.74356   -122.77477     54.64026   -18.707885      46.7237      46.7237      46.7237           90           90           90     102002.7   -874.44597 
  550000       549495   -6485.1603    681.77202   -7166.9323    4433.3777    -11600.31    130.39931   -779.62428   -767.34569   -1161.6715    -434.3665    166.85156   -53.431889      46.7237      46.7237      46.7237           90           90           90     102002.7    -902.8805 
  551000       550495   -6506.5591    686.10547   -7192.6646    4411.1076   -11603.772    131.22815    -890.8775   -812.88037   -527.71696    210.53745   -122.81031   -194.81193      46.7237      46.7237      46.7237           90           90           90     102002.7   -743.82494 
  552000       551495   -6532.8136    679.78531    -7212.599    4399.0507    -11611.65    130.01932    -250.8703   -805.48839   -610.56095    109.32704    68.722147   -69.874526      46.7237      46.7237      46.7237           90           90           90     102002.7   -555.63988 
  553000       552495   -6526.4523    666.22897   -7192.6813    4407.1668   -11599.848    127.42646   -525.92899   -330.69888   -771.99645   -122.06224    28.363717    61.662645      46.7237      46.7237      46.7237           90           90           90     102002.7   -542.87477 
  554000       553495   -6519.6941    666.80075   -7186.4948     4424.227   -11610.722    127.53582   -847.71214   -1096.1699   -206.41582   -7.4762935    1.0625714   -19.609504      46.7237      46.7237      46.7237           90           90           90     102002.7   -716.76594 
  555000       554495   -6474.3561    691.28529   -7165.6414     4423.354   -11588.995    132.21887     -703.818   -847.47991   -40.626712    198.04904    44.162842    229.44673      46.7237      46.7237      46.7237           90           90           90     102002.7   -530.64154 
[...]
  936000       935495   -6521.9526    710.26926   -7232.2219    4353.5475   -11585.769    135.84984   -1061.9273   -630.00012   -848.97685   -34.656944    103.50971   -123.18757      46.7237      46.7237      46.7237           90           90           90     102002.7    -846.9681 
  937000       936495   -6503.2149    688.79012   -7192.0051    4400.3466   -11592.352    131.74163   -413.28751   -1138.3957   -562.64533   -73.274037    50.835684   -60.396737      46.7237      46.7237      46.7237           90           90           90     102002.7   -704.77618 
  938000       937495    -6544.049    651.27327   -7195.3223    4402.5977    -11597.92    124.56596   -548.72224   -747.37683   -241.48171   -213.86268    61.189904    105.91042      46.7237      46.7237      46.7237           90           90           90     102002.7   -512.52693 
  939000       938495   -6489.7083    678.00743   -7167.7157    4420.0311   -11587.747    129.67927   -1085.3946   -335.81012   -755.45471    11.840771    82.833961   -6.3012404      46.7237      46.7237      46.7237           90           90           90     102002.7   -725.55315 
  940000       939495   -6514.3058    669.60986   -7183.9156    4420.3879   -11604.304    128.07311   -493.49216   -799.55486   -905.44034    286.98926    -114.2603   -176.38622      46.7237      46.7237      46.7237           90           90           90     102002.7   -732.82912 
  941000       940495   -6518.3501    653.11523   -7171.4653    4422.9077   -11594.373    124.91826   -249.80165   -658.11578   -907.91257    155.52211    370.48792    -377.6456      46.7237      46.7237      46.7237           90           90           90     102002.7   -605.27666 
  942000       941495   -6492.1934    670.24074   -7162.4342    4424.5031   -11586.937    128.19377   -851.46192   -439.96032   -753.76805   -2.7553545    240.20325    82.414828      46.7237      46.7237      46.7237           90           90           90     102002.7    -681.7301 
  943000       942495   -6555.8924    660.34787   -7216.2402     4371.837   -11588.077    126.30161   -958.11558   -871.60715   -468.78159   -73.833402   -33.776397    90.907812      46.7237      46.7237      46.7237           90           90           90     102002.7   -766.16811 
  944000       943495   -6498.8009    698.07891   -7196.8798    4405.7808   -11602.661    133.51825   -577.78868    -1026.144   -777.32885    199.18714   -51.512581   -17.051922      46.7237      46.7237      46.7237           90           90           90     102002.7   -793.75384 
  945000       944495   -6485.4464    673.85782   -7159.3042    4422.7309   -11582.035     128.8856   -484.80021   -800.24517   -399.40857   -71.915394    7.9195853    317.33141      46.7237      46.7237      46.7237           90           90           90     102002.7   -561.48465 
  946000       945495   -6521.1219    669.92654   -7191.0484    4407.8559   -11598.904    128.13368   -896.99569   -744.29684   -560.93834   -237.44359   -90.888712    72.046498      46.7237      46.7237      46.7237           90           90           90     102002.7   -734.07696 
  947000       946495   -6503.0787    678.10305   -7181.1818    4394.9999   -11576.182    129.69756   -415.07726   -938.96775   -176.13014   -119.23167   -190.81584   -16.246015      46.7237      46.7237      46.7237           90           90           90     102002.7   -510.05838 
  948000       947495   -6517.3596    671.31912   -7188.6788     4429.622   -11618.301    128.40003   -688.46906   -1093.3753   -765.60226   -8.4107947    125.84752   -74.423038      46.7237      46.7237      46.7237           90           90           90     102002.7   -849.14887 
  949000       948495   -6497.1908    680.31648   -7177.5073    4417.7471   -11595.254    130.12091   -968.95799   -279.31161   -874.97623   -320.11166   -200.99422   -125.19788      46.7237      46.7237      46.7237           90           90           90     102002.7   -707.74861 
  950000       949495   -6513.0913    683.56457   -7196.6559    4403.3777   -11600.034    130.74216   -435.73817   -368.91337   -1539.3861   -28.189189    193.45099   -76.998364      46.7237      46.7237      46.7237           90           90           90     102002.7   -781.34589 
  951000       950495   -6529.2162    669.93835   -7199.1546    4410.2912   -11609.446    128.13594   -818.07113   -1379.5451   -543.00895     192.7073    104.60775   -191.56269      46.7237      46.7237      46.7237           90           90           90     102002.7   -913.54173 
  952000       951495   -6492.6172    694.49939   -7187.1166    4418.6806   -11605.797    132.83361   -884.32089   -713.07991   -536.36399   -113.20707    133.78667   -152.85702      46.7237      46.7237      46.7237           90           90           90     102002.7   -711.25493 
  953000       952495   -6505.7764    687.77362     -7193.55    4401.5664   -11595.116     131.5472   -869.23372   -780.01225   -881.77262    78.641615   -94.026029   -74.821657      46.7237      46.7237      46.7237           90           90           90     102002.7   -843.67286 
  954000       953495   -6528.6914    681.97558    -7210.667    4368.4641   -11579.131    130.43824   -195.53857   -1212.8035   -682.19443    163.36479    78.340967   -174.04374      46.7237      46.7237      46.7237           90           90           90     102002.7   -696.84549 
  955000       954495   -6483.0383    691.18291   -7174.2212    4423.4682   -11597.689    132.19928   -615.86463   -828.11258   -481.81333   -75.747387     62.52638   -482.67555      46.7237      46.7237      46.7237           90           90           90     102002.7   -641.93018 
  956000       955495   -6515.7077      683.262   -7198.9697    4401.8297   -11600.799    130.68429   -1078.4732   -469.80838   -445.94658    36.439794    20.307917    145.85677      46.7237      46.7237      46.7237           90           90           90     102002.7   -664.74271 
  957000       956495   -6505.1856    674.59855   -7179.7841     4398.793   -11578.577    129.02727   -397.11426   -508.94863   -665.68593   -1.9060276    102.72896   -138.77187      46.7237      46.7237      46.7237           90           90           90     102002.7   -523.91627 
  958000       957495   -6518.1401    690.48244   -7208.6225    4376.2964   -11584.919    132.06531   -562.60916   -273.60836   -622.62825    166.36285    200.82877   -89.186529      46.7237      46.7237      46.7237           90           90           90     102002.7   -486.28192 
  959000       958495   -6483.8714    700.78527   -7184.6567    4407.6915   -11592.348    134.03588   -1129.9162   -736.74902   -834.09454   -377.66627    14.735844   -125.64795      46.7237      46.7237      46.7237           90           90           90     102002.7   -900.25326 
  960000       959495   -6497.1569     703.3225   -7200.4794    4413.6568   -11614.136    134.52117   -498.84187   -47.910707   -639.84901   -183.58736   -26.739254   -47.253049      46.7237      46.7237      46.7237           90           90           90     102002.7   -395.53386 
  961000       960495   -6539.4127     666.4632   -7205.8759    4389.2899   -11595.166    127.47126   -477.62066   -533.78323   -445.53218    196.92851   -33.140913   -115.26058      46.7237      46.7237      46.7237           90           90           90     102002.7   -485.64536 
  962000       961495   -6484.7736     669.4212   -7154.1948    4436.2987   -11590.494    128.03702   -774.84845    -955.0269   -1060.3026   -360.49027    8.9608621    306.52795      46.7237      46.7237      46.7237           90           90           90     102002.7   -930.05931 
  963000       962495   -6528.8724    644.03585   -7172.9083    4417.2616    -11590.17    123.18169    -358.3778   -639.45467   -650.30858   -43.778661   -201.16318    122.77766      46.7237      46.7237      46.7237           90           90           90     102002.7   -549.38035 
  964000       963495   -6511.8397    661.14504   -7172.9847    4417.0276   -11590.012    126.45408   -917.23241   -907.49228   -712.55009    106.29465   -74.831337    15.304718      46.7237      46.7237      46.7237           90           90           90     102002.7   -845.75826 
  965000       964495   -6487.5365    694.78678   -7182.3233    4406.1359   -11588.459    132.88858   -589.27567    -986.1435   -639.81356   -39.700695    335.22343   -153.41682      46.7237      46.7237      46.7237           90           90           90     102002.7   -738.41091 
  966000       965495   -6526.6635    670.67039   -7197.3339    4408.2711   -11605.605    128.27595   -1001.9604   -1307.9241   -936.05294   -30.802506    39.361951   -135.40105      46.7237      46.7237      46.7237           90           90           90     102002.7   -1081.9791 
  967000       966495   -6505.6941    673.58969   -7179.2838    4411.0777   -11590.362    128.83431   -612.90139   -1050.1367   -761.96043    148.20966   -435.79455    85.542848      46.7237      46.7237      46.7237           90           90           90     102002.7   -808.33284 
  968000       967495   -6529.1656    648.53503   -7177.7007    4423.1354   -11600.836    124.04223   -812.94228   -834.96585   -1246.5892    186.12882   -25.728965   -172.70726      46.7237      46.7237      46.7237           90           90           90     102002.7   -964.83246 
  969000       968495   -6489.1698    685.83554   -7175.0053    4401.2092   -11576.214    131.17652   -635.88046   -1024.5807   -570.77178   -135.39754    68.770015    211.78424      46.7237      46.7237      46.7237           90           90           90     102002.7   -743.74431 
  970000       969495    -6533.282    667.12526   -7200.4072    4398.4274   -11598.835    127.59789   -740.03918   -1070.5314   -599.54966    279.30625     20.92617   -29.113332      46.7237      46.7237      46.7237           90           90           90     102002.7   -803.37342 
  971000       970495   -6489.2265    699.87927   -7189.1058     4394.365   -11583.471     133.8626   -997.03527   -677.98129   -623.69917    137.33294   -8.0103019    27.197527      46.7237      46.7237      46.7237           90           90           90     102002.7   -766.23858 
  972000       971495   -6516.3081    673.47546   -7189.7836    4408.3904   -11598.174    128.81246   -611.83375   -735.52539   -938.40466    -100.3544   -3.7525581   -10.031273      46.7237      46.7237      46.7237           90           90           90     102002.7   -761.92127 
  973000       972495   -6489.5871    689.83445   -7179.4215    4405.7737   -11585.195    131.94137   -665.30257   -657.32496   -904.08522   -110.69851  -0.18318814   -22.603019      46.7237      46.7237      46.7237           90           90           90     102002.7   -742.23758 
  974000       973495   -6522.6829    652.13161   -7174.8145    4410.5036   -11585.318    124.73013   -599.91648   -828.04201   -486.69523   -50.987417    68.960313   -137.90223      46.7237      46.7237      46.7237           90           90           90     102002.7   -638.21791 
  975000       974495   -6509.5384    682.98655    -7192.525    4405.1239   -11597.649     130.6316   -559.29432   -624.89916   -925.54683    211.34262    14.528323   -3.4955366      46.7237      46.7237      46.7237           90           90           90     102002.7   -703.24677 
  976000       975495    -6508.971    669.18337   -7178.1543    4426.9047   -11605.059    127.99154    -880.4617   -1191.9328     -485.673   -429.85204   -86.046539   -58.370522      46.7237      46.7237      46.7237           90           90           90     102002.7   -852.68916 
  977000       976495   -6497.6464    682.50598   -7180.1524     4418.452   -11598.604    130.53969   -493.63254   -277.54327   -716.25002    24.886918   -54.200262   -348.78877      46.7237      46.7237      46.7237           90           90           90     102002.7   -495.80861 
  978000       977495   -6504.2892    688.73835   -7193.0275    4386.8081   -11579.836    131.73172   -708.29225    -517.5929   -562.13142    394.11123    211.17155    44.479103      46.7237      46.7237      46.7237           90           90           90     102002.7   -596.00553 
  979000       978495   -6523.0613     665.0801   -7188.1414    4408.7922   -11596.934    127.20672   -794.73681   -438.02182   -590.49157    204.14581   -20.636353   -119.69157      46.7237      46.7237      46.7237           90           90           90     102002.7   -607.75007 
  980000       979495   -6479.3854    686.35949   -7165.7449     4420.066   -11585.811    131.27673   -522.15343   -462.35778   -568.38151    185.41667    -141.6996   -12.746203      46.7237      46.7237      46.7237           90           90           90     102002.7   -517.63091 
  981000       980495   -6505.3927    662.85178   -7168.2445    4429.9094   -11598.154    126.78052   -308.70227    -597.4954   -531.24593    112.77296    100.82139    106.50297      46.7237      46.7237      46.7237           90           90           90     102002.7   -479.14787 
  982000       981495   -6528.1157    659.18295   -7187.2987    4399.7096   -11587.008     126.0788   -815.67497   -796.31568   -292.35024   -73.482994   -343.45133    36.407277      46.7237      46.7237      46.7237           90           90           90     102002.7    -634.7803 
  983000       982495   -6528.7665    670.72887   -7199.4954    4424.5233   -11624.019    128.28714   -742.52934   -877.29508   -1097.8587    235.93111   -82.442316    72.190808      46.7237      46.7237      46.7237           90           90           90     102002.7   -905.89439 
  984000       983495   -6504.2429     680.8546   -7185.0975    4378.5921    -11563.69    130.22384   -655.61488   -1163.8881   -728.54969   -100.67295   -165.99166    -201.1724      46.7237      46.7237      46.7237           90           90           90     102002.7    -849.3509 
  985000       984495     -6502.58    698.43967   -7201.0197    4402.9368   -11603.956    133.58725   -595.47367    -740.0031   -267.11557     212.0085   -205.75347   -116.04894      46.7237      46.7237      46.7237           90           90           90     102002.7   -534.19744 
  986000       985495   -6537.2702    666.04887   -7203.3191    4378.2263   -11581.545    127.39201   -749.68106   -1019.8741    -1325.326   -138.93465    0.6339791   -110.51781      46.7237      46.7237      46.7237           90           90           90     102002.7   -1031.6271 
  987000       986495   -6501.3295    687.77929   -7189.1088    4407.3525   -11596.461    131.54829   -314.47031   -949.90879    -694.3465     166.9783   -84.620498   -131.29258      46.7237      46.7237      46.7237           90           90           90     102002.7   -652.90853 
  988000       987495   -6500.3658    677.54097   -7177.9068    4419.3742   -11597.281    129.59005   -679.67219    -30.34383   -923.12977   -164.44124    95.879322    65.879759      46.7237      46.7237      46.7237           90           90           90     102002.7   -544.38193 
  989000       988495   -6516.9757    671.75907   -7188.7348    4406.6438   -11595.379    128.48418   -508.67649   -796.32803   -771.24793   -181.39834    150.32561   -58.874011      46.7237      46.7237      46.7237           90           90           90     102002.7   -692.08415 
  990000       989495   -6502.9712    695.55293   -7198.5242     4398.681   -11597.205    133.03512   -594.50805   -866.68312   -768.32823    62.022163    37.475723   -91.243936      46.7237      46.7237      46.7237           90           90           90     102002.7   -743.17314 
  991000       990495   -6515.0517    672.20267   -7187.2544    4395.2679   -11582.522    128.56902   -763.99222   -726.09154    -796.9798   -15.051005    125.49879    149.33877      46.7237      46.7237      46.7237           90           90           90     102002.7   -762.35452 
  992000       991495   -6497.7903    675.73915   -7173.5294    4417.4059   -11590.935    129.24543   -170.63313   -976.73315   -833.97377   -324.66449    -127.9846    93.120646      46.7237      46.7237      46.7237           90           90           90     102002.7   -660.44668 
  993000       992495   -6525.6402    677.17515   -7202.8154    4388.5275   -11591.343    129.52009   -592.01089   -265.83279   -502.74725   -103.03495    73.716628   -131.87815      46.7237      46.7237      46.7237           90           90           90     102002.7   -453.53031 
  994000       993495   -6515.5108    662.51818   -7178.0289    4415.6528   -11593.682    126.71672   -813.11233    -739.5115   -358.37525    121.37681    33.589561   -69.660261      46.7237      46.7237      46.7237           90           90           90     102002.7   -636.99969 
  995000       994495   -6483.3198    685.06334   -7168.3831    4426.7579   -11595.141    131.02882   -576.92524   -302.11719   -168.48572   -86.795155   -37.707627   -48.224524      46.7237      46.7237      46.7237           90           90           90     102002.7   -349.17605 
  996000       995495   -6506.7198    684.41286   -7191.1326    4397.1879   -11588.321    130.90441   -423.69353   -761.02611   -574.59203    34.355541    107.34861    -17.41666      46.7237      46.7237      46.7237           90           90           90     102002.7   -586.43722 
  997000       996495   -6517.9076    671.45225   -7189.3598    4412.8286   -11602.188    128.42549   -1041.3881   -610.66014   -604.55198   -234.85457    95.646288   -57.762335      46.7237      46.7237      46.7237           90           90           90     102002.7   -752.20009 
  998000       997495   -6482.7956    696.83852   -7179.6341    4430.1143   -11609.748      133.281   -467.03205    -1068.088   -594.91304    -71.11587     302.3108   -110.68347      46.7237      46.7237      46.7237           90           90           90     102002.7   -710.01102 
  999000       998495   -6520.0339    676.34595   -7196.3798    4412.4519   -11608.832    129.36149   -1116.3986   -708.59377   -1250.8048    83.056327     99.75539   -59.489494      46.7237      46.7237      46.7237           90           90           90     102002.7   -1025.2657 
 1000000       999495   -6479.9318    695.10926   -7175.0411     4410.239    -11585.28    132.95026   -849.27671   -680.81056   -883.23473   -240.32073    -9.298913    2.9645148      46.7237      46.7237      46.7237           90           90           90     102002.7   -804.44067 
 1000505      1000000   -6494.7888    672.64508   -7167.4339    4422.3367   -11589.771    128.65364   -783.26742   -620.96378   -1019.7809   -262.95929   -202.66695    -73.40847      46.7237      46.7237      46.7237           90           90           90     102002.7   -808.00404 
Loop time of 1487.77 on 16 procs for 500000 steps with 1755 atoms

Performance: 29.037 ns/day, 0.827 hours/ns, 336.073 timesteps/s
99.9% CPU use with 16 MPI tasks x no OpenMP threads

MPI task timing breakdown:
Section |  min time  |  avg time  |  max time  |%varavg| %total
---------------------------------------------------------------
Pair    | 510.4      | 777.88     | 1008.6     | 651.4 | 52.28
Bond    | 160.87     | 183.3      | 207.87     | 110.4 | 12.32
Neigh   | 4.8611     | 4.9241     | 4.9803     |   2.1 |  0.33
Comm    | 249.68     | 494.49     | 776.71     | 877.7 | 33.24
Output  | 0.097454   | 0.10224    | 0.10262    |   0.4 |  0.01
Modify  | 20.899     | 21.96      | 22.934     |  13.4 |  1.48
Other   |            | 5.125      |            |       |  0.34

Nlocal:    109.688 ave 134 max 74 min
Histogram: 2 0 1 2 1 1 1 2 1 5
Nghost:    2231.31 ave 2267 max 2195 min
Histogram: 1 1 3 2 0 3 1 3 0 2
Neighs:    11453.8 ave 17126 max 5775 min
Histogram: 2 1 2 2 2 1 0 2 2 2

Total # of neighbors = 183261
Ave neighs/atom = 104.422
Ave special neighs/atom = 6.5641
Neighbor list builds = 4041
Dangerous builds = 0
Total wall time: 0:46:33
