LAMMPS (30 Mar 2018)
Reading data file ...
  orthogonal box = (0 0 0) to (46.7237 46.7237 46.7237)
  2 by 2 by 4 MPI processor grid
  reading atoms ...
  1917 atoms
  scanning bonds ...
  5 = max bonds/atom
  scanning angles ...
  10 = max angles/atom
  scanning dihedrals ...
  32 = max dihedrals/atom
  scanning impropers ...
  3 = max impropers/atom
  reading bonds ...
  2064 bonds
  reading angles ...
  3696 angles
  reading dihedrals ...
  6240 dihedrals
  reading impropers ...
  1008 impropers
Finding 1-2 1-3 1-4 neighbors ...
  special bond factors lj:   0          0          0         
  special bond factors coul: 0          0          0         
  5 = max # of 1-2 neighbors
  8 = max # of 1-3 neighbors
  20 = max # of 1-4 neighbors
  19 = max # of special neighbors
Finding 1-2 1-3 1-4 neighbors ...
  special bond factors lj:   0          0          1         
  special bond factors coul: 1          1          1         
  5 = max # of 1-2 neighbors
  8 = max # of 1-3 neighbors
  19 = max # of special neighbors
WARNING: Using 'neigh_modify every 1 delay 0 check yes' setting during minimization (../min.cpp:168)
Neighbor list info ...
  update every 1 steps, delay 0 steps, check yes
  max neighbors/atom: 2000, page size: 100000
  master list distance cutoff = 16
  ghost atom cutoff = 16
  binsize = 8, bins = 6 6 6
  3 neighbor lists, perpetual/occasional/extra = 3 0 0
  (1) pair buck6d/coul/gauss/dsf, perpetual, skip from (3)
      attributes: half, newton on
      pair build: skip
      stencil: none
      bin: none
  (2) pair lj/cut, perpetual, skip from (3)
      attributes: half, newton on
      pair build: skip
      stencil: none
      bin: none
  (3) neighbor class addition, perpetual
      attributes: half, newton on
      pair build: half/bin/newton
      stencil: half/bin/3d/newton
      bin: standard
Setting up cg style minimization ...
  Unit style    : real
  Current step  : 0
WARNING: Inconsistent image flags (../domain.cpp:786)
Per MPI rank memory allocation (min/avg/max) = 22.9 | 23.36 | 23.8 Mbytes
Step Temp E_pair E_mol TotEng Press 
       0            0   -12114.823    6482.8914   -5631.9314    6085.0052 
     503            0   -12155.913    3713.1824   -8442.7309   -586.61874 
Loop time of 2.99624 on 16 procs for 503 steps with 1917 atoms

99.9% CPU use with 16 MPI tasks x no OpenMP threads

Minimization stats:
  Stopping criterion = max force evaluations
  Energy initial, next-to-last, final = 
        -5631.93140145     -8442.70050278     -8442.73088482
  Force two-norm initial, final = 2576.05 7.93695
  Force max component initial, final = 152.061 1.32717
  Final line search alpha, max atom move = 0.00554854 0.00736384
  Iterations, force evaluations = 503 1001

MPI task timing breakdown:
Section |  min time  |  avg time  |  max time  |%varavg| %total
---------------------------------------------------------------
Pair    | 1.3544     | 1.7663     | 2.2323     |  21.9 | 58.95
Bond    | 0.29068    | 0.35957    | 0.42701    |   6.0 | 12.00
Neigh   | 0.017028   | 0.017101   | 0.017164   |   0.0 |  0.57
Comm    | 0.3541     | 0.8132     | 1.2422     |  32.3 | 27.14
Output  | 0          | 0          | 0          |   0.0 |  0.00
Modify  | 0          | 0          | 0          |   0.0 |  0.00
Other   |            | 0.04008    |            |       |  1.34

Nlocal:    119.812 ave 129 max 110 min
Histogram: 1 2 0 3 2 3 0 2 2 1
Nghost:    2359.06 ave 2369 max 2348 min
Histogram: 2 0 1 2 2 3 0 2 3 1
Neighs:    11466.2 ave 15252 max 7515 min
Histogram: 1 2 4 0 1 0 1 4 1 2

Total # of neighbors = 183460
Ave neighs/atom = 95.7016
Ave special neighs/atom = 6.00939
Neighbor list builds = 12
Dangerous builds = 0
Neighbor list info ...
  update every 1 steps, delay 10 steps, check yes
  max neighbors/atom: 2000, page size: 100000
  master list distance cutoff = 16
  ghost atom cutoff = 16
  binsize = 8, bins = 6 6 6
  3 neighbor lists, perpetual/occasional/extra = 3 0 0
  (1) pair buck6d/coul/gauss/dsf, perpetual, skip from (3)
      attributes: half, newton on
      pair build: skip
      stencil: none
      bin: none
  (2) pair lj/cut, perpetual, skip from (3)
      attributes: half, newton on
      pair build: skip
      stencil: none
      bin: none
  (3) neighbor class addition, perpetual
      attributes: half, newton on
      pair build: half/bin/newton
      stencil: half/bin/3d/newton
      bin: standard
Setting up Verlet run ...
  Unit style    : real
  Current step  : 503
  Time step     : 1
WARNING: Inconsistent image flags (../domain.cpp:786)
Per MPI rank memory allocation (min/avg/max) = 22.55 | 22.61 | 22.68 Mbytes
Step Temp PotEng TotEng Press Volume Lx Ly Lz 
     503           91   -8442.7309   -7923.0088   -353.70647     102002.7      46.7237      46.7237      46.7237 
    1000    81.132368   -7994.2305   -7530.8647   -683.84881     102002.7      46.7237      46.7237      46.7237 
    2000    95.214673   -7911.2067   -7367.4136   -552.90817     102002.7      46.7237      46.7237      46.7237 
    3000     90.08008   -7893.1097   -7378.6414   -764.86426     102002.7      46.7237      46.7237      46.7237 
    4000     88.58233   -7897.6226   -7391.7084   -459.09975     102002.7      46.7237      46.7237      46.7237 
    5000    89.892662   -7885.9921   -7372.5942   -751.27866     102002.7      46.7237      46.7237      46.7237 
    6000    92.971786   -7903.3801   -7372.3966   -652.81852     102002.7      46.7237      46.7237      46.7237 
    7000    91.051845   -7908.0306   -7388.0124   -363.12147     102002.7      46.7237      46.7237      46.7237 
    8000    94.968061   -7895.4599   -7353.0753   -470.78713     102002.7      46.7237      46.7237      46.7237 
    9000    89.759822   -7884.4796   -7371.8404   -495.19753     102002.7      46.7237      46.7237      46.7237 
   10000    90.285651   -7909.9601   -7394.3178   -321.91827     102002.7      46.7237      46.7237      46.7237 
   11000    90.251389   -7904.3877   -7388.9411   -569.74614     102002.7      46.7237      46.7237      46.7237 
   12000     90.88965   -7900.9242   -7381.8323   -479.73678     102002.7      46.7237      46.7237      46.7237 
   13000    91.528135   -7902.7209   -7379.9825   -595.78584     102002.7      46.7237      46.7237      46.7237 
   14000    87.610044   -7898.9292   -7398.5679     -334.798     102002.7      46.7237      46.7237      46.7237 
   15000    94.397389   -7899.4596   -7360.3342   -271.81301     102002.7      46.7237      46.7237      46.7237 
   16000    91.407298    -7907.029   -7384.9807   -619.14141     102002.7      46.7237      46.7237      46.7237 
   17000    91.738108   -7895.4506    -7371.513   -589.11092     102002.7      46.7237      46.7237      46.7237 
   18000    90.786741   -7877.4135   -7358.9093   -364.11632     102002.7      46.7237      46.7237      46.7237 
   19000    92.053234   -7905.3689   -7379.6315   -366.49981     102002.7      46.7237      46.7237      46.7237 
   20000    89.904891   -7908.5307    -7395.063   -614.47464     102002.7      46.7237      46.7237      46.7237 
   21000    92.692385     -7900.35   -7370.9623   -365.53944     102002.7      46.7237      46.7237      46.7237 
   22000    88.746063   -7888.3798   -7381.5304   -750.83765     102002.7      46.7237      46.7237      46.7237 
   23000     88.89498   -7903.3177   -7395.6178   -720.44663     102002.7      46.7237      46.7237      46.7237 
   24000    92.939947   -7892.1118   -7361.3102   -455.95864     102002.7      46.7237      46.7237      46.7237 
   25000    90.376121   -7890.9318   -7374.7728   -624.78607     102002.7      46.7237      46.7237      46.7237 
   26000    94.020414     -7892.68   -7355.7076   -770.43214     102002.7      46.7237      46.7237      46.7237 
   27000    90.637921   -7886.1965   -7368.5423   -762.34366     102002.7      46.7237      46.7237      46.7237 
   28000    94.690815    -7903.277   -7362.4758   -895.37205     102002.7      46.7237      46.7237      46.7237 
   29000    90.428732   -7904.5635    -7388.104    -799.5574     102002.7      46.7237      46.7237      46.7237 
   30000    91.175336   -7894.9645    -7374.241   -848.11692     102002.7      46.7237      46.7237      46.7237 
   31000    94.065385   -7899.6936   -7362.4644   -600.74108     102002.7      46.7237      46.7237      46.7237 
   32000    89.411619   -7871.2127   -7360.5622    -566.3161     102002.7      46.7237      46.7237      46.7237 
   33000    88.669867   -7897.6308   -7391.2167   -745.77782     102002.7      46.7237      46.7237      46.7237 
   34000    90.690035   -7886.7809    -7368.829   -824.44117     102002.7      46.7237      46.7237      46.7237 
   35000    93.130243   -7890.7883   -7358.8998   -549.12093     102002.7      46.7237      46.7237      46.7237 
   36000     92.05662   -7889.5184   -7363.7617   -527.16743     102002.7      46.7237      46.7237      46.7237 
   37000    88.617768   -7888.6517    -7382.535    -789.2428     102002.7      46.7237      46.7237      46.7237 
   38000    91.888695   -7886.5748   -7361.7772   -893.25087     102002.7      46.7237      46.7237      46.7237 
   39000    92.264004   -7904.6473   -7377.7062   -582.60771     102002.7      46.7237      46.7237      46.7237 
   40000    88.392595   -7906.7415   -7401.9108   -571.11736     102002.7      46.7237      46.7237      46.7237 
   41000    92.375143   -7885.7678   -7358.1919   -890.63139     102002.7      46.7237      46.7237      46.7237 
   42000    90.350117   -7898.4843   -7382.4738   -734.05292     102002.7      46.7237      46.7237      46.7237 
   43000    88.974855   -7911.2412   -7403.0851   -757.80502     102002.7      46.7237      46.7237      46.7237 
   44000    88.794515   -7889.5578   -7382.4317   -580.60761     102002.7      46.7237      46.7237      46.7237 
   45000    91.392682   -7883.6429   -7361.6781   -479.01723     102002.7      46.7237      46.7237      46.7237 
   46000    90.862244   -7893.0551   -7374.1197   -796.68991     102002.7      46.7237      46.7237      46.7237 
   47000    90.240999   -7887.1656   -7371.7783     -418.502     102002.7      46.7237      46.7237      46.7237 
   48000    90.996098   -7884.4928    -7364.793   -791.23909     102002.7      46.7237      46.7237      46.7237 
   49000    89.285519   -7899.1195   -7389.1892   -812.91227     102002.7      46.7237      46.7237      46.7237 
   50000    91.785331   -7890.0188   -7365.8115   -744.58494     102002.7      46.7237      46.7237      46.7237 
   51000    92.257144   -7877.0699   -7350.1679   -729.48984     102002.7      46.7237      46.7237      46.7237 
   52000    89.721061   -7889.7934   -7377.3756   -723.46786     102002.7      46.7237      46.7237      46.7237 
   53000    92.519053   -7894.0239   -7365.6261   -648.39723     102002.7      46.7237      46.7237      46.7237 
   54000    91.105418   -7905.3942   -7385.0701   -642.32169     102002.7      46.7237      46.7237      46.7237 
   55000    92.859421   -7878.6398   -7348.2981    -611.6431     102002.7      46.7237      46.7237      46.7237 
   56000    90.890661   -7899.9038   -7380.8061   -567.04241     102002.7      46.7237      46.7237      46.7237 
   57000    90.317686   -7876.5044   -7360.6792   -824.56288     102002.7      46.7237      46.7237      46.7237 
   58000    89.896146   -7897.5926   -7384.1748   -764.09118     102002.7      46.7237      46.7237      46.7237 
   59000     90.80329   -7906.8779   -7388.2792   -526.70559     102002.7      46.7237      46.7237      46.7237 
   60000    93.276304   -7899.8313   -7367.1087   -613.21195     102002.7      46.7237      46.7237      46.7237 
   61000    89.609178   -7891.2366   -7379.4578    -495.4596     102002.7      46.7237      46.7237      46.7237 
   62000    92.261206   -7888.3884   -7361.4633   -608.84311     102002.7      46.7237      46.7237      46.7237 
   63000    89.276141   -7899.5825   -7389.7058   -592.38054     102002.7      46.7237      46.7237      46.7237 
   64000     90.94235   -7877.9825   -7358.5896   -869.95122     102002.7      46.7237      46.7237      46.7237 
   65000    91.709615   -7868.1089    -7344.334   -724.30621     102002.7      46.7237      46.7237      46.7237 
   66000    88.995456   -7906.0168   -7397.7431   -1054.1705     102002.7      46.7237      46.7237      46.7237 
   67000    90.987297   -7888.3626   -7368.7131   -783.30222     102002.7      46.7237      46.7237      46.7237 
   68000    87.983461   -7883.5478   -7381.0538   -585.92227     102002.7      46.7237      46.7237      46.7237 
   69000     92.84213   -7894.8329   -7364.5899   -783.87543     102002.7      46.7237      46.7237      46.7237 
   70000    91.057808   -7878.7728   -7358.7205   -787.56779     102002.7      46.7237      46.7237      46.7237 
   71000      92.6724   -7898.5331   -7369.2595   -615.22099     102002.7      46.7237      46.7237      46.7237 
   72000     93.14816    -7891.902   -7359.9112   -385.81193     102002.7      46.7237      46.7237      46.7237 
   73000    90.999383   -7912.3569   -7392.6383   -741.12145     102002.7      46.7237      46.7237      46.7237 
   74000      89.6956   -7890.7957   -7378.5233   -858.55275     102002.7      46.7237      46.7237      46.7237 
   75000    92.496704   -7889.8316   -7361.5614   -736.27631     102002.7      46.7237      46.7237      46.7237 
   76000    90.032532   -7866.0756   -7351.8789   -627.62684     102002.7      46.7237      46.7237      46.7237 
   77000    90.345403   -7895.9359   -7379.9524   -524.44167     102002.7      46.7237      46.7237      46.7237 
   78000    93.139636   -7896.1698   -7364.2278   -559.36919     102002.7      46.7237      46.7237      46.7237 
   79000    90.061456   -7897.3423   -7382.9804   -736.79513     102002.7      46.7237      46.7237      46.7237 
   80000     92.70837    -7898.763   -7369.2839   -587.89931     102002.7      46.7237      46.7237      46.7237 
   81000    93.062095   -7882.1104   -7350.6112   -657.06059     102002.7      46.7237      46.7237      46.7237 
   82000    90.429855    -7908.155   -7391.6891   -679.40939     102002.7      46.7237      46.7237      46.7237 
   83000    92.797832   -7881.7624   -7351.7724   -679.57525     102002.7      46.7237      46.7237      46.7237 
   84000    89.666748   -7887.0623   -7374.9547   -925.30329     102002.7      46.7237      46.7237      46.7237 
   85000    90.085053   -7883.1685   -7368.6719   -935.60661     102002.7      46.7237      46.7237      46.7237 
   86000      90.5127   -7883.6251   -7366.6861   -958.54323     102002.7      46.7237      46.7237      46.7237 
   87000     92.09947   -7900.7353   -7374.7339   -475.18652     102002.7      46.7237      46.7237      46.7237 
   88000    88.228807   -7901.0087   -7397.1135   -438.29449     102002.7      46.7237      46.7237      46.7237 
   89000    93.537512    -7893.089   -7358.8746   -847.15917     102002.7      46.7237      46.7237      46.7237 
   90000    92.735125   -7903.7306   -7374.0988   -745.18488     102002.7      46.7237      46.7237      46.7237 
   91000    88.845905   -7885.6572   -7378.2376   -831.98958     102002.7      46.7237      46.7237      46.7237 
   92000    92.509763   -7910.8549   -7382.5102   -795.38569     102002.7      46.7237      46.7237      46.7237 
   93000    94.617853   -7893.4436   -7353.0591    -529.4259     102002.7      46.7237      46.7237      46.7237 
   94000    92.815773     -7900.79   -7370.6976   -838.57563     102002.7      46.7237      46.7237      46.7237 
   95000    90.671188   -7904.6479   -7386.8037   -646.16374     102002.7      46.7237      46.7237      46.7237 
   96000    90.065828   -7880.4528    -7366.066   -687.05369     102002.7      46.7237      46.7237      46.7237 
   97000    93.351821   -7903.7035   -7370.5495   -905.24322     102002.7      46.7237      46.7237      46.7237 
   98000    86.384797   -7900.0082   -7406.6446   -926.11851     102002.7      46.7237      46.7237      46.7237 
   99000    91.735864   -7897.3374   -7373.4126   -603.87441     102002.7      46.7237      46.7237      46.7237 
  100000    89.856988   -7880.3486   -7367.1545   -512.49014     102002.7      46.7237      46.7237      46.7237 
  101000    89.657501    -7899.972   -7387.9172   -778.37068     102002.7      46.7237      46.7237      46.7237 
  102000     93.81853   -7887.4693   -7351.6499    -920.2486     102002.7      46.7237      46.7237      46.7237 
  103000    90.482598   -7908.4642    -7391.697    -631.8773     102002.7      46.7237      46.7237      46.7237 
  104000    91.756596   -7862.5504   -7338.5072   -671.81703     102002.7      46.7237      46.7237      46.7237 
  105000    89.810126   -7885.0734    -7372.147   -849.84626     102002.7      46.7237      46.7237      46.7237 
  106000    88.840381   -7897.8245   -7390.4365   -751.45866     102002.7      46.7237      46.7237      46.7237 
  107000     91.32954   -7880.0313   -7358.4271   -832.39924     102002.7      46.7237      46.7237      46.7237 
  108000    92.097865   -7881.9542   -7355.9619   -769.54073     102002.7      46.7237      46.7237      46.7237 
  109000    91.375221   -7902.1536   -7380.2885   -610.92762     102002.7      46.7237      46.7237      46.7237 
  110000    90.874161   -7894.5959   -7375.5925   -902.88562     102002.7      46.7237      46.7237      46.7237 
  111000    93.700202   -7897.4785   -7362.3349   -744.78934     102002.7      46.7237      46.7237      46.7237 
  112000    87.175039    -7892.828   -7394.9512   -1083.5809     102002.7      46.7237      46.7237      46.7237 
  113000    90.398221   -7884.0358   -7367.7505   -641.81594     102002.7      46.7237      46.7237      46.7237 
  114000    88.440583   -7883.4267    -7378.322   -696.79822     102002.7      46.7237      46.7237      46.7237 
  115000    92.932405   -7910.2985     -7379.54   -708.24832     102002.7      46.7237      46.7237      46.7237 
  116000    91.022659   -7907.5866    -7387.735   -485.88205     102002.7      46.7237      46.7237      46.7237 
  117000    91.780638   -7880.8678   -7356.6873    -775.5974     102002.7      46.7237      46.7237      46.7237 
  118000    87.826694   -7904.4577   -7402.8591   -849.74987     102002.7      46.7237      46.7237      46.7237 
  119000    92.098389   -7886.0981   -7360.1028   -655.40819     102002.7      46.7237      46.7237      46.7237 
  120000    92.209185   -7899.2411   -7372.6131   -548.13326     102002.7      46.7237      46.7237      46.7237 
  121000    89.464563   -7889.7412   -7378.7884   -597.57027     102002.7      46.7237      46.7237      46.7237 
  122000    89.783901   -7889.5618   -7376.7851   -770.04838     102002.7      46.7237      46.7237      46.7237 
  123000     91.92929   -7887.3033   -7362.2738    -992.8516     102002.7      46.7237      46.7237      46.7237 
  124000    93.316676   -7894.9866   -7362.0334   -859.72356     102002.7      46.7237      46.7237      46.7237 
  125000    87.769919   -7887.5674    -7386.293    -810.7096     102002.7      46.7237      46.7237      46.7237 
  126000    91.708115   -7871.1014   -7347.3351   -747.41642     102002.7      46.7237      46.7237      46.7237 
  127000    89.219202   -7873.5823   -7364.0308   -871.82204     102002.7      46.7237      46.7237      46.7237 
  128000    86.212343   -7897.3214   -7404.9427   -869.86375     102002.7      46.7237      46.7237      46.7237 
  129000    93.913417   -7898.6487   -7362.2874   -909.92559     102002.7      46.7237      46.7237      46.7237 
  130000    90.223204   -7884.3275   -7369.0419   -908.35442     102002.7      46.7237      46.7237      46.7237 
  131000    89.398467    -7884.412   -7373.8366   -606.60229     102002.7      46.7237      46.7237      46.7237 
  132000    89.633139   -7878.9496    -7367.034   -979.03912     102002.7      46.7237      46.7237      46.7237 
  133000    91.231193   -7876.7274   -7355.6849   -494.59325     102002.7      46.7237      46.7237      46.7237 
  134000    89.021757   -7888.0859   -7379.6619   -543.80729     102002.7      46.7237      46.7237      46.7237 
  135000    89.208327   -7897.6842   -7388.1947   -710.54395     102002.7      46.7237      46.7237      46.7237 
  136000    93.303364   -7886.0764   -7353.1992   -641.24611     102002.7      46.7237      46.7237      46.7237 
  137000    93.716651   -7904.0706   -7368.8331   -848.40563     102002.7      46.7237      46.7237      46.7237 
  138000    93.964596   -7895.8074   -7359.1538   -568.18084     102002.7      46.7237      46.7237      46.7237 
  139000    94.342236   -7886.6484    -7347.838   -718.19066     102002.7      46.7237      46.7237      46.7237 
  140000    89.564405   -7885.3924   -7373.8693   -659.94278     102002.7      46.7237      46.7237      46.7237 
  141000    89.947501   -7874.6469   -7360.9359   -603.28355     102002.7      46.7237      46.7237      46.7237 
  142000     88.68794   -7891.3054    -7384.788   -795.71249     102002.7      46.7237      46.7237      46.7237 
  143000    90.759922   -7881.6082   -7363.2572   -614.16799     102002.7      46.7237      46.7237      46.7237 
  144000    92.125722    -7871.857   -7345.7056   -572.79302     102002.7      46.7237      46.7237      46.7237 
  145000     89.00524   -7885.9414   -7377.6119   -770.79527     102002.7      46.7237      46.7237      46.7237 
  146000    92.263793   -7883.1994   -7356.2594   -618.76792     102002.7      46.7237      46.7237      46.7237 
  147000     93.71111   -7900.9643   -7365.7584   -637.05107     102002.7      46.7237      46.7237      46.7237 
  148000     90.38509   -7881.2034   -7364.9932   -422.00486     102002.7      46.7237      46.7237      46.7237 
  149000    90.472811   -7884.3166   -7367.6054   -590.47462     102002.7      46.7237      46.7237      46.7237 
  150000    90.120485   -7900.7779   -7386.0789    -740.5067     102002.7      46.7237      46.7237      46.7237 
  151000    93.097641   -7890.7984   -7359.0962   -645.13189     102002.7      46.7237      46.7237      46.7237 
  152000    86.058695   -7881.7581   -7390.2569    -642.4902     102002.7      46.7237      46.7237      46.7237 
  153000    88.826849   -7886.0536   -7378.7428   -570.90107     102002.7      46.7237      46.7237      46.7237 
  154000     92.90696   -7889.9464   -7359.3332   -495.32883     102002.7      46.7237      46.7237      46.7237 
  155000    91.396068   -7898.4783   -7376.4942   -479.10577     102002.7      46.7237      46.7237      46.7237 
  156000    93.340481   -7887.5019   -7354.4128   -670.51424     102002.7      46.7237      46.7237      46.7237 
  157000    90.451129   -7890.3251   -7373.7377   -359.59729     102002.7      46.7237      46.7237      46.7237 
  158000    93.661167   -7889.9179   -7354.9973   -362.36397     102002.7      46.7237      46.7237      46.7237 
  159000    93.729011   -7907.8008   -7372.4926    -523.8278     102002.7      46.7237      46.7237      46.7237 
  160000    88.319456   -7888.8315   -7384.4186   -584.59611     102002.7      46.7237      46.7237      46.7237 
  161000    90.432286   -7877.2234   -7360.7437   -733.15103     102002.7      46.7237      46.7237      46.7237 
  162000    89.914426   -7871.5356   -7358.0134   -712.35744     102002.7      46.7237      46.7237      46.7237 
  163000    89.492276    -7894.819   -7383.7079   -606.45765     102002.7      46.7237      46.7237      46.7237 
  164000    93.330569   -7881.6531   -7348.6205   -620.14979     102002.7      46.7237      46.7237      46.7237 
  165000    91.494375   -7880.2018   -7357.6562   -879.03201     102002.7      46.7237      46.7237      46.7237 
  166000     91.80729   -7909.9827     -7385.65   -546.79626     102002.7      46.7237      46.7237      46.7237 
  167000    90.878177    -7873.543   -7354.5167   -676.65819     102002.7      46.7237      46.7237      46.7237 
  168000    91.372836   -7885.0386   -7363.1872   -1065.7431     102002.7      46.7237      46.7237      46.7237 
  169000    90.667403   -7901.1907   -7383.3681   -607.33169     102002.7      46.7237      46.7237      46.7237 
  170000    88.228289    -7905.377   -7401.4848   -849.84125     102002.7      46.7237      46.7237      46.7237 
  171000    92.315738   -7882.7596    -7355.523   -996.02855     102002.7      46.7237      46.7237      46.7237 
  172000    90.555581   -7893.0389   -7375.8549   -652.39401     102002.7      46.7237      46.7237      46.7237 
  173000    89.588867   -7896.9778    -7385.315    -740.4185     102002.7      46.7237      46.7237      46.7237 
  174000    91.258497   -7876.0294   -7354.8309   -562.38779     102002.7      46.7237      46.7237      46.7237 
  175000    89.629025   -7885.2199   -7373.3278   -709.95088     102002.7      46.7237      46.7237      46.7237 
  176000    93.902798   -7884.6581   -7348.3575   -736.70003     102002.7      46.7237      46.7237      46.7237 
  177000    91.480775   -7877.3979   -7354.9299   -383.18384     102002.7      46.7237      46.7237      46.7237 
  178000    91.338809   -7891.2549   -7369.5978   -580.25491     102002.7      46.7237      46.7237      46.7237 
  179000    90.170588   -7907.0725   -7392.0873   -479.82287     102002.7      46.7237      46.7237      46.7237 
  180000    91.012743    -7889.875   -7370.0801   -701.04019     102002.7      46.7237      46.7237      46.7237 
  181000    91.853652   -7914.3723   -7389.7748   -562.99652     102002.7      46.7237      46.7237      46.7237 
  182000    93.172215   -7897.0388   -7364.9107   -614.03001     102002.7      46.7237      46.7237      46.7237 
  183000    91.974179   -7887.8363   -7362.5504   -401.85458     102002.7      46.7237      46.7237      46.7237 
  184000    89.538718   -7881.2557   -7369.8793    -844.7467     102002.7      46.7237      46.7237      46.7237 
  185000    89.257729   -7891.8183   -7382.0467    -405.5929     102002.7      46.7237      46.7237      46.7237 
  186000    90.238705    -7877.464   -7362.0898   -805.04411     102002.7      46.7237      46.7237      46.7237 
  187000    89.403584   -7902.4037   -7391.7991    -677.0438     102002.7      46.7237      46.7237      46.7237 
  188000    93.536953   -7900.2172   -7366.0059   -603.94223     102002.7      46.7237      46.7237      46.7237 
  189000      88.8694   -7882.7277    -7375.174   -932.08905     102002.7      46.7237      46.7237      46.7237 
  190000    91.853123   -7886.3091   -7361.7146   -758.20863     102002.7      46.7237      46.7237      46.7237 
  191000    88.799572   -7897.4198   -7390.2649   -682.00935     102002.7      46.7237      46.7237      46.7237 
  192000    89.024721   -7884.0876   -7375.6468   -444.60038     102002.7      46.7237      46.7237      46.7237 
  193000    92.770816    -7894.682   -7364.8464   -523.89963     102002.7      46.7237      46.7237      46.7237 
  194000    92.587769   -7901.6555   -7372.8652   -775.68705     102002.7      46.7237      46.7237      46.7237 
  195000    89.674247   -7894.0994    -7381.949   -393.59149     102002.7      46.7237      46.7237      46.7237 
  196000    89.676062    -7905.481   -7393.3202   -706.77449     102002.7      46.7237      46.7237      46.7237 
  197000    92.557361    -7888.658   -7360.0414    -757.0817     102002.7      46.7237      46.7237      46.7237 
  198000    88.084813   -7893.9389   -7390.8661   -617.61536     102002.7      46.7237      46.7237      46.7237 
  199000    91.044063   -7884.1637   -7364.1899   -802.80335     102002.7      46.7237      46.7237      46.7237 
  200000    91.128208   -7905.5957   -7385.1413   -741.67136     102002.7      46.7237      46.7237      46.7237 
  201000    90.158801   -7894.1945   -7379.2766   -609.02126     102002.7      46.7237      46.7237      46.7237 
  202000    89.358696   -7901.8315   -7391.4832   -778.94685     102002.7      46.7237      46.7237      46.7237 
  203000    91.311843    -7907.713   -7386.2099   -630.80943     102002.7      46.7237      46.7237      46.7237 
  204000    93.073825   -7902.2152   -7370.6489   -579.73129     102002.7      46.7237      46.7237      46.7237 
  205000    89.450563    -7911.499   -7400.6261   -735.71842     102002.7      46.7237      46.7237      46.7237 
  206000    94.161238   -7898.1526   -7360.3759   -468.03631     102002.7      46.7237      46.7237      46.7237 
  207000    91.850501    -7903.412   -7378.8324    -803.0331     102002.7      46.7237      46.7237      46.7237 
  208000    90.600664   -7906.7378   -7389.2964     -582.716     102002.7      46.7237      46.7237      46.7237 
  209000    91.629849   -7884.8812   -7361.5619   -455.67773     102002.7      46.7237      46.7237      46.7237 
  210000    87.736363   -7901.6816   -7400.5988   -806.90354     102002.7      46.7237      46.7237      46.7237 
  211000    93.128466   -7908.8116   -7376.9333   -812.39689     102002.7      46.7237      46.7237      46.7237 
  212000    89.827007   -7883.5171   -7370.4942   -644.76345     102002.7      46.7237      46.7237      46.7237 
  213000    92.232477   -7920.5039   -7393.7429   -619.19016     102002.7      46.7237      46.7237      46.7237 
  214000    91.169019    -7876.517   -7355.8296   -685.10425     102002.7      46.7237      46.7237      46.7237 
  215000    89.661155   -7877.4008   -7365.3252   -807.98013     102002.7      46.7237      46.7237      46.7237 
  216000    88.415914   -7905.5841   -7400.6203   -409.80766     102002.7      46.7237      46.7237      46.7237 
  217000    92.807674   -7898.2349   -7368.1887   -839.48257     102002.7      46.7237      46.7237      46.7237 
  218000    92.275798   -7886.2057   -7359.1972   -523.67601     102002.7      46.7237      46.7237      46.7237 
  219000    92.592361   -7869.5765   -7340.7601   -745.38953     102002.7      46.7237      46.7237      46.7237 
  220000    90.616601    -7901.819   -7384.2866   -865.70187     102002.7      46.7237      46.7237      46.7237 
  221000    90.354835   -7891.8119   -7375.7744    -397.6932     102002.7      46.7237      46.7237      46.7237 
  222000    90.441268   -7892.2114   -7375.6804   -771.51943     102002.7      46.7237      46.7237      46.7237 
  223000    90.255919   -7880.6542   -7365.1817   -665.02856     102002.7      46.7237      46.7237      46.7237 
  224000    92.358295   -7884.3138   -7356.8341   -1001.6025     102002.7      46.7237      46.7237      46.7237 
  225000    90.453908   -7899.2375   -7382.6343   -811.80298     102002.7      46.7237      46.7237      46.7237 
  226000    86.122228   -7900.0499   -7408.1858   -900.41705     102002.7      46.7237      46.7237      46.7237 
  227000    91.966937   -7888.7607   -7363.5162   -984.54302     102002.7      46.7237      46.7237      46.7237 
  228000    89.537017    -7904.934   -7393.5673   -660.98873     102002.7      46.7237      46.7237      46.7237 
  229000    90.473053   -7880.8167   -7364.1041    -841.9454     102002.7      46.7237      46.7237      46.7237 
  230000    90.184639   -7896.9324    -7381.867   -449.53078     102002.7      46.7237      46.7237      46.7237 
  231000     92.10603   -7881.4521   -7355.4131   -464.74109     102002.7      46.7237      46.7237      46.7237 
  232000    87.607463   -7893.0904   -7392.7438   -604.31416     102002.7      46.7237      46.7237      46.7237 
  233000    91.572555   -7892.6232   -7369.6311   -731.78215     102002.7      46.7237      46.7237      46.7237 
  234000    93.005525   -7896.5041    -7365.328   -635.71208     102002.7      46.7237      46.7237      46.7237 
  235000    89.851073   -7886.1823    -7373.022   -421.65315     102002.7      46.7237      46.7237      46.7237 
  236000    93.299935   -7895.5771   -7362.7195   -802.95782     102002.7      46.7237      46.7237      46.7237 
  237000    87.631362   -7891.8332   -7391.3502   -590.78047     102002.7      46.7237      46.7237      46.7237 
  238000    89.179374   -7886.4554   -7377.1313   -469.32346     102002.7      46.7237      46.7237      46.7237 
  239000    92.981443   -7892.3186     -7361.28   -842.44036     102002.7      46.7237      46.7237      46.7237 
  240000    90.239455   -7896.5221   -7381.1436   -663.70592     102002.7      46.7237      46.7237      46.7237 
  241000    91.452829   -7886.3183     -7364.01   -748.17379     102002.7      46.7237      46.7237      46.7237 
  242000    91.042886   -7903.2131    -7383.246   -838.35444     102002.7      46.7237      46.7237      46.7237 
  243000    90.598704   -7876.4611   -7359.0308   -326.95428     102002.7      46.7237      46.7237      46.7237 
  244000    90.978984   -7893.6244   -7374.0223    -953.5856     102002.7      46.7237      46.7237      46.7237 
  245000    90.327163   -7895.2024    -7379.323   -949.60608     102002.7      46.7237      46.7237      46.7237 
  246000    96.489184   -7881.6427   -7330.5706   -637.19895     102002.7      46.7237      46.7237      46.7237 
  247000    89.186337   -7898.1018    -7388.738   -692.02583     102002.7      46.7237      46.7237      46.7237 
  248000    92.567976   -7896.2666   -7367.5894   -670.96889     102002.7      46.7237      46.7237      46.7237 
  249000     92.36905   -7900.6622   -7373.1211    -541.3428     102002.7      46.7237      46.7237      46.7237 
  250000     89.63913   -7900.3654   -7388.4155   -498.89794     102002.7      46.7237      46.7237      46.7237 
  251000    91.289581   -7903.0816   -7381.7056   -654.11651     102002.7      46.7237      46.7237      46.7237 
  252000    93.890397   -7904.8706   -7368.6408    -708.0388     102002.7      46.7237      46.7237      46.7237 
  253000    90.487583   -7896.1876    -7379.392    -494.6383     102002.7      46.7237      46.7237      46.7237 
  254000    91.400752   -7883.9888   -7361.9779   -477.16744     102002.7      46.7237      46.7237      46.7237 
  255000     92.29557   -7910.3211   -7383.1997   -170.90379     102002.7      46.7237      46.7237      46.7237 
  256000    93.049153   -7904.1406   -7372.7153    -616.6052     102002.7      46.7237      46.7237      46.7237 
  257000    94.230846   -7900.4921   -7362.3179    -713.7958     102002.7      46.7237      46.7237      46.7237 
  258000    87.904588   -7899.7694   -7397.7259   -576.73321     102002.7      46.7237      46.7237      46.7237 
  259000    90.320758   -7907.4489   -7391.6061   -763.55405     102002.7      46.7237      46.7237      46.7237 
  260000    92.599362   -7886.7133   -7357.8568   -668.56603     102002.7      46.7237      46.7237      46.7237 
  261000    90.338051   -7897.3599   -7381.4184     -885.188     102002.7      46.7237      46.7237      46.7237 
  262000    89.218902   -7910.5102   -7400.9603   -746.72937     102002.7      46.7237      46.7237      46.7237 
  263000    93.092251   -7897.4996   -7365.8282   -838.44292     102002.7      46.7237      46.7237      46.7237 
  264000    91.855101   -7912.5202   -7387.9144   -711.13555     102002.7      46.7237      46.7237      46.7237 
  265000    91.803031   -7899.8933   -7375.5849   -570.03301     102002.7      46.7237      46.7237      46.7237 
  266000    93.596418   -7900.3969    -7365.846   -740.67788     102002.7      46.7237      46.7237      46.7237 
  267000    91.707563   -7881.1516   -7357.3885   -737.64044     102002.7      46.7237      46.7237      46.7237 
  268000    88.030319   -7899.5865   -7396.8249   -595.75402     102002.7      46.7237      46.7237      46.7237 
  269000    91.046823   -7889.7139   -7369.7243   -556.25165     102002.7      46.7237      46.7237      46.7237 
  270000    90.100628   -7888.2707   -7373.6851   -666.31178     102002.7      46.7237      46.7237      46.7237 
  271000    89.635846   -7890.3051    -7378.374   -804.67783     102002.7      46.7237      46.7237      46.7237 
  272000    87.784802   -7892.8235   -7391.4642   -496.35947     102002.7      46.7237      46.7237      46.7237 
  273000    92.796488   -7887.6074   -7357.6251   -554.46935     102002.7      46.7237      46.7237      46.7237 
  274000    93.018134   -7906.1272   -7374.8791   -726.89522     102002.7      46.7237      46.7237      46.7237 
  275000    92.857562   -7880.5982   -7350.2671   -906.16474     102002.7      46.7237      46.7237      46.7237 
  276000    90.987524   -7892.6172   -7372.9664   -687.89903     102002.7      46.7237      46.7237      46.7237 
  277000     90.37768   -7880.4367   -7364.2688   -430.74834     102002.7      46.7237      46.7237      46.7237 
  278000    88.702896   -7912.7871   -7406.1843   -680.05267     102002.7      46.7237      46.7237      46.7237 
  279000    90.656216   -7892.7845   -7375.0258   -669.75285     102002.7      46.7237      46.7237      46.7237 
  280000     92.11603   -7873.3628   -7347.2668   -751.60055     102002.7      46.7237      46.7237      46.7237 
  281000    91.476483   -7902.4109   -7379.9674   -987.53618     102002.7      46.7237      46.7237      46.7237 
  282000    90.697009   -7898.3328   -7380.3411    -719.6658     102002.7      46.7237      46.7237      46.7237 
  283000      91.8899   -7889.1991   -7364.3946   -823.64008     102002.7      46.7237      46.7237      46.7237 
  284000    94.020873   -7890.1313   -7353.1563   -928.74109     102002.7      46.7237      46.7237      46.7237 
  285000    92.847905   -7882.9242   -7352.6483   -737.61479     102002.7      46.7237      46.7237      46.7237 
  286000     91.50441   -7896.1584   -7373.5555   -684.54573     102002.7      46.7237      46.7237      46.7237 
  287000    92.193456   -7895.6982     -7369.16   -809.33914     102002.7      46.7237      46.7237      46.7237 
  288000    93.758272   -7894.6782   -7359.2029   -556.55739     102002.7      46.7237      46.7237      46.7237 
  289000    93.004573   -7892.8832   -7361.7125    -491.8057     102002.7      46.7237      46.7237      46.7237 
  290000     91.45948   -7888.9592   -7366.6129   -544.60533     102002.7      46.7237      46.7237      46.7237 
  291000    93.514282   -7900.2156   -7366.1338   -393.61219     102002.7      46.7237      46.7237      46.7237 
  292000    89.072045   -7889.9751    -7381.264   -778.27262     102002.7      46.7237      46.7237      46.7237 
  293000    92.219631   -7889.8057    -7363.118   -665.20872     102002.7      46.7237      46.7237      46.7237 
  294000    90.158879   -7878.2957   -7363.3775   -675.16671     102002.7      46.7237      46.7237      46.7237 
  295000    92.861559   -7872.7206   -7342.3667   -928.70486     102002.7      46.7237      46.7237      46.7237 
  296000    91.600713   -7876.4996   -7353.3466   -900.02133     102002.7      46.7237      46.7237      46.7237 
  297000    90.265602   -7882.1424   -7366.6146   -916.80029     102002.7      46.7237      46.7237      46.7237 
  298000    88.460055   -7893.0507   -7387.8348   -868.25677     102002.7      46.7237      46.7237      46.7237 
  299000    93.456061   -7888.7005   -7354.9512   -618.70412     102002.7      46.7237      46.7237      46.7237 
  300000    89.211529   -7896.3989   -7386.8912   -790.20331     102002.7      46.7237      46.7237      46.7237 
  301000    92.680953   -7886.0973   -7356.7749   -477.36733     102002.7      46.7237      46.7237      46.7237 
  302000     90.50282   -7887.3012   -7370.4185   -496.28829     102002.7      46.7237      46.7237      46.7237 
  303000    93.537266    -7872.304    -7338.091   -699.94886     102002.7      46.7237      46.7237      46.7237 
  304000    93.532034   -7894.4234   -7360.2402    -555.2082     102002.7      46.7237      46.7237      46.7237 
  305000    92.993709   -7879.5728   -7348.4642    -701.0556     102002.7      46.7237      46.7237      46.7237 
  306000    91.702212   -7879.1816    -7355.449   -873.19167     102002.7      46.7237      46.7237      46.7237 
  307000    90.679384   -7876.1464   -7358.2554   -599.40252     102002.7      46.7237      46.7237      46.7237 
  308000    90.684962   -7899.4742   -7381.5513   -618.34855     102002.7      46.7237      46.7237      46.7237 
  309000    88.712233   -7897.9797   -7391.3235   -504.45017     102002.7      46.7237      46.7237      46.7237 
  310000    91.999394   -7878.6157   -7353.1858   -614.89677     102002.7      46.7237      46.7237      46.7237 
  311000    92.239972   -7873.5758   -7346.7719   -727.34647     102002.7      46.7237      46.7237      46.7237 
  312000    90.848371   -7883.5897   -7364.7336   -560.11644     102002.7      46.7237      46.7237      46.7237 
  313000    90.729098   -7896.9318   -7378.7569   -615.76416     102002.7      46.7237      46.7237      46.7237 
  314000    89.102891   -7894.6495   -7385.7622   -811.87662     102002.7      46.7237      46.7237      46.7237 
  315000    92.064888    -7894.056    -7368.252   -692.79251     102002.7      46.7237      46.7237      46.7237 
  316000    89.686752   -7898.7714   -7386.5495   -632.12975     102002.7      46.7237      46.7237      46.7237 
  317000    91.140069   -7891.9742   -7371.4521   -645.22749     102002.7      46.7237      46.7237      46.7237 
  318000    93.128333   -7885.4427   -7353.5652   -827.50102     102002.7      46.7237      46.7237      46.7237 
  319000    89.031857   -7887.9951   -7379.5135   -741.58977     102002.7      46.7237      46.7237      46.7237 
  320000    92.004443   -7888.6267   -7363.1679   -546.32165     102002.7      46.7237      46.7237      46.7237 
  321000    93.031084   -7891.1389   -7359.8168   -820.39457     102002.7      46.7237      46.7237      46.7237 
  322000    90.513714   -7896.5799    -7379.635   -856.92205     102002.7      46.7237      46.7237      46.7237 
  323000    89.691302   -7897.7314   -7385.4836   -608.93434     102002.7      46.7237      46.7237      46.7237 
  324000      93.4663   -7898.2976   -7364.4899   -788.23186     102002.7      46.7237      46.7237      46.7237 
  325000    91.513972   -7878.5191   -7355.8616   -629.62494     102002.7      46.7237      46.7237      46.7237 
  326000    90.756365   -7906.5013   -7388.1707    -592.9794     102002.7      46.7237      46.7237      46.7237 
  327000     89.82074   -7909.9244   -7396.9373   -614.24533     102002.7      46.7237      46.7237      46.7237 
  328000    90.380913   -7880.5375   -7364.3511   -859.79589     102002.7      46.7237      46.7237      46.7237 
  329000    89.099534    -7889.986   -7381.1179     -597.227     102002.7      46.7237      46.7237      46.7237 
  330000    87.711529   -7876.9071   -7375.9662   -830.33128     102002.7      46.7237      46.7237      46.7237 
  331000    91.207633   -7901.5112   -7380.6032   -606.61369     102002.7      46.7237      46.7237      46.7237 
  332000    91.625714   -7887.3348   -7364.0391   -734.48486     102002.7      46.7237      46.7237      46.7237 
  333000    88.756136   -7888.3241   -7381.4172   -664.32398     102002.7      46.7237      46.7237      46.7237 
  334000    91.753041   -7906.7544   -7382.7314   -361.80767     102002.7      46.7237      46.7237      46.7237 
  335000    88.352976    -7895.139   -7390.5346    -491.2497     102002.7      46.7237      46.7237      46.7237 
  336000    87.725431   -7888.3315   -7387.3112   -1064.5166     102002.7      46.7237      46.7237      46.7237 
  337000    89.891272   -7891.6896   -7378.2997   -826.15782     102002.7      46.7237      46.7237      46.7237 
  338000     89.32994   -7893.3362   -7383.1522   -837.05079     102002.7      46.7237      46.7237      46.7237 
  339000    91.248228   -7890.8535   -7369.7137   -998.36951     102002.7      46.7237      46.7237      46.7237 
  340000    89.664085   -7897.7057   -7385.6134   -939.22633     102002.7      46.7237      46.7237      46.7237 
  341000    90.630743   -7887.8541   -7370.2409   -948.38814     102002.7      46.7237      46.7237      46.7237 
  342000    92.509067    -7887.765   -7359.4242   -568.06549     102002.7      46.7237      46.7237      46.7237 
  343000    90.708742   -7891.9848   -7373.9262   -929.75788     102002.7      46.7237      46.7237      46.7237 
  344000    91.989258   -7861.2344   -7335.8624   -652.36837     102002.7      46.7237      46.7237      46.7237 
  345000    90.230369   -7889.9866     -7374.66   -988.28345     102002.7      46.7237      46.7237      46.7237 
  346000    90.929615    -7892.288   -7372.9679   -752.81113     102002.7      46.7237      46.7237      46.7237 
  347000    92.016454   -7896.0133   -7370.4859   -419.89587     102002.7      46.7237      46.7237      46.7237 
  348000    94.481286    -7887.141   -7347.5364   -886.27868     102002.7      46.7237      46.7237      46.7237 
  349000    92.593426   -7900.0864   -7371.2639   -645.75711     102002.7      46.7237      46.7237      46.7237 
  350000    92.776829   -7886.9257   -7357.0557   -750.46624     102002.7      46.7237      46.7237      46.7237 
  351000    90.816089    -7903.492   -7384.8203   -520.41438     102002.7      46.7237      46.7237      46.7237 
  352000    89.407159   -7881.0076   -7370.3825   -667.65726     102002.7      46.7237      46.7237      46.7237 
  353000    92.184495   -7881.5189   -7355.0318   -678.88233     102002.7      46.7237      46.7237      46.7237 
  354000    89.678148   -7883.1023   -7370.9296   -651.25858     102002.7      46.7237      46.7237      46.7237 
  355000    89.475138   -7879.0626   -7368.0493    -781.3576     102002.7      46.7237      46.7237      46.7237 
  356000     88.19228   -7906.5564   -7402.8698   -564.11417     102002.7      46.7237      46.7237      46.7237 
  357000    89.525732    -7888.604   -7377.3018   -653.56183     102002.7      46.7237      46.7237      46.7237 
  358000    88.146353   -7892.8156   -7389.3913   -666.40926     102002.7      46.7237      46.7237      46.7237 
  359000    91.148909   -7892.3196   -7371.7471   -471.49239     102002.7      46.7237      46.7237      46.7237 
  360000    90.268608   -7882.2166   -7366.6716   -762.92409     102002.7      46.7237      46.7237      46.7237 
  361000    94.596866   -7893.2534   -7352.9888   -706.11095     102002.7      46.7237      46.7237      46.7237 
  362000    89.322363   -7908.6384   -7398.4977   -727.03641     102002.7      46.7237      46.7237      46.7237 
  363000    91.651905    -7897.014   -7373.5687   -709.07943     102002.7      46.7237      46.7237      46.7237 
  364000    91.055164   -7895.6717   -7375.6345   -755.04945     102002.7      46.7237      46.7237      46.7237 
  365000    93.748969   -7885.9649   -7350.5428   -826.93681     102002.7      46.7237      46.7237      46.7237 
  366000    90.834127   -7895.1188    -7376.344   -693.05822     102002.7      46.7237      46.7237      46.7237 
  367000    92.942437   -7888.7189    -7357.903     -681.521     102002.7      46.7237      46.7237      46.7237 
  368000    90.566494   -7889.4706   -7372.2243   -1106.2618     102002.7      46.7237      46.7237      46.7237 
  369000    91.610995    -7905.634   -7382.4223   -788.63353     102002.7      46.7237      46.7237      46.7237 
  370000    93.407664   -7896.4034   -7362.9306   -686.12506     102002.7      46.7237      46.7237      46.7237 
  371000    91.079357   -7910.6408   -7390.4655   -766.44974     102002.7      46.7237      46.7237      46.7237 
  372000    92.574941    -7912.467   -7383.7501   -557.88485     102002.7      46.7237      46.7237      46.7237 
  373000    91.607411   -7888.4541   -7365.2629   -619.61962     102002.7      46.7237      46.7237      46.7237 
  374000     91.27338   -7905.1584    -7383.875   -755.33546     102002.7      46.7237      46.7237      46.7237 
  375000    92.079536   -7879.1679   -7353.2803   -612.49905     102002.7      46.7237      46.7237      46.7237 
  376000    89.204861   -7886.8776   -7377.4079    -786.4983     102002.7      46.7237      46.7237      46.7237 
  377000    90.107269   -7863.3164   -7348.6929   -696.98316     102002.7      46.7237      46.7237      46.7237 
  378000    88.287622   -7900.5237   -7396.2926   -541.28564     102002.7      46.7237      46.7237      46.7237 
  379000    90.678899   -7893.4593   -7375.5711    -646.1695     102002.7      46.7237      46.7237      46.7237 
  380000    87.582741    -7892.254   -7392.0487   -893.40014     102002.7      46.7237      46.7237      46.7237 
  381000    92.604331   -7895.3223   -7366.4375   -956.87525     102002.7      46.7237      46.7237      46.7237 
  382000    90.670524   -7883.6475   -7365.8071   -915.17241     102002.7      46.7237      46.7237      46.7237 
  383000    90.997701   -7913.8466   -7394.1376   -771.35015     102002.7      46.7237      46.7237      46.7237 
  384000    91.923282   -7886.4496   -7361.4544   -636.23762     102002.7      46.7237      46.7237      46.7237 
  385000    89.922728   -7897.6138   -7384.0442    -918.3225     102002.7      46.7237      46.7237      46.7237 
  386000    90.660247   -7875.1621   -7357.3804   -711.62955     102002.7      46.7237      46.7237      46.7237 
  387000    92.091552   -7884.6123    -7358.656    -1118.735     102002.7      46.7237      46.7237      46.7237 
  388000    90.088749   -7889.8826   -7375.3648   -498.57575     102002.7      46.7237      46.7237      46.7237 
  389000     90.27709   -7889.8903   -7374.2969   -980.21142     102002.7      46.7237      46.7237      46.7237 
  390000    92.362267   -7880.9708   -7353.4684    -751.7333     102002.7      46.7237      46.7237      46.7237 
  391000      91.9579   -7894.2451   -7369.0522   -641.18082     102002.7      46.7237      46.7237      46.7237 
  392000    90.676489   -7902.8333   -7384.9588   -1040.6554     102002.7      46.7237      46.7237      46.7237 
  393000    90.901545   -7885.3048    -7366.145   -572.49922     102002.7      46.7237      46.7237      46.7237 
  394000    90.748243   -7884.0713    -7365.787   -551.94083     102002.7      46.7237      46.7237      46.7237 
  395000    90.943871   -7898.5852   -7379.1837   -685.53286     102002.7      46.7237      46.7237      46.7237 
  396000    88.962441   -7871.0043   -7362.9192   -426.66142     102002.7      46.7237      46.7237      46.7237 
  397000    90.181386   -7875.1456   -7360.0988   -818.58946     102002.7      46.7237      46.7237      46.7237 
  398000    88.021092   -7883.9046   -7381.1957   -655.08017     102002.7      46.7237      46.7237      46.7237 
  399000     89.71698   -7893.2812   -7380.8867   -504.97597     102002.7      46.7237      46.7237      46.7237 
  400000     92.90234   -7881.6993   -7351.1125   -864.42771     102002.7      46.7237      46.7237      46.7237 
  401000     89.28822   -7890.0574   -7380.1116   -567.08662     102002.7      46.7237      46.7237      46.7237 
  402000    91.301178   -7906.1894   -7384.7472   -570.45448     102002.7      46.7237      46.7237      46.7237 
  403000    90.478859   -7891.5924   -7374.8466   -970.87652     102002.7      46.7237      46.7237      46.7237 
  404000    92.727055   -7877.1145   -7347.5288   -739.26605     102002.7      46.7237      46.7237      46.7237 
  405000    90.818713   -7875.6695   -7356.9827   -697.96162     102002.7      46.7237      46.7237      46.7237 
  406000    91.489897   -7904.2496   -7381.7295   -470.15748     102002.7      46.7237      46.7237      46.7237 
  407000    89.727024   -7895.1275   -7382.6756   -785.43089     102002.7      46.7237      46.7237      46.7237 
  408000    90.502495   -7896.1547    -7379.274   -847.94838     102002.7      46.7237      46.7237      46.7237 
  409000    91.831083   -7889.5842   -7365.1156   -405.52802     102002.7      46.7237      46.7237      46.7237 
  410000    90.200008   -7890.3097   -7375.1565   -790.81703     102002.7      46.7237      46.7237      46.7237 
  411000    91.592231   -7874.2015    -7351.097   -934.04876     102002.7      46.7237      46.7237      46.7237 
  412000    89.797171   -7893.0722   -7380.2197   -952.68155     102002.7      46.7237      46.7237      46.7237 
  413000    92.800361   -7874.6508   -7344.6464   -683.49322     102002.7      46.7237      46.7237      46.7237 
  414000     91.41308   -7892.2592   -7370.1779   -778.70382     102002.7      46.7237      46.7237      46.7237 
  415000    89.511871   -7878.0188   -7366.7957      -671.61     102002.7      46.7237      46.7237      46.7237 
  416000    89.261143   -7915.9478   -7406.1567   -732.40473     102002.7      46.7237      46.7237      46.7237 
  417000    93.156657   -7888.1496   -7356.1103    -780.2639     102002.7      46.7237      46.7237      46.7237 
  418000    88.287594    -7897.651     -7393.42   -927.62307     102002.7      46.7237      46.7237      46.7237 
  419000    90.157799   -7889.9285   -7375.0164   -743.26409     102002.7      46.7237      46.7237      46.7237 
  420000    94.685785   -7886.9379   -7346.1654   -669.74626     102002.7      46.7237      46.7237      46.7237 
  421000    88.808358   -7879.8331    -7372.628   -504.93511     102002.7      46.7237      46.7237      46.7237 
  422000    91.260711   -7893.2284   -7372.0173   -501.23441     102002.7      46.7237      46.7237      46.7237 
  423000    92.859782    -7893.946   -7363.6023   -781.84769     102002.7      46.7237      46.7237      46.7237 
  424000    93.464855   -7879.2951   -7345.4956   -472.17199     102002.7      46.7237      46.7237      46.7237 
  425000    92.420812   -7902.3723   -7374.5356    -503.1381     102002.7      46.7237      46.7237      46.7237 
  426000    89.601314   -7882.7102   -7370.9763   -732.47981     102002.7      46.7237      46.7237      46.7237 
  427000    88.587934   -7885.4789   -7379.5327   -646.55658     102002.7      46.7237      46.7237      46.7237 
  428000    91.326766   -7879.1658   -7357.5775   -714.19027     102002.7      46.7237      46.7237      46.7237 
  429000    90.031898   -7899.1787   -7384.9856   -805.54098     102002.7      46.7237      46.7237      46.7237 
  430000    91.790056   -7882.5084   -7358.2741   -841.43311     102002.7      46.7237      46.7237      46.7237 
  431000    90.256694   -7886.2289    -7370.752    -806.8966     102002.7      46.7237      46.7237      46.7237 
  432000     87.12713   -7897.9921   -7400.3889   -810.88902     102002.7      46.7237      46.7237      46.7237 
  433000    90.470532   -7878.4934   -7361.7952   -883.28692     102002.7      46.7237      46.7237      46.7237 
  434000    90.365554   -7878.3632   -7362.2645   -867.88743     102002.7      46.7237      46.7237      46.7237 
  435000    90.376825   -7890.6366   -7374.4736   -602.49633     102002.7      46.7237      46.7237      46.7237 
  436000    93.823443   -7894.2406   -7358.3931   -533.56393     102002.7      46.7237      46.7237      46.7237 
  437000    90.996678   -7912.8892    -7393.186   -726.17512     102002.7      46.7237      46.7237      46.7237 
  438000    93.400901   -7886.7952    -7353.361   -881.51481     102002.7      46.7237      46.7237      46.7237 
  439000     90.47336   -7883.5582   -7366.8438   -525.54817     102002.7      46.7237      46.7237      46.7237 
  440000    91.198164   -7896.9661   -7376.1122   -675.64791     102002.7      46.7237      46.7237      46.7237 
  441000    90.700062   -7885.5783   -7367.5692   -643.14229     102002.7      46.7237      46.7237      46.7237 
  442000    89.825672   -7872.8161   -7359.8008   -657.33314     102002.7      46.7237      46.7237      46.7237 
  443000    88.083065   -7898.0983   -7395.0355   -426.85409     102002.7      46.7237      46.7237      46.7237 
  444000    91.663254   -7879.8528   -7356.3427    -849.2889     102002.7      46.7237      46.7237      46.7237 
  445000    93.095671   -7892.4651   -7360.7741   -525.56058     102002.7      46.7237      46.7237      46.7237 
  446000    89.136508    -7878.131   -7369.0517   -865.86748     102002.7      46.7237      46.7237      46.7237 
  447000    90.526253   -7898.4565   -7381.4401   -622.19623     102002.7      46.7237      46.7237      46.7237 
  448000    93.303341   -7887.8491    -7354.972   -648.25099     102002.7      46.7237      46.7237      46.7237 
  449000    91.232016   -7879.8376   -7358.7904   -864.96516     102002.7      46.7237      46.7237      46.7237 
  450000    89.676873    -7901.952   -7389.7865   -1053.0118     102002.7      46.7237      46.7237      46.7237 
  451000    91.478609   -7890.5047   -7368.0492   -692.29981     102002.7      46.7237      46.7237      46.7237 
  452000     92.23799   -7884.7367   -7357.9441   -586.96551     102002.7      46.7237      46.7237      46.7237 
  453000    91.580503   -7869.1103   -7346.0728   -846.60648     102002.7      46.7237      46.7237      46.7237 
  454000     88.86214   -7879.5184   -7372.0061    -454.7817     102002.7      46.7237      46.7237      46.7237 
  455000    90.897784   -7872.6722   -7353.5338   -486.33008     102002.7      46.7237      46.7237      46.7237 
  456000    90.837265   -7903.8082   -7385.0155   -721.58199     102002.7      46.7237      46.7237      46.7237 
  457000    90.761001   -7890.1093   -7371.7522   -610.03489     102002.7      46.7237      46.7237      46.7237 
  458000    91.107965   -7897.4233   -7377.0845   -601.07006     102002.7      46.7237      46.7237      46.7237 
  459000    89.414604     -7891.96   -7381.2925    -595.5697     102002.7      46.7237      46.7237      46.7237 
  460000    91.003767   -7876.3201   -7356.5764   -531.15367     102002.7      46.7237      46.7237      46.7237 
  461000    88.974614   -7882.9703   -7374.8157   -798.66879     102002.7      46.7237      46.7237      46.7237 
  462000    94.349828   -7876.1825   -7337.3288   -811.15897     102002.7      46.7237      46.7237      46.7237 
  463000    90.948148    -7882.057    -7362.631   -708.18839     102002.7      46.7237      46.7237      46.7237 
  464000    91.304398   -7885.9483   -7364.4877   -819.43415     102002.7      46.7237      46.7237      46.7237 
  465000    92.373265   -7865.9817   -7338.4165   -608.80464     102002.7      46.7237      46.7237      46.7237 
  466000    89.495333   -7888.5861   -7377.4575   -745.47782     102002.7      46.7237      46.7237      46.7237 
  467000    92.430395   -7890.7424    -7362.851   -515.45358     102002.7      46.7237      46.7237      46.7237 
  468000    89.068386   -7865.3891   -7356.6988   -524.53978     102002.7      46.7237      46.7237      46.7237 
  469000    89.195306   -7873.9646   -7364.5496   -661.02862     102002.7      46.7237      46.7237      46.7237 
  470000    93.613266   -7891.2338   -7356.5867   -483.68723     102002.7      46.7237      46.7237      46.7237 
  471000    91.615797   -7919.1863   -7395.9473   -718.55057     102002.7      46.7237      46.7237      46.7237 
  472000    89.085572   -7879.3858   -7370.5974   -868.09182     102002.7      46.7237      46.7237      46.7237 
  473000    92.710564   -7871.6742   -7342.1826    -662.2223     102002.7      46.7237      46.7237      46.7237 
  474000     88.43231   -7883.9607   -7378.9033   -637.07255     102002.7      46.7237      46.7237      46.7237 
  475000    91.303014   -7872.3141   -7350.8614   -542.64155     102002.7      46.7237      46.7237      46.7237 
  476000    90.516377    -7867.995    -7351.035   -676.58364     102002.7      46.7237      46.7237      46.7237 
  477000     90.24848   -7904.6883   -7389.2583   -652.50059     102002.7      46.7237      46.7237      46.7237 
  478000    90.864832   -7895.4138   -7376.4637   -795.83497     102002.7      46.7237      46.7237      46.7237 
  479000    92.679455   -7874.1301   -7344.8163   -821.12837     102002.7      46.7237      46.7237      46.7237 
  480000    92.957717   -7902.9009   -7371.9978   -854.10898     102002.7      46.7237      46.7237      46.7237 
  481000    92.276029   -7891.6614   -7364.6516   -899.80189     102002.7      46.7237      46.7237      46.7237 
  482000    91.759046   -7885.5667   -7361.5095   -913.15818     102002.7      46.7237      46.7237      46.7237 
  483000    89.208197   -7904.8075   -7395.3187   -840.01838     102002.7      46.7237      46.7237      46.7237 
  484000     91.18867   -7882.0059   -7361.2063   -738.05964     102002.7      46.7237      46.7237      46.7237 
  485000    91.461048   -7892.3645   -7370.0092   -1254.6461     102002.7      46.7237      46.7237      46.7237 
  486000    89.839622   -7896.0834   -7382.9884   -726.00517     102002.7      46.7237      46.7237      46.7237 
  487000    90.944082   -7869.0329   -7349.6301   -911.21554     102002.7      46.7237      46.7237      46.7237 
  488000    89.987187   -7884.9987    -7371.061   -548.58428     102002.7      46.7237      46.7237      46.7237 
  489000     92.57941   -7905.8257   -7377.0832   -602.37905     102002.7      46.7237      46.7237      46.7237 
  490000    91.596378   -7902.2647   -7379.1365   -789.15195     102002.7      46.7237      46.7237      46.7237 
  491000    91.435694   -7898.5922   -7376.3817    -603.9171     102002.7      46.7237      46.7237      46.7237 
  492000     91.29221   -7873.6292   -7352.2382   -826.50588     102002.7      46.7237      46.7237      46.7237 
  493000     91.54715   -7878.6281   -7355.7811   -901.08334     102002.7      46.7237      46.7237      46.7237 
  494000    90.596283   -7878.0278   -7360.6114   -743.53858     102002.7      46.7237      46.7237      46.7237 
  495000    89.845043   -7886.8275   -7373.7016   -720.24082     102002.7      46.7237      46.7237      46.7237 
  496000    91.800638   -7889.5885   -7365.2938   -652.38181     102002.7      46.7237      46.7237      46.7237 
  497000    91.738066   -7870.2781   -7346.3407   -707.36379     102002.7      46.7237      46.7237      46.7237 
  498000    89.747025   -7895.7649   -7383.1988   -939.46222     102002.7      46.7237      46.7237      46.7237 
  499000    89.165185   -7898.5081    -7389.265   -606.19417     102002.7      46.7237      46.7237      46.7237 
  500000    90.124563   -7900.3086   -7385.5863   -1129.3994     102002.7      46.7237      46.7237      46.7237 
  500503    93.220739   -7905.3442   -7372.9389   -580.13452     102002.7      46.7237      46.7237      46.7237 
Loop time of 1339.17 on 16 procs for 500000 steps with 1917 atoms

Performance: 32.259 ns/day, 0.744 hours/ns, 373.366 timesteps/s
99.8% CPU use with 16 MPI tasks x no OpenMP threads

MPI task timing breakdown:
Section |  min time  |  avg time  |  max time  |%varavg| %total
---------------------------------------------------------------
Pair    | 564.3      | 737.21     | 939.87     | 470.1 | 55.05
Bond    | 159.64     | 174.18     | 184.44     |  40.1 | 13.01
Neigh   | 5.3582     | 5.3813     | 5.4009     |   0.5 |  0.40
Comm    | 195.8      | 408.39     | 576.03     | 629.5 | 30.50
Output  | 0.020386   | 0.021203   | 0.02581    |   1.0 |  0.00
Modify  | 7.9119     | 8.5324     | 9.39       |  18.0 |  0.64
Other   |            | 5.449      |            |       |  0.41

Nlocal:    119.812 ave 151 max 92 min
Histogram: 2 1 2 2 2 2 0 2 1 2
Nghost:    2398.69 ave 2435 max 2358 min
Histogram: 2 0 2 1 2 1 3 2 2 1
Neighs:    11482.6 ave 16728 max 6892 min
Histogram: 2 3 1 1 1 2 2 1 2 1

Total # of neighbors = 183721
Ave neighs/atom = 95.8378
Ave special neighs/atom = 6.00939
Neighbor list builds = 3734
Dangerous builds = 0
Neighbor list info ...
  update every 1 steps, delay 10 steps, check yes
  max neighbors/atom: 2000, page size: 100000
  master list distance cutoff = 16
  ghost atom cutoff = 16
  binsize = 8, bins = 6 6 6
  3 neighbor lists, perpetual/occasional/extra = 3 0 0
  (1) pair buck6d/coul/gauss/dsf, perpetual, skip from (3)
      attributes: half, newton on
      pair build: skip
      stencil: none
      bin: none
  (2) pair lj/cut, perpetual, skip from (3)
      attributes: half, newton on
      pair build: skip
      stencil: none
      bin: none
  (3) neighbor class addition, perpetual
      attributes: half, newton on
      pair build: half/bin/newton
      stencil: half/bin/3d/newton
      bin: standard
Setting up Verlet run ...
  Unit style    : real
  Current step  : 500503
  Time step     : 1
WARNING: Inconsistent image flags (../domain.cpp:786)
Per MPI rank memory allocation (min/avg/max) = 23.08 | 23.32 | 23.35 Mbytes
Step Time TotEng KinEng PotEng E_mol E_pair Temp Pxx Pyy Pzz Pxy Pxz Pyz Cella Cellb Cellc CellAlpha CellBeta CellGamma Volume Press 
  500503       500000   -7372.9389    532.40528   -7905.3442    4175.0951   -12080.439    93.220739   -800.57041   -391.86947   -547.96369    18.525137   -167.00998    107.88285      46.7237      46.7237      46.7237           90           90           90     102002.7   -580.13452 
  501000       500497   -7372.1511    525.11534   -7897.2664    4171.0766   -12068.343    91.944319   -1243.1951     -903.511   -785.62141   -94.997426    82.214467    433.15811      46.7237      46.7237      46.7237           90           90           90     102002.7   -977.44249 
  502000       501497   -7375.8546     524.3439   -7900.1985    4184.8079   -12085.006    91.809245   -850.39756   -392.31789    -352.6206   -40.204123     163.8695    128.83061      46.7237      46.7237      46.7237           90           90           90     102002.7   -531.77868 
  503000       502497   -7369.3206    527.75022   -7897.0708    4163.6841   -12060.755    92.405669   -775.25167   -829.48733   -773.01838   -132.28619   -39.571991   -107.06749      46.7237      46.7237      46.7237           90           90           90     102002.7   -792.58579 
  504000       503497    -7397.846    494.16058   -7892.0066    4166.5365   -12058.543     86.52434   -1142.3949   -617.55159   -490.79286    46.603222   -84.696622    257.14664      46.7237      46.7237      46.7237           90           90           90     102002.7   -750.24645 
  505000       504497   -7362.8571    520.08275   -7882.9398    4184.4779   -12067.418    91.063144   -603.59598    -936.7902   -736.69768   -11.317453    143.13397    9.6695687      46.7237      46.7237      46.7237           90           90           90     102002.7   -759.02795 
  506000       505497   -7378.5061    519.34692    -7897.853    4191.4337   -12089.287    90.934305   -846.04553    -716.6347   -1166.7197   -72.139717    229.85071   -116.08125      46.7237      46.7237      46.7237           90           90           90     102002.7   -909.79998 
  507000       506497    -7406.857    512.10792   -7918.9649    4163.1908   -12082.156    89.666803    -818.0851   -212.94256   -496.23614   -72.787798   -129.13074     21.82065      46.7237      46.7237      46.7237           90           90           90     102002.7   -509.08793 
  508000       507497   -7371.2708    519.52151   -7890.7924     4167.612   -12058.404    90.964875   -252.45092   -560.30065   -492.12142    46.425432   -184.27856   -98.948417      46.7237      46.7237      46.7237           90           90           90     102002.7   -434.95766 
  509000       508497   -7391.4617    514.83884   -7906.3005    4178.9291    -12085.23     90.14497   -905.72225   -551.80511   -791.01622    64.960407    80.611322   -15.745038      46.7237      46.7237      46.7237           90           90           90     102002.7   -749.51453 
  510000       509497   -7363.1592    520.87672   -7884.0359    4172.4966   -12056.533    91.202164   -317.87327   -541.27013   -406.71585   -113.46304    6.5301486    5.0531304      46.7237      46.7237      46.7237           90           90           90     102002.7   -421.95308 
  511000       510497   -7363.6731    515.55455   -7879.2276    4201.3506   -12080.578    90.270286    -814.4922    -922.4877   -410.19134   -119.88221   -123.59255   -38.027344      46.7237      46.7237      46.7237           90           90           90     102002.7   -715.72375 
  512000       511497   -7384.1039    510.76789   -7894.8718     4185.475   -12080.347    89.432173   -764.15749   -1034.2024   -835.97253    69.005374    59.508689   -92.576477      46.7237      46.7237      46.7237           90           90           90     102002.7   -878.11081 
  513000       512497   -7364.3137    518.57917   -7882.8929     4184.734   -12067.627    90.799878   -527.77397   -724.60138   -652.34717   -73.775996    30.973298    54.294182      46.7237      46.7237      46.7237           90           90           90     102002.7   -634.90751 
  514000       513497   -7374.1901    511.31865   -7885.5088    4185.1394   -12070.648    89.528608   -1036.3074   -1041.0857   -730.44035    117.00334   -94.524487   -48.397077      46.7237      46.7237      46.7237           90           90           90     102002.7   -935.94447 
  515000       514497   -7344.9929    522.92925   -7867.9221    4196.8631   -12064.785    91.561549   -963.72898   -773.72505   -758.30178   -96.214465   -32.587148    154.33063      46.7237      46.7237      46.7237           90           90           90     102002.7    -831.9186 
  516000       515497   -7360.4271    521.94065   -7882.3678    4186.9008   -12069.269     91.38845     -449.309   -1115.5025   -1154.2598   -73.652385    182.77449   -49.023014      46.7237      46.7237      46.7237           90           90           90     102002.7   -906.35708 
  517000       516497   -7393.8069    504.90071   -7898.7077    4160.4323    -12059.14    88.404867   -458.36946   -601.12629   -1073.2774    25.214066   -103.30185   -24.258403      46.7237      46.7237      46.7237           90           90           90     102002.7   -710.92438 
  518000       517497   -7357.3321    530.14015   -7887.4722      4180.57   -12068.042    92.824131   -686.26753   -1310.7122   -989.24475    27.584443    16.809455    134.66237      46.7237      46.7237      46.7237           90           90           90     102002.7   -995.40816 
  519000       518497   -7371.3413     503.0453   -7874.3866    4188.4353   -12062.822    88.079996    -191.7894   -429.55125   -700.74211   -54.336941     178.3417   -2.4383064      46.7237      46.7237      46.7237           90           90           90     102002.7   -440.69425 
  520000       519497   -7364.5514    530.35007   -7894.9014    4184.0927   -12078.994    92.860886   -533.43737   -560.62866    -953.7428   -145.20075    8.7643877   -134.83347      46.7237      46.7237      46.7237           90           90           90     102002.7   -682.60294 
  521000       520497   -7356.9278    529.52956   -7886.4574    4175.1488   -12061.606    92.717219   -742.62876   -610.78547   -869.65896    230.70791   -166.19726   -81.797052      46.7237      46.7237      46.7237           90           90           90     102002.7    -741.0244 
  522000       521497    -7374.342    519.18503   -7893.5271    4182.2879   -12075.815     90.90596   -427.64304    -1194.398    -1077.914   -49.592946   -13.061092   -52.049737      46.7237      46.7237      46.7237           90           90           90     102002.7   -899.98502 
  523000       522497   -7365.1729    525.26146   -7890.4344    4177.9596   -12068.394    91.969903   -754.07454   -306.58691   -742.04547    65.950673   -3.0175714    37.430432      46.7237      46.7237      46.7237           90           90           90     102002.7   -600.90231 
  524000       523497   -7382.8059    514.29502   -7897.1009    4175.8492    -12072.95     90.04975   -1011.2922   -812.53402   -216.56007   -11.016426   -177.09801   -75.626762      46.7237      46.7237      46.7237           90           90           90     102002.7   -680.12877 
  525000       524497   -7360.8271    531.09772   -7891.9249    4191.7003   -12083.625    92.991796   -722.14841   -840.35006   -1138.1283   -132.00925    146.01937   -219.59733      46.7237      46.7237      46.7237           90           90           90     102002.7   -900.20891 
  526000       525497   -7379.3597     512.5411   -7891.9008    4186.6292    -12078.53     89.74265   -492.66952   -314.86723    -533.7348     53.49568    130.56224    279.51209      46.7237      46.7237      46.7237           90           90           90     102002.7   -447.09052 
  527000       526497   -7390.2832    510.98837   -7901.2715    4176.7716   -12078.043    89.470776   -464.65595   -678.12802   -483.66288   -71.183798   -171.68023   -112.15295      46.7237      46.7237      46.7237           90           90           90     102002.7   -542.14895 
  528000       527497   -7363.8759     522.4015   -7886.2774     4185.988   -12072.265    91.469142   -871.30959   -323.18104   -788.79053   -82.109775   -63.893437   -194.23462      46.7237      46.7237      46.7237           90           90           90     102002.7   -661.09372 
  529000       528497   -7354.5357    534.81536    -7889.351    4192.2579   -12081.609     93.64273    -746.9374   -545.20696   -791.24604   -99.097045   -56.519173     5.525394      46.7237      46.7237      46.7237           90           90           90     102002.7   -694.46347 
  530000       529497   -7380.7413    517.39565    -7898.137    4180.2951   -12078.432     90.59265   -1021.6781   -584.72902   -1339.9065   -199.17235    99.135078   -186.12233      46.7237      46.7237      46.7237           90           90           90     102002.7   -982.10456 
  531000       530497   -7365.3725    522.20691   -7887.5794    4184.9298   -12072.509    91.435071   -984.91041   -645.71207   -671.07911   -29.440902   -7.9719084    91.659882      46.7237      46.7237      46.7237           90           90           90     102002.7   -767.23386 
  532000       531497   -7376.8831    510.64375   -7887.5269     4197.175   -12084.702    89.410436   -846.49004   -806.16149   -655.87961    197.03733    225.29147   -167.92994      46.7237      46.7237      46.7237           90           90           90     102002.7   -769.51038 
  533000       532497   -7376.8462    512.09541   -7888.9416    4194.5484    -12083.49    89.664613   -898.07827   -1119.6727   -973.71731   -10.549274    247.40519   -9.4295135      46.7237      46.7237      46.7237           90           90           90     102002.7   -997.15609 
  534000       533497   -7377.3032    532.02951   -7909.3327    4168.7129   -12078.046    93.154946   -1238.7319   -536.28536   -906.11237   -104.26929   -56.746612    271.56331      46.7237      46.7237      46.7237           90           90           90     102002.7   -893.70988 
  535000       534497   -7380.8257    510.56651   -7891.3922    4186.8367   -12078.229    89.396913    -910.0693    125.99401   -913.01152    117.02086     135.4427   -110.69399      46.7237      46.7237      46.7237           90           90           90     102002.7    -565.6956 
  536000       535497   -7368.5691    511.90196   -7880.4711     4200.445   -12080.916    89.630741   -995.93277   -413.42716    -508.7456   -158.25443    -35.37853    47.307264      46.7237      46.7237      46.7237           90           90           90     102002.7   -639.36851 
  537000       536497   -7338.0573    536.58097   -7874.6383    4190.8676   -12065.506    93.951877   -1138.6857   -480.24053   -959.98299    -54.94945    205.59193    55.615463      46.7237      46.7237      46.7237           90           90           90     102002.7   -859.63641 
  538000       537497   -7350.6981    538.90302   -7889.6011    4179.6905   -12069.292    94.358453    -495.7816   -503.15915   -628.22335    71.589291   -128.06514    324.74819      46.7237      46.7237      46.7237           90           90           90     102002.7   -542.38803 
  539000       538497   -7368.5498    517.61067   -7886.1605    4170.5251   -12056.686    90.630299   -821.78525   -1197.5324   -780.69909   -19.705109    27.978804   -70.156799      46.7237      46.7237      46.7237           90           90           90     102002.7    -933.3389 
  540000       539497   -7373.0133    515.18364   -7888.1969    4200.6162   -12088.813    90.205341   -879.48047   -598.79705   -1008.4456   -104.14064    139.80224    -217.8707      46.7237      46.7237      46.7237           90           90           90     102002.7    -828.9077 
  541000       540497   -7350.4279     531.4228   -7881.8507    4186.9507   -12068.801    93.048715   -613.41571   -742.68585   -1022.3662   -34.632421   -302.66606   -175.96442      46.7237      46.7237      46.7237           90           90           90     102002.7   -792.82259 
  542000       541497   -7361.6426    526.67837   -7888.3209    4186.0358   -12074.357    92.217995   -1010.5138   -1188.6746   -803.07853    314.64569   -187.10378     34.06933      46.7237      46.7237      46.7237           90           90           90     102002.7   -1000.7556 
  543000       542497    -7362.401    538.56835   -7900.9693    4185.5039   -12086.473    94.299854   -605.96978   -647.02214   -1153.3087   -102.49877   -48.791638   -174.22739      46.7237      46.7237      46.7237           90           90           90     102002.7    -802.1002 
  544000       543497   -7385.5608     514.8161   -7900.3769      4189.21   -12089.587    90.140988   -1108.1805   -842.97289   -921.37455   -34.554275    59.097599   -27.320789      46.7237      46.7237      46.7237           90           90           90     102002.7   -957.50932 
  545000       544497    -7372.996    521.24497    -7894.241    4174.7231   -12068.964    91.266641   -682.31374   -719.47571   -705.12654      254.322   -61.123617    147.34652      46.7237      46.7237      46.7237           90           90           90     102002.7   -702.30533 
  546000       545497   -7383.3496    507.98429   -7891.3339     4184.962   -12076.296    88.944782   -1062.7213   -1022.2564   -711.57789    92.482891    297.90369   -26.602584      46.7237      46.7237      46.7237           90           90           90     102002.7   -932.18521 
  547000       546497   -7393.9225    514.88752     -7908.81    4161.6585   -12070.469    90.153493   -619.11873   -921.62735   -964.03205   -239.20874     18.43768   -112.98157      46.7237      46.7237      46.7237           90           90           90     102002.7   -834.92604 
  548000       547497   -7365.9133    522.44772   -7888.3611    4194.2508   -12082.612    91.477236   -1070.7451   -889.82361    -885.1887   -182.80163    -13.98987   -64.602304      46.7237      46.7237      46.7237           90           90           90     102002.7   -948.58582 
  549000       548497   -7347.0687    530.34424    -7877.413    4191.6509   -12069.064    92.859865   -980.72546   -1027.8644   -760.02348   -71.955687    99.832288    103.13602      46.7237      46.7237      46.7237           90           90           90     102002.7   -922.87113 
  550000       549497   -7361.7392    518.55948   -7880.2987    4188.0134   -12068.312     90.79643   -783.52141   -442.18796   -486.02416    280.96254   -61.297234   -157.22519      46.7237      46.7237      46.7237           90           90           90     102002.7   -570.57784 
  551000       550497    -7381.591    522.27816   -7903.8692    4181.6574   -12085.527    91.447547   -856.46533   -719.87416   -554.47907   -62.348409   -303.91011    287.61593      46.7237      46.7237      46.7237           90           90           90     102002.7   -710.27285 
  552000       551497   -7395.9354      509.909   -7905.8444    4169.7253    -12075.57    89.281786   -251.75966    -743.9056   -791.59356   -80.904538    26.838306   -78.323881      46.7237      46.7237      46.7237           90           90           90     102002.7   -595.75294 
  553000       552497   -7360.8231    526.89854   -7887.7216    4199.0133   -12086.735    92.256545   -748.99888   -494.44871   -613.18266  -0.21344232   -161.66443   -64.297573      46.7237      46.7237      46.7237           90           90           90     102002.7   -618.87675 
  554000       553497    -7369.267    530.41471   -7899.6817    4165.4583    -12065.14    92.872204   -687.74552    -638.0902   -656.45387    97.532241    166.09947   -59.614078      46.7237      46.7237      46.7237           90           90           90     102002.7   -660.76319 
  555000       554497   -7384.9957    511.48971   -7896.4854    4183.3664   -12079.852    89.558558   -366.26675   -594.70309   -716.71664    3.8614685   -95.548781   -14.661157      46.7237      46.7237      46.7237           90           90           90     102002.7   -559.22883 
[...]
  936000       935497   -7363.5597    524.65386   -7888.2135    4192.6408   -12080.854    91.863517   -703.35585   -531.82743   -717.61215   -219.98519    297.06826   -38.427909      46.7237      46.7237      46.7237           90           90           90     102002.7   -650.93181 
  937000       936497   -7357.9195    523.40297   -7881.3224    4203.3991   -12084.722    91.644494   -307.92424   -684.28518   -593.37269    71.402104   -251.34975   -86.413212      46.7237      46.7237      46.7237           90           90           90     102002.7   -528.52737 
  938000       937497   -7386.3123    526.82274    -7913.135    4145.3744   -12058.509    92.243273   -633.82392   -383.39027   -416.15673    105.07366    82.752412   -30.687012      46.7237      46.7237      46.7237           90           90           90     102002.7    -477.7903 
  939000       938497   -7373.8559     516.6741     -7890.53     4178.446   -12068.976    90.466312   -705.88062   -539.08363   -479.57344    137.10293    43.294984   -21.372593      46.7237      46.7237      46.7237           90           90           90     102002.7    -574.8459 
  940000       939497   -7381.2423    516.81754   -7898.0599    4180.8743   -12078.934    90.491427   -671.19307   -678.54674   -463.40444   -219.34479    12.184284    88.540356      46.7237      46.7237      46.7237           90           90           90     102002.7   -604.38141 
  941000       940497   -7374.8327    519.25483   -7894.0875    4184.5705   -12078.658    90.918181   -871.77744   -649.99826   -468.55715    24.984269   -71.752105    8.4080985      46.7237      46.7237      46.7237           90           90           90     102002.7   -663.44428 
  942000       941497   -7373.8194    524.64573   -7898.4652    4166.5909   -12065.056    91.862093   -499.95458   -588.04285   -1035.2711   -191.53233    -47.53781    217.62332      46.7237      46.7237      46.7237           90           90           90     102002.7   -707.75619 
  943000       942497   -7371.0513    526.30291   -7897.3542    4181.7382   -12079.092    92.152254   -1141.6503   -726.40347   -483.20845   -187.61103   -87.085305    324.51002      46.7237      46.7237      46.7237           90           90           90     102002.7   -783.75407 
  944000       943497   -7378.6362    521.64059   -7900.2768    4159.6611   -12059.938    91.335913   -754.71574    -781.1878   -804.67171    54.159921     36.23641    58.758918      46.7237      46.7237      46.7237           90           90           90     102002.7   -780.19175 
  945000       944497   -7359.3347    525.81984   -7885.1546    4183.0251    -12068.18    92.067672   -768.79492   -659.51068   -309.81588   -4.4552008    176.92094   -75.678827      46.7237      46.7237      46.7237           90           90           90     102002.7   -579.37383 
  946000       945497   -7387.0524     506.8748   -7893.9272     4194.915   -12088.842    88.750518   -992.26542   -1128.5311   -662.75914    62.981437  -0.46771685    217.12016      46.7237      46.7237      46.7237           90           90           90     102002.7    -927.8519 
  947000       946497   -7359.8282    519.83592   -7879.6641    4184.1874   -12063.851    91.019926   -1009.7296   -350.37004   -697.76972   -76.172019   -68.102708   -88.428491      46.7237      46.7237      46.7237           90           90           90     102002.7   -685.95645 
  948000       947497   -7351.9061    534.12905   -7886.0352    4198.9082   -12084.943    93.522561    -628.6998   -905.54898    -843.7432    206.04456    12.065981   -164.11296      46.7237      46.7237      46.7237           90           90           90     102002.7     -792.664 
  949000       948497   -7358.2374    525.83469   -7884.0721    4190.9096   -12074.982    92.070272   -812.28073   -1034.7833   -864.19745   -68.875486    95.736067    133.97189      46.7237      46.7237      46.7237           90           90           90     102002.7   -903.75383 
  950000       949497    -7378.822    508.90167   -7887.7237    4183.1569   -12070.881     89.10541   -910.38382   -956.14742   -723.90195    134.73443    45.000641   -156.45193      46.7237      46.7237      46.7237           90           90           90     102002.7   -863.47773 
  951000       950497   -7377.9388    518.21438   -7896.1531    4189.3862   -12085.539    90.736005   -531.02469   -552.58881    -843.7775   -74.488986   -243.70757   -20.917302      46.7237      46.7237      46.7237           90           90           90     102002.7   -642.46367 
  952000       951497   -7370.3378     510.1189   -7880.4567    4203.4819   -12083.939    89.318538    -459.5886   -596.87642   -661.70471   -128.90285    125.43709   -158.38303      46.7237      46.7237      46.7237           90           90           90     102002.7   -572.72324 
  953000       952497   -7354.7327    528.39615   -7883.1289    4190.2045   -12073.333    92.518768   -1217.7129    -428.2163   -838.65582   -61.097826   -27.128952    72.835002      46.7237      46.7237      46.7237           90           90           90     102002.7     -828.195 
  954000       953497   -7380.1976    514.07636   -7894.2739    4181.8083   -12076.082    90.011465   -691.71863   -762.93007   -757.03113    69.451012    129.68455   -31.571673      46.7237      46.7237      46.7237           90           90           90     102002.7   -737.22661 
  955000       954497   -7393.0672    513.51557   -7906.5828    4164.3886   -12070.971    89.913273   -341.00249   -514.40687   -1106.1173    6.5379088   -93.883395   -127.42542      46.7237      46.7237      46.7237           90           90           90     102002.7   -653.84221 
  956000       955497   -7355.7208    532.25091   -7887.9717    4186.7954   -12074.767     93.19371   -702.62122   -590.70238   -1007.0607   -135.07109     107.3341    18.573222      46.7237      46.7237      46.7237           90           90           90     102002.7   -766.79477 
  957000       956497   -7383.3207    507.55034    -7890.871    4180.4238   -12071.295      88.8688    -826.7997   -560.78788   -656.52866     14.01852    44.289776     107.5343      46.7237      46.7237      46.7237           90           90           90     102002.7   -681.37208 
  958000       957497   -7362.7087    521.06869   -7883.7774    4206.2426    -12090.02    91.235776   -893.99413   -755.41067   -789.73183    203.42845     139.7094    224.38668      46.7237      46.7237      46.7237           90           90           90     102002.7   -813.04554 
  959000       958497   -7380.3641    508.90137   -7889.2655    4175.7986   -12065.064    89.105358   -952.72989    -746.3755   -748.23559    150.00426   -171.10237    190.64939      46.7237      46.7237      46.7237           90           90           90     102002.7   -815.78033 
  960000       959497   -7393.4048    489.77311   -7883.1779    4206.3742   -12089.552    85.756122   -703.69213   -820.90484   -912.82447     151.6864    233.19861   -213.03483      46.7237      46.7237      46.7237           90           90           90     102002.7   -812.47381 
  961000       960497   -7359.3066    518.50014   -7877.8067    4190.9183   -12068.725     90.78604   -210.66713   -752.72364   -634.86456    26.108723    38.273757    -111.9367      46.7237      46.7237      46.7237           90           90           90     102002.7   -532.75178 
  962000       961497   -7366.3701    522.24345   -7888.6136    4198.3352   -12086.949     91.44147   -1049.4226   -856.13147   -464.59647   0.19777459    27.131741    -29.05561      46.7237      46.7237      46.7237           90           90           90     102002.7   -790.05017 
  963000       962497   -7377.4102    526.57472   -7903.9849    4169.1193   -12073.104    92.199847   -946.82276   -809.67588   -964.82079    -14.70096    13.701942   -91.291436      46.7237      46.7237      46.7237           90           90           90     102002.7   -907.10647 
  964000       963497   -7334.8344     537.5117   -7872.3461    4190.5436    -12062.89    94.114841   -321.62454   -464.19094   -713.07526     -150.889     51.11269   -41.883981      46.7237      46.7237      46.7237           90           90           90     102002.7   -499.63025 
  965000       964497   -7354.6551    517.94039   -7872.5955    4206.9924   -12079.588    90.688031   -778.57741   -992.22297   -613.30866   -255.76062    98.990023   -47.104152      46.7237      46.7237      46.7237           90           90           90     102002.7   -794.70301 
  966000       965497   -7384.8899    508.59135   -7893.4812    4174.5634   -12068.045    89.051075   -472.63586   -861.50812   -937.90882   -177.44673   -25.761128    41.200529      46.7237      46.7237      46.7237           90           90           90     102002.7   -757.35093 
  967000       966497   -7363.0053     531.2974   -7894.3026    4178.8417   -12073.144    93.026757   -703.17661   -713.75622   -572.41793    96.916314   -72.632053    44.273489      46.7237      46.7237      46.7237           90           90           90     102002.7   -663.11692 
  968000       967497   -7342.0928    530.91929   -7873.0121    4196.7813   -12069.793    92.960554   -808.73228   -446.77051   -1031.1475    -38.36915   -119.89337   -49.618122      46.7237      46.7237      46.7237           90           90           90     102002.7   -762.21675 
  969000       968497   -7385.4992    517.93284    -7903.432    4171.6373   -12075.069     90.68671   -629.59128   -529.35141   -884.49801     -76.2068   -53.140294    14.347185      46.7237      46.7237      46.7237           90           90           90     102002.7    -681.1469 
  970000       969497   -7366.2934     516.2204   -7882.5138    4190.0878   -12072.602    90.386871   -516.14702   -520.10394   -737.89561   -175.54714   -26.533298   -16.700015      46.7237      46.7237      46.7237           90           90           90     102002.7   -591.38219 
  971000       970497   -7344.9259     529.2337   -7874.1596    4207.0322   -12081.192    92.665417   -631.28812   -799.01875   -640.56292   -170.27085    3.1443066   -50.714457      46.7237      46.7237      46.7237           90           90           90     102002.7   -690.28993 
  972000       971497   -7357.2472    523.08198   -7880.3292    4196.1346   -12076.464     91.58829   -478.89671   -616.41624   -473.45824   -51.694202    8.8093997    153.16074      46.7237      46.7237      46.7237           90           90           90     102002.7   -522.92373 
  973000       972497   -7330.3633    535.30046   -7865.6638    4197.5699   -12063.234    93.727667   -648.53561   -978.35658   -455.35439   -42.901186    322.66044    73.765691      46.7237      46.7237      46.7237           90           90           90     102002.7   -694.08219 
  974000       973497   -7383.3998    518.33011   -7901.7299    4176.6642   -12078.394    90.756268   -919.50134    -502.1612   -839.34098   -138.29667    31.991807    165.01162      46.7237      46.7237      46.7237           90           90           90     102002.7   -753.66784 
  975000       974497   -7375.1369     511.4224   -7886.5593     4187.094   -12073.653    89.546774    -665.2478   -429.56282   -968.58694   -55.089268    139.09548    94.483279      46.7237      46.7237      46.7237           90           90           90     102002.7   -687.79919 
  976000       975497   -7361.9145    531.58344   -7893.4979    4177.0114   -12070.509    93.076842   -438.73449   -882.95674   -511.61348    77.145614   -211.51119   -125.43927      46.7237      46.7237      46.7237           90           90           90     102002.7   -611.10157 
  977000       976497   -7362.1924      514.139   -7876.3314    4204.9636   -12081.295    90.022432   -395.33507   -853.71879   -1095.9313   -117.34946   -170.05573    60.309951      46.7237      46.7237      46.7237           90           90           90     102002.7   -781.66173 
  978000       977497   -7360.3317     522.4557   -7882.7874    4183.5068   -12066.294    91.478632   -1004.5515   -590.22633   -797.18154   -171.03572    123.85271   -89.502078      46.7237      46.7237      46.7237           90           90           90     102002.7    -797.3198 
  979000       978497   -7350.2315    535.81463   -7886.0461    4180.1107   -12066.157    93.817696    -762.2006   -405.81777   -247.25441    172.78549    28.304741   -120.18289      46.7237      46.7237      46.7237           90           90           90     102002.7   -471.75759 
  980000       979497   -7380.7904    528.82724   -7909.6176    4174.1803   -12083.798    92.594248   -373.12705   -877.09882   -543.26852   -130.35476    100.48774    138.68156      46.7237      46.7237      46.7237           90           90           90     102002.7   -597.83146 
  981000       980497   -7374.0282    532.98421   -7907.0124    4161.3506   -12068.363    93.322108   -668.82199   -565.36479   -923.79986   -94.753084   -171.79018   -55.066998      46.7237      46.7237      46.7237           90           90           90     102002.7   -719.32888 
  982000       981497   -7385.9344    509.87343   -7895.8079    4184.9906   -12080.798    89.275558   -739.41213   -800.85575   -686.47754   -252.00641   0.43197799   -10.402408      46.7237      46.7237      46.7237           90           90           90     102002.7   -742.24847 
  983000       982497     -7351.33     540.1162   -7891.4462    4196.9255   -12088.372    94.570872   -1071.9876   -1057.3088   -972.22973   -71.204728    133.35721    153.39847      46.7237      46.7237      46.7237           90           90           90     102002.7    -1033.842 
  984000       983497   -7365.0742    535.98419   -7901.0584     4163.507   -12064.565    93.847384   -708.00331    -118.3274   -446.36266    89.854802    134.11182   -60.843531      46.7237      46.7237      46.7237           90           90           90     102002.7   -424.23112 
  985000       984497   -7381.5589     508.9696   -7890.5285    4172.8163   -12063.345    89.117303    -286.5825    -538.1722   -913.28039   -18.437484    -20.29367   -128.09901      46.7237      46.7237      46.7237           90           90           90     102002.7   -579.34503 
  986000       985497   -7387.2776    520.61622   -7907.8938    4153.5719   -12061.466    91.156552    -659.1279   -576.68586   -977.56676   -14.245513    18.115034   -172.96447      46.7237      46.7237      46.7237           90           90           90     102002.7   -737.79351 
  987000       986497   -7373.9742    521.97451   -7895.9487    4198.2957   -12094.244    91.394379   -1063.9338   -947.95026   -792.19172   -185.64687   -11.693073   -107.45045      46.7237      46.7237      46.7237           90           90           90     102002.7   -934.69194 
  988000       987497   -7358.4752    543.10431   -7901.5795    4182.5302    -12084.11    95.094071   -909.59858   -536.89319   -554.59578   -143.07345   -85.054332   -77.958688      46.7237      46.7237      46.7237           90           90           90     102002.7   -667.02918 
  989000       988497   -7381.6582     515.2763   -7896.9345    4180.2382   -12077.173    90.221566   -509.73256   -898.37112   -862.21235     224.0619     155.0725   -245.75367      46.7237      46.7237      46.7237           90           90           90     102002.7   -756.77201 
  990000       989497    -7362.206    506.49367   -7868.6997    4207.6774   -12076.377    88.683784   -1193.5167   -800.52372   -892.28363    9.5169117   -18.385524   -89.002286      46.7237      46.7237      46.7237           90           90           90     102002.7     -962.108 
  991000       990497   -7352.0873    535.08452   -7887.1718    4177.6233   -12064.795    93.689858   -748.38062   -606.20669   -525.60302   -278.95424    50.553428    158.35095      46.7237      46.7237      46.7237           90           90           90     102002.7   -626.73011 
  992000       991497   -7384.3936    510.17075   -7894.5644     4177.585   -12072.149    89.327617   -878.63908   -863.25745   -687.87752   -5.6157562   -46.396217   -161.99751      46.7237      46.7237      46.7237           90           90           90     102002.7   -809.92468 
  993000       992497   -7366.3635     509.7798   -7876.1433     4188.822   -12064.965    89.259164   -399.58596   -820.13322   -820.50979   -1.3620119    111.76152   -19.958477      46.7237      46.7237      46.7237           90           90           90     102002.7   -680.07632 
  994000       993497   -7356.4066    523.06191   -7879.4685    4173.1081   -12052.577    91.584776   -347.80124   -213.36446   -1000.0752   -315.77792    48.642124   -48.428252      46.7237      46.7237      46.7237           90           90           90     102002.7   -520.41364 
  995000       994497   -7384.5364    517.44421   -7901.9806     4176.312   -12078.293    90.601154   -815.93755   -350.21604   -960.27185    153.34283   -226.68701    155.90652      46.7237      46.7237      46.7237           90           90           90     102002.7   -708.80848 
  996000       995497   -7381.6466     517.1723   -7898.8189    4174.8647   -12073.684    90.553543   -176.45805   -785.76432   -632.37698   -43.628787    9.9862419     76.60338      46.7237      46.7237      46.7237           90           90           90     102002.7   -531.53312 
  997000       996497   -7365.3352    531.29332   -7896.6285    4178.7403   -12075.369    93.026044   -678.05716   -467.43979   -541.19166   -103.63626    145.25267    246.32305      46.7237      46.7237      46.7237           90           90           90     102002.7   -562.22954 
  998000       997497   -7380.4824     515.9007   -7896.3831    4175.6998   -12072.083    90.330895   -499.84114   -389.93195    -512.7797    -30.20402   -213.95636   -40.693476      46.7237      46.7237      46.7237           90           90           90     102002.7    -467.5176 
  999000       998497   -7403.2029    515.52475   -7918.7277    4162.2231   -12080.951    90.265069   -638.40415   -583.37234   -859.35904    84.506363   -159.48728   -248.28468      46.7237      46.7237      46.7237           90           90           90     102002.7   -693.71184 
 1000000       999497   -7356.5696    526.57176   -7883.1413    4177.7147   -12060.856    92.199329   -705.95864   -959.31799   -668.20469   -104.25624    115.64077    75.195931      46.7237      46.7237      46.7237           90           90           90     102002.7    -777.8271 
 1000503      1000000   -7376.9309    508.36108    -7885.292    4183.3335   -12068.626    89.010755   -1037.1432   -558.25353   -392.51621    182.20896    97.353716   -64.171924      46.7237      46.7237      46.7237           90           90           90     102002.7   -662.63765 
Loop time of 1477.67 on 16 procs for 500000 steps with 1917 atoms

Performance: 29.235 ns/day, 0.821 hours/ns, 338.371 timesteps/s
99.8% CPU use with 16 MPI tasks x no OpenMP threads

MPI task timing breakdown:
Section |  min time  |  avg time  |  max time  |%varavg| %total
---------------------------------------------------------------
Pair    | 669.76     | 847.56     | 1047.4     | 408.4 | 57.36
Bond    | 159        | 183.46     | 198.39     |  84.1 | 12.42
Neigh   | 5.2798     | 5.3042     | 5.3225     |   0.5 |  0.36
Comm    | 214.91     | 413.43     | 576.42     | 545.8 | 27.98
Output  | 0.099138   | 0.10442    | 0.10488    |   0.4 |  0.01
Modify  | 21.942     | 22.447     | 23.007     |   7.4 |  1.52
Other   |            | 5.368      |            |       |  0.36

Nlocal:    119.812 ave 141 max 91 min
Histogram: 1 1 2 1 0 1 3 4 1 2
Nghost:    2400.25 ave 2437 max 2380 min
Histogram: 3 2 3 2 2 2 0 1 0 1
Neighs:    11469.9 ave 15143 max 9069 min
Histogram: 2 2 2 3 3 1 0 0 2 1

Total # of neighbors = 183519
Ave neighs/atom = 95.7324
Ave special neighs/atom = 6.00939
Neighbor list builds = 3758
Dangerous builds = 0
Total wall time: 0:47:00
