LAMMPS (30 Mar 2018)
Reading data file ...
  orthogonal box = (0 0 0) to (46.7237 46.7237 46.7237)
  2 by 2 by 4 MPI processor grid
  reading atoms ...
  3249 atoms
  scanning bonds ...
  5 = max bonds/atom
  scanning angles ...
  10 = max angles/atom
  scanning dihedrals ...
  32 = max dihedrals/atom
  scanning impropers ...
  3 = max impropers/atom
  reading bonds ...
  2064 bonds
  reading angles ...
  3696 angles
  reading dihedrals ...
  6240 dihedrals
  reading impropers ...
  1008 impropers
Finding 1-2 1-3 1-4 neighbors ...
  special bond factors lj:   0          0          0         
  special bond factors coul: 0          0          0         
  5 = max # of 1-2 neighbors
  8 = max # of 1-3 neighbors
  20 = max # of 1-4 neighbors
  19 = max # of special neighbors
Finding 1-2 1-3 1-4 neighbors ...
  special bond factors lj:   0          0          1         
  special bond factors coul: 1          1          1         
  5 = max # of 1-2 neighbors
  8 = max # of 1-3 neighbors
  19 = max # of special neighbors
WARNING: Using 'neigh_modify every 1 delay 0 check yes' setting during minimization (../min.cpp:168)
Neighbor list info ...
  update every 1 steps, delay 0 steps, check yes
  max neighbors/atom: 2000, page size: 100000
  master list distance cutoff = 16
  ghost atom cutoff = 16
  binsize = 8, bins = 6 6 6
  3 neighbor lists, perpetual/occasional/extra = 3 0 0
  (1) pair buck6d/coul/gauss/dsf, perpetual, skip from (3)
      attributes: half, newton on
      pair build: skip
      stencil: none
      bin: none
  (2) pair lj/cut, perpetual, skip from (3)
      attributes: half, newton on
      pair build: skip
      stencil: none
      bin: none
  (3) neighbor class addition, perpetual
      attributes: half, newton on
      pair build: half/bin/newton
      stencil: half/bin/3d/newton
      bin: standard
Setting up cg style minimization ...
  Unit style    : real
  Current step  : 0
WARNING: Inconsistent image flags (../domain.cpp:786)
Per MPI rank memory allocation (min/avg/max) = 23.02 | 23.48 | 23.92 Mbytes
Step Temp E_pair E_mol TotEng Press 
       0            0   -15738.768    6482.8914   -9255.8768    6149.7128 
     500            0   -16090.426    3751.0751   -12339.351   -1688.3262 
Loop time of 4.84788 on 16 procs for 500 steps with 3249 atoms

99.9% CPU use with 16 MPI tasks x no OpenMP threads

Minimization stats:
  Stopping criterion = max force evaluations
  Energy initial, next-to-last, final = 
        -9255.87681852     -12339.2959085     -12339.3505631
  Force two-norm initial, final = 2575.14 10.6882
  Force max component initial, final = 152.11 1.63617
  Final line search alpha, max atom move = 0.00692359 0.0113282
  Iterations, force evaluations = 500 1000

MPI task timing breakdown:
Section |  min time  |  avg time  |  max time  |%varavg| %total
---------------------------------------------------------------
Pair    | 2.4351     | 3.0912     | 3.6526     |  19.5 | 63.76
Bond    | 0.28316    | 0.36291    | 0.41459    |   6.1 |  7.49
Neigh   | 0.035014   | 0.035121   | 0.035279   |   0.0 |  0.72
Comm    | 0.74035    | 1.3124     | 2.0043     |  31.2 | 27.07
Output  | 0          | 0          | 0          |   0.0 |  0.00
Modify  | 0          | 0          | 0          |   0.0 |  0.00
Other   |            | 0.04628    |            |       |  0.95

Nlocal:    203.062 ave 221 max 173 min
Histogram: 2 0 0 1 2 2 1 2 4 2
Nghost:    4063.12 ave 4104 max 4040 min
Histogram: 1 3 4 2 3 0 1 1 0 1
Neighs:    11483.7 ave 16810 max 7433 min
Histogram: 3 1 2 3 0 2 1 2 1 1

Total # of neighbors = 183739
Ave neighs/atom = 56.5525
Ave special neighs/atom = 3.54571
Neighbor list builds = 10
Dangerous builds = 0
Neighbor list info ...
  update every 1 steps, delay 10 steps, check yes
  max neighbors/atom: 2000, page size: 100000
  master list distance cutoff = 16
  ghost atom cutoff = 16
  binsize = 8, bins = 6 6 6
  3 neighbor lists, perpetual/occasional/extra = 3 0 0
  (1) pair buck6d/coul/gauss/dsf, perpetual, skip from (3)
      attributes: half, newton on
      pair build: skip
      stencil: none
      bin: none
  (2) pair lj/cut, perpetual, skip from (3)
      attributes: half, newton on
      pair build: skip
      stencil: none
      bin: none
  (3) neighbor class addition, perpetual
      attributes: half, newton on
      pair build: half/bin/newton
      stencil: half/bin/3d/newton
      bin: standard
Setting up Verlet run ...
  Unit style    : real
  Current step  : 500
  Time step     : 1
WARNING: Inconsistent image flags (../domain.cpp:786)
Per MPI rank memory allocation (min/avg/max) = 22.66 | 22.73 | 22.79 Mbytes
Step Temp PotEng TotEng Press Volume Lx Ly Lz 
     500           91   -12339.351   -11458.318   -1293.4937     102002.7      46.7237      46.7237      46.7237 
    1000    76.611559   -11608.986   -10867.258   -149.42483     102002.7      46.7237      46.7237      46.7237 
    2000    92.240701   -11478.463   -10585.419   -247.34649     102002.7      46.7237      46.7237      46.7237 
    3000    91.059069   -11503.225   -10621.621   -9.4547027     102002.7      46.7237      46.7237      46.7237 
    4000    89.174716   -11503.241   -10639.881   -244.25325     102002.7      46.7237      46.7237      46.7237 
    5000    90.833787   -11495.948   -10616.525   -479.79585     102002.7      46.7237      46.7237      46.7237 
    6000    90.433675   -11502.245   -10626.696    -218.6416     102002.7      46.7237      46.7237      46.7237 
    7000    90.531894   -11471.164   -10594.664   -274.23726     102002.7      46.7237      46.7237      46.7237 
    8000    92.288867   -11503.076   -10609.565    -89.79146     102002.7      46.7237      46.7237      46.7237 
    9000    89.904647    -11488.07   -10617.643    -209.0578     102002.7      46.7237      46.7237      46.7237 
   10000    90.942836     -11477.7   -10597.221   -222.50551     102002.7      46.7237      46.7237      46.7237 
   11000    89.621368   -11506.948   -10639.264   -168.65566     102002.7      46.7237      46.7237      46.7237 
   12000    90.359013   -11486.415   -10611.589    -218.5785     102002.7      46.7237      46.7237      46.7237 
   13000    89.378381   -11496.126   -10630.794   -407.29405     102002.7      46.7237      46.7237      46.7237 
   14000    91.562415   -11497.257    -10610.78   -272.01058     102002.7      46.7237      46.7237      46.7237 
   15000    90.011446   -11508.895   -10637.434   -157.67124     102002.7      46.7237      46.7237      46.7237 
   16000    90.330967   -11515.014   -10640.459    164.07636     102002.7      46.7237      46.7237      46.7237 
   17000    90.771802   -11522.293   -10643.471    -66.04782     102002.7      46.7237      46.7237      46.7237 
   18000     91.13341   -11497.038   -10614.714   -72.288567     102002.7      46.7237      46.7237      46.7237 
   19000     89.03661   -11504.111   -10642.088    50.903455     102002.7      46.7237      46.7237      46.7237 
   20000    91.384336   -11523.149   -10638.396   -132.28788     102002.7      46.7237      46.7237      46.7237 
   21000    92.333308   -11508.655   -10614.714    108.08132     102002.7      46.7237      46.7237      46.7237 
   22000    89.699461   -11521.026   -10652.585   -90.687746     102002.7      46.7237      46.7237      46.7237 
   23000     90.21879   -11506.076   -10632.607    -278.5541     102002.7      46.7237      46.7237      46.7237 
   24000    92.832426   -11518.177   -10619.404   -211.19393     102002.7      46.7237      46.7237      46.7237 
   25000    92.456168   -11500.765   -10605.634   -91.974166     102002.7      46.7237      46.7237      46.7237 
   26000    90.754641   -11511.127    -10632.47   -4.4421506     102002.7      46.7237      46.7237      46.7237 
   27000    91.044363   -11522.603   -10641.142   -350.75221     102002.7      46.7237      46.7237      46.7237 
   28000    91.421373   -11501.484   -10616.373    42.031585     102002.7      46.7237      46.7237      46.7237 
   29000    90.795158   -11505.874   -10626.825    106.61768     102002.7      46.7237      46.7237      46.7237 
   30000     91.01883   -11503.744    -10622.53   -427.18674     102002.7      46.7237      46.7237      46.7237 
   31000    91.385223   -11515.128   -10630.366   -200.41404     102002.7      46.7237      46.7237      46.7237 
   32000     90.63411   -11526.618   -10649.128    23.339653     102002.7      46.7237      46.7237      46.7237 
   33000    91.312855   -11520.364   -10636.303    -195.0134     102002.7      46.7237      46.7237      46.7237 
   34000    91.972691    -11515.23   -10624.781      144.252     102002.7      46.7237      46.7237      46.7237 
   35000    87.860289   -11522.662   -10672.028    -71.58793     102002.7      46.7237      46.7237      46.7237 
   36000    89.418666   -11531.065   -10665.343   -219.90197     102002.7      46.7237      46.7237      46.7237 
   37000    90.096793    -11513.44   -10641.152   -12.918471     102002.7      46.7237      46.7237      46.7237 
   38000    90.192082   -11504.134   -10630.924    7.6993111     102002.7      46.7237      46.7237      46.7237 
   39000     89.67654   -11523.494   -10655.275   -183.20785     102002.7      46.7237      46.7237      46.7237 
   40000    90.065896    -11509.78   -10637.792   -171.27043     102002.7      46.7237      46.7237      46.7237 
   41000    89.405736   -11501.515   -10635.918   -38.595201     102002.7      46.7237      46.7237      46.7237 
   42000    92.376103   -11510.001   -10615.646   -171.34729     102002.7      46.7237      46.7237      46.7237 
   43000     90.96489   -11523.887   -10643.195   -108.69206     102002.7      46.7237      46.7237      46.7237 
   44000    92.133894   -11510.114   -10618.104   -251.67315     102002.7      46.7237      46.7237      46.7237 
   45000    89.446373   -11512.848   -10646.857   -427.04597     102002.7      46.7237      46.7237      46.7237 
   46000     90.46942   -11515.921   -10640.026   -39.177655     102002.7      46.7237      46.7237      46.7237 
   47000    92.244432   -11515.839   -10622.758   -242.63867     102002.7      46.7237      46.7237      46.7237 
   48000    90.897665   -11506.821   -10626.779   -15.929785     102002.7      46.7237      46.7237      46.7237 
   49000     90.11522   -11513.773   -10641.307   -40.019104     102002.7      46.7237      46.7237      46.7237 
   50000     89.42001   -11531.521   -10665.786   -150.35466     102002.7      46.7237      46.7237      46.7237 
   51000    93.200577   -11522.127    -10619.79    141.52832     102002.7      46.7237      46.7237      46.7237 
   52000     91.69846   -11501.646   -10613.852    76.060036     102002.7      46.7237      46.7237      46.7237 
   53000    90.720011   -11530.565   -10652.244    8.6638385     102002.7      46.7237      46.7237      46.7237 
   54000    90.426374    -11537.45   -10661.972   -49.803006     102002.7      46.7237      46.7237      46.7237 
   55000    90.440321   -11530.974    -10655.36   -153.75895     102002.7      46.7237      46.7237      46.7237 
   56000    88.600925   -11540.536   -10682.731   -59.151363     102002.7      46.7237      46.7237      46.7237 
   57000    91.956004   -11541.428    -10651.14    69.698885     102002.7      46.7237      46.7237      46.7237 
   58000    90.550093   -11523.985   -10647.308   -253.96064     102002.7      46.7237      46.7237      46.7237 
   59000     91.97398   -11501.741   -10611.279    182.49768     102002.7      46.7237      46.7237      46.7237 
   60000    89.551415   -11525.462   -10658.455     90.77011     102002.7      46.7237      46.7237      46.7237 
   61000    91.431911   -11542.059   -10656.845    49.732293     102002.7      46.7237      46.7237      46.7237 
   62000    90.285129   -11496.569   -10622.458    162.58064     102002.7      46.7237      46.7237      46.7237 
   63000    91.192142   -11507.163   -10624.271    242.66569     102002.7      46.7237      46.7237      46.7237 
   64000    88.042043   -11539.155   -10686.761    27.255007     102002.7      46.7237      46.7237      46.7237 
   65000       93.721    -11535.14   -10627.764   -56.139589     102002.7      46.7237      46.7237      46.7237 
   66000     92.10318    -11527.14   -10635.428   -323.16001     102002.7      46.7237      46.7237      46.7237 
   67000    89.963983    -11515.12   -10644.118   -131.93469     102002.7      46.7237      46.7237      46.7237 
   68000    88.454544    -11516.53   -10660.142     85.81622     102002.7      46.7237      46.7237      46.7237 
   69000    90.269856   -11518.215   -10644.252   -105.13412     102002.7      46.7237      46.7237      46.7237 
   70000    89.909233   -11522.401   -10651.929    20.749563     102002.7      46.7237      46.7237      46.7237 
   71000     91.50561   -11525.255   -10639.328   -30.182243     102002.7      46.7237      46.7237      46.7237 
   72000    89.757267   -11542.636   -10673.636     21.82112     102002.7      46.7237      46.7237      46.7237 
   73000    89.370378   -11513.474   -10648.219    299.00441     102002.7      46.7237      46.7237      46.7237 
   74000    90.832503   -11520.413   -10641.002   -9.7399938     102002.7      46.7237      46.7237      46.7237 
   75000    91.089374   -11510.428    -10628.53    -91.13252     102002.7      46.7237      46.7237      46.7237 
   76000    90.419062   -11533.739   -10658.331   -106.84437     102002.7      46.7237      46.7237      46.7237 
   77000    92.795956   -11545.483   -10647.063    103.55674     102002.7      46.7237      46.7237      46.7237 
   78000    91.909408   -11520.364   -10630.527   -92.213392     102002.7      46.7237      46.7237      46.7237 
   79000    89.307545   -11530.272   -10665.626   -196.28934     102002.7      46.7237      46.7237      46.7237 
   80000    94.007845   -11522.187   -10612.034   -33.025445     102002.7      46.7237      46.7237      46.7237 
   81000    91.342128   -11512.498   -10628.154   -246.34255     102002.7      46.7237      46.7237      46.7237 
   82000    89.898322   -11516.238   -10645.872   -203.56499     102002.7      46.7237      46.7237      46.7237 
   83000    91.215352   -11527.518   -10644.401   -227.31701     102002.7      46.7237      46.7237      46.7237 
   84000    90.626812   -11514.926   -10637.507    -76.53596     102002.7      46.7237      46.7237      46.7237 
   85000    91.028982    -11513.63   -10632.317   -65.854805     102002.7      46.7237      46.7237      46.7237 
   86000    90.309427    -11538.51   -10664.164   -68.428525     102002.7      46.7237      46.7237      46.7237 
   87000    92.281097   -11540.634   -10647.199    41.546182     102002.7      46.7237      46.7237      46.7237 
   88000    91.456844   -11521.607   -10636.152   0.94904709     102002.7      46.7237      46.7237      46.7237 
   89000    90.776341    -11530.54   -10651.673    17.097679     102002.7      46.7237      46.7237      46.7237 
   90000    89.889618   -11542.329   -10672.048   -177.08466     102002.7      46.7237      46.7237      46.7237 
   91000    91.066864   -11528.414   -10646.735    39.244765     102002.7      46.7237      46.7237      46.7237 
   92000    90.328964   -11514.784   -10640.248    -50.61852     102002.7      46.7237      46.7237      46.7237 
   93000     91.16006   -11525.103   -10642.522    32.329515     102002.7      46.7237      46.7237      46.7237 
   94000    91.628002   -11514.627   -10627.515  0.097977542     102002.7      46.7237      46.7237      46.7237 
   95000    91.149192   -11537.826    -10655.35   -22.969601     102002.7      46.7237      46.7237      46.7237 
   96000    90.963856   -11514.934   -10634.251   -40.019675     102002.7      46.7237      46.7237      46.7237 
   97000    90.698867   -11515.347    -10637.23    25.955187     102002.7      46.7237      46.7237      46.7237 
   98000    90.431187   -11539.112   -10663.587    108.95202     102002.7      46.7237      46.7237      46.7237 
   99000    91.236058   -11521.449   -10638.131   -174.22584     102002.7      46.7237      46.7237      46.7237 
  100000    89.883921   -11564.559   -10694.332    -130.7129     102002.7      46.7237      46.7237      46.7237 
  101000    91.685841   -11530.917   -10643.245    3.8301903     102002.7      46.7237      46.7237      46.7237 
  102000    91.441337    -11525.89   -10640.585   -107.70604     102002.7      46.7237      46.7237      46.7237 
  103000    91.804734   -11530.037   -10641.214    -119.1206     102002.7      46.7237      46.7237      46.7237 
  104000    92.486605   -11531.358   -10635.933   -118.43605     102002.7      46.7237      46.7237      46.7237 
  105000     89.63257   -11550.044   -10682.251   -62.131606     102002.7      46.7237      46.7237      46.7237 
  106000    89.777974   -11529.501     -10660.3    300.62366     102002.7      46.7237      46.7237      46.7237 
  107000     90.86001   -11544.856    -10665.18    -105.9863     102002.7      46.7237      46.7237      46.7237 
  108000    89.076611    -11541.26    -10678.85   -20.914235     102002.7      46.7237      46.7237      46.7237 
  109000    89.058188     -11535.3   -10673.068   -98.427589     102002.7      46.7237      46.7237      46.7237 
  110000    89.896043    -11556.67   -10686.326   -184.62479     102002.7      46.7237      46.7237      46.7237 
  111000    91.085425   -11531.506   -10649.647    158.29928     102002.7      46.7237      46.7237      46.7237 
  112000    91.987915   -11521.032   -10630.435    47.879778     102002.7      46.7237      46.7237      46.7237 
  113000    90.621508   -11534.724   -10657.356   -84.288102     102002.7      46.7237      46.7237      46.7237 
  114000    92.666632   -11510.384   -10613.216    139.78125     102002.7      46.7237      46.7237      46.7237 
  115000     89.63964   -11513.706   -10645.844   -79.876026     102002.7      46.7237      46.7237      46.7237 
  116000      90.1053    -11527.46    -10655.09    96.533967     102002.7      46.7237      46.7237      46.7237 
  117000    91.600228    -11525.51   -10638.667   -138.71485     102002.7      46.7237      46.7237      46.7237 
  118000    91.417852   -11516.113   -10631.036   -96.009349     102002.7      46.7237      46.7237      46.7237 
  119000    89.338514   -11495.298   -10630.352    11.260884     102002.7      46.7237      46.7237      46.7237 
  120000     92.51557   -11518.571   -10622.865    53.612731     102002.7      46.7237      46.7237      46.7237 
  121000    93.503603   -11508.004   -10602.733    7.0555305     102002.7      46.7237      46.7237      46.7237 
  122000    89.875347   -11515.501   -10645.357   -155.88098     102002.7      46.7237      46.7237      46.7237 
  123000    90.810425   -11517.289   -10638.093   -176.43648     102002.7      46.7237      46.7237      46.7237 
  124000     92.09317   -11515.958   -10624.342    -93.52482     102002.7      46.7237      46.7237      46.7237 
  125000    93.035526   -11520.937   -10620.198    91.992262     102002.7      46.7237      46.7237      46.7237 
  126000    92.736423   -11533.477   -10635.634   -65.535479     102002.7      46.7237      46.7237      46.7237 
  127000    89.714214   -11520.925   -10652.341   -124.45825     102002.7      46.7237      46.7237      46.7237 
  128000    90.868409   -11516.646   -10636.888    274.02641     102002.7      46.7237      46.7237      46.7237 
  129000    90.946176   -11530.935   -10650.424    12.687657     102002.7      46.7237      46.7237      46.7237 
  130000    90.506051   -11528.563   -10652.313    163.35722     102002.7      46.7237      46.7237      46.7237 
  131000    93.024959   -11537.382   -10636.745   -260.93717     102002.7      46.7237      46.7237      46.7237 
  132000    89.260154   -11537.652   -10673.465    45.022021     102002.7      46.7237      46.7237      46.7237 
  133000    91.395335   -11526.397   -10641.538    328.61023     102002.7      46.7237      46.7237      46.7237 
  134000    89.776122   -11531.143    -10661.96   -136.99034     102002.7      46.7237      46.7237      46.7237 
  135000    88.261924    -11524.23   -10669.707    -126.9885     102002.7      46.7237      46.7237      46.7237 
  136000    91.232216   -11520.323   -10637.043   -148.40477     102002.7      46.7237      46.7237      46.7237 
  137000    91.946302    -11532.19   -10641.996   -159.91799     102002.7      46.7237      46.7237      46.7237 
  138000    89.631538   -11513.838   -10646.055   -141.88687     102002.7      46.7237      46.7237      46.7237 
  139000    90.248273   -11509.654     -10635.9    -139.6694     102002.7      46.7237      46.7237      46.7237 
  140000    89.684875   -11528.628   -10660.328   -53.168277     102002.7      46.7237      46.7237      46.7237 
  141000    89.675092   -11523.957   -10655.752   -362.77278     102002.7      46.7237      46.7237      46.7237 
  142000    92.260693   -11538.604   -10645.367   -59.400882     102002.7      46.7237      46.7237      46.7237 
  143000    91.663482   -11531.249   -10643.793    187.46602     102002.7      46.7237      46.7237      46.7237 
  144000      92.6595   -11536.903   -10639.805    355.54549     102002.7      46.7237      46.7237      46.7237 
  145000      91.6502   -11541.752   -10654.425     13.11382     102002.7      46.7237      46.7237      46.7237 
  146000    90.621361   -11532.447    -10655.08   -41.978759     102002.7      46.7237      46.7237      46.7237 
  147000    88.296056   -11513.231   -10658.378   -175.04954     102002.7      46.7237      46.7237      46.7237 
  148000    90.274517   -11544.506   -10670.498    27.296977     102002.7      46.7237      46.7237      46.7237 
  149000    91.591983    -11520.56   -10633.796     27.92141     102002.7      46.7237      46.7237      46.7237 
  150000    89.602315   -11543.452   -10675.952   -87.561265     102002.7      46.7237      46.7237      46.7237 
  151000     92.12754   -11535.439   -10643.491   -225.96736     102002.7      46.7237      46.7237      46.7237 
  152000    91.179607   -11509.418   -10626.647     272.5904     102002.7      46.7237      46.7237      46.7237 
  153000    91.048301   -11521.893   -10640.393    333.77442     102002.7      46.7237      46.7237      46.7237 
  154000    88.101282   -11513.659   -10660.692   -122.03688     102002.7      46.7237      46.7237      46.7237 
  155000    89.481513   -11530.971   -10664.641   -61.379646     102002.7      46.7237      46.7237      46.7237 
  156000     91.19217    -11539.88   -10656.988   -33.980734     102002.7      46.7237      46.7237      46.7237 
  157000    89.388084   -11520.345   -10654.919    95.493073     102002.7      46.7237      46.7237      46.7237 
  158000    91.990082   -11530.679   -10640.062   -101.72641     102002.7      46.7237      46.7237      46.7237 
  159000    89.677692   -11527.145   -10658.915   -160.26931     102002.7      46.7237      46.7237      46.7237 
  160000    89.149627   -11527.941   -10664.823   -81.764214     102002.7      46.7237      46.7237      46.7237 
  161000    91.647067   -11512.545   -10625.248    23.181193     102002.7      46.7237      46.7237      46.7237 
  162000    91.361225   -11536.985   -10652.456    39.965145     102002.7      46.7237      46.7237      46.7237 
  163000    91.108265   -11520.063   -10637.983    131.48252     102002.7      46.7237      46.7237      46.7237 
  164000    90.975162   -11534.582   -10653.791   -28.258089     102002.7      46.7237      46.7237      46.7237 
  165000    90.627694     -11524.6   -10647.173   -17.612158     102002.7      46.7237      46.7237      46.7237 
  166000    90.631773   -11547.371   -10669.904    130.83481     102002.7      46.7237      46.7237      46.7237 
  167000    91.459551   -11518.456   -10632.975    50.087751     102002.7      46.7237      46.7237      46.7237 
  168000    89.733459   -11539.927   -10671.157   -130.91387     102002.7      46.7237      46.7237      46.7237 
  169000    91.547186   -11530.599   -10644.269   -264.59563     102002.7      46.7237      46.7237      46.7237 
  170000    92.270669   -11545.047   -10651.713    -377.7922     102002.7      46.7237      46.7237      46.7237 
  171000    92.374889   -11531.192   -10636.849   -129.09577     102002.7      46.7237      46.7237      46.7237 
  172000    88.402246   -11530.389   -10674.507   -69.977268     102002.7      46.7237      46.7237      46.7237 
  173000    88.992103   -11523.974   -10662.381    187.64253     102002.7      46.7237      46.7237      46.7237 
  174000    91.153243   -11516.208   -10633.692    84.273092     102002.7      46.7237      46.7237      46.7237 
  175000    89.904356   -11536.899   -10666.474   -46.739111     102002.7      46.7237      46.7237      46.7237 
  176000     92.04235   -11518.133   -10627.009    123.23111     102002.7      46.7237      46.7237      46.7237 
  177000    92.208251   -11520.223   -10627.493   -45.295613     102002.7      46.7237      46.7237      46.7237 
  178000    91.380915   -11520.081   -10635.361   -54.664628     102002.7      46.7237      46.7237      46.7237 
  179000    89.799547   -11523.075   -10653.665   -161.62005     102002.7      46.7237      46.7237      46.7237 
  180000    90.848319   -11543.565   -10664.001   -114.98697     102002.7      46.7237      46.7237      46.7237 
  181000     90.20574    -11544.85   -10671.508   -86.495692     102002.7      46.7237      46.7237      46.7237 
  182000    92.811486    -11513.55    -10614.98   -31.072915     102002.7      46.7237      46.7237      46.7237 
  183000    92.070009   -11540.362    -10648.97   -141.30158     102002.7      46.7237      46.7237      46.7237 
  184000    89.843574   -11513.636     -10643.8    66.665789     102002.7      46.7237      46.7237      46.7237 
  185000    91.826223   -11532.389   -10643.358    261.52738     102002.7      46.7237      46.7237      46.7237 
  186000    91.791931   -11503.233   -10614.534    6.7783163     102002.7      46.7237      46.7237      46.7237 
  187000    91.298289   -11538.459   -10654.539    5.3960473     102002.7      46.7237      46.7237      46.7237 
  188000    90.914213   -11515.248   -10635.046    10.271328     102002.7      46.7237      46.7237      46.7237 
  189000    92.588873    -11551.68   -10655.265   -94.338157     102002.7      46.7237      46.7237      46.7237 
  190000    90.157885   -11534.095   -10661.216   -146.58258     102002.7      46.7237      46.7237      46.7237 
  191000    89.215946   -11546.579    -10682.82   -270.45819     102002.7      46.7237      46.7237      46.7237 
  192000    93.951195   -11543.885    -10634.28   -51.886911     102002.7      46.7237      46.7237      46.7237 
  193000    89.805977   -11549.446   -10679.974   -175.23159     102002.7      46.7237      46.7237      46.7237 
  194000    92.188718   -11538.868   -10646.327   -25.714705     102002.7      46.7237      46.7237      46.7237 
  195000    93.740494    -11535.31   -10627.746    263.86049     102002.7      46.7237      46.7237      46.7237 
  196000    91.307262     -11525.7   -10641.693   -290.07927     102002.7      46.7237      46.7237      46.7237 
  197000     90.26102   -11512.633   -10638.756   -10.094806     102002.7      46.7237      46.7237      46.7237 
  198000    87.923349   -11523.556   -10672.311    240.28103     102002.7      46.7237      46.7237      46.7237 
  199000    92.087239   -11527.316   -10635.758    52.021457     102002.7      46.7237      46.7237      46.7237 
  200000    88.253372   -11532.348   -10677.908   -95.961801     102002.7      46.7237      46.7237      46.7237 
  201000    92.875191   -11522.618   -10623.431   -110.31668     102002.7      46.7237      46.7237      46.7237 
  202000    91.318316   -11535.999   -10651.885   -166.68771     102002.7      46.7237      46.7237      46.7237 
  203000    90.481802   -11534.279   -10658.264   -30.429214     102002.7      46.7237      46.7237      46.7237 
  204000    90.020376   -11526.341   -10654.793    3.4812676     102002.7      46.7237      46.7237      46.7237 
  205000    88.104068   -11532.238   -10679.244   -120.40173     102002.7      46.7237      46.7237      46.7237 
  206000    90.763168   -11543.278   -10664.539    32.155149     102002.7      46.7237      46.7237      46.7237 
  207000    90.341349   -11525.042   -10650.387   -83.535292     102002.7      46.7237      46.7237      46.7237 
  208000    91.124106   -11554.929   -10672.695    182.53553     102002.7      46.7237      46.7237      46.7237 
  209000    92.439444   -11522.613   -10627.645   -30.207395     102002.7      46.7237      46.7237      46.7237 
  210000    90.820152   -11528.629   -10649.338     35.34403     102002.7      46.7237      46.7237      46.7237 
  211000    89.781373   -11540.969   -10671.735    29.289398     102002.7      46.7237      46.7237      46.7237 
  212000    90.048433   -11551.403   -10679.584    91.584236     102002.7      46.7237      46.7237      46.7237 
  213000    91.356049   -11523.849    -10639.37   -39.139645     102002.7      46.7237      46.7237      46.7237 
  214000    89.960659   -11523.136   -10652.166   -89.341428     102002.7      46.7237      46.7237      46.7237 
  215000      92.9611   -11528.934   -10628.915   -242.86146     102002.7      46.7237      46.7237      46.7237 
  216000    90.300797   -11531.957   -10657.694    209.22724     102002.7      46.7237      46.7237      46.7237 
  217000    92.174056    -11526.18   -10633.781    81.989477     102002.7      46.7237      46.7237      46.7237 
  218000    91.151992   -11540.878   -10658.375   -110.33441     102002.7      46.7237      46.7237      46.7237 
  219000    90.084196   -11508.506    -10636.34   -184.52251     102002.7      46.7237      46.7237      46.7237 
  220000    91.277415   -11524.073   -10640.355    102.33212     102002.7      46.7237      46.7237      46.7237 
  221000    91.422285   -11538.959   -10653.838    208.04595     102002.7      46.7237      46.7237      46.7237 
  222000    92.223076   -11526.695   -10633.821    113.69285     102002.7      46.7237      46.7237      46.7237 
  223000    89.914689   -11544.254   -10673.729    32.770416     102002.7      46.7237      46.7237      46.7237 
  224000    90.115039   -11556.572   -10684.107   -67.772482     102002.7      46.7237      46.7237      46.7237 
  225000     91.38448   -11548.858   -10664.103    31.965412     102002.7      46.7237      46.7237      46.7237 
  226000    90.157364    -11535.83   -10662.956   -183.66141     102002.7      46.7237      46.7237      46.7237 
  227000    88.895247   -11548.792   -10688.137   -164.16648     102002.7      46.7237      46.7237      46.7237 
  228000    93.084154   -11550.458   -10649.248   -220.31297     102002.7      46.7237      46.7237      46.7237 
  229000    93.022345    -11539.13   -10638.518   -188.93127     102002.7      46.7237      46.7237      46.7237 
  230000    90.180676   -11554.094   -10680.995   -112.12283     102002.7      46.7237      46.7237      46.7237 
  231000    89.037817   -11530.183   -10668.148   -120.00186     102002.7      46.7237      46.7237      46.7237 
  232000     92.35301    -11543.48   -10649.349   -178.72365     102002.7      46.7237      46.7237      46.7237 
  233000    88.806666   -11547.284   -10687.487    150.65236     102002.7      46.7237      46.7237      46.7237 
  234000    90.579282    -11511.47   -10634.511   -142.24347     102002.7      46.7237      46.7237      46.7237 
  235000    89.431594    -11537.72   -10671.873   -137.01673     102002.7      46.7237      46.7237      46.7237 
  236000    91.033027   -11559.997   -10678.645    139.34848     102002.7      46.7237      46.7237      46.7237 
  237000     91.21015   -11523.398   -10640.332    -109.9858     102002.7      46.7237      46.7237      46.7237 
  238000    91.913797   -11551.718   -10661.839    164.79687     102002.7      46.7237      46.7237      46.7237 
  239000    91.190083   -11538.195   -10655.323   -40.573625     102002.7      46.7237      46.7237      46.7237 
  240000      86.4643   -11568.173   -10731.054    -257.2181     102002.7      46.7237      46.7237      46.7237 
  241000    92.028151   -11533.592   -10642.606   -92.369769     102002.7      46.7237      46.7237      46.7237 
  242000    90.272659   -11550.245   -10676.255   -389.30689     102002.7      46.7237      46.7237      46.7237 
  243000    91.424916   -11532.391   -10647.245   -41.714589     102002.7      46.7237      46.7237      46.7237 
  244000    89.999726   -11542.961   -10671.613   -96.525904     102002.7      46.7237      46.7237      46.7237 
  245000    89.249016   -11555.928   -10691.849   -23.157542     102002.7      46.7237      46.7237      46.7237 
  246000    91.802832   -11545.726   -10656.921    43.016033     102002.7      46.7237      46.7237      46.7237 
  247000    91.097537   -11532.371   -10650.394    110.35148     102002.7      46.7237      46.7237      46.7237 
  248000    89.332755   -11548.041   -10683.151     83.92919     102002.7      46.7237      46.7237      46.7237 
  249000    91.807988    -11522.57   -10633.715   -65.592703     102002.7      46.7237      46.7237      46.7237 
  250000       91.266   -11545.333   -10661.726   -3.7019375     102002.7      46.7237      46.7237      46.7237 
  251000     90.08226    -11540.89   -10668.743   -59.536628     102002.7      46.7237      46.7237      46.7237 
  252000    91.860639   -11542.381   -10653.017   -330.83257     102002.7      46.7237      46.7237      46.7237 
  253000    90.207662   -11523.921   -10650.561    112.92746     102002.7      46.7237      46.7237      46.7237 
  254000    92.821377   -11504.355   -10605.689   -92.912897     102002.7      46.7237      46.7237      46.7237 
  255000    90.398378   -11543.026   -10667.819   -203.75452     102002.7      46.7237      46.7237      46.7237 
  256000     91.08468   -11530.731   -10648.879   -166.70138     102002.7      46.7237      46.7237      46.7237 
  257000    90.584016   -11542.053   -10665.048     119.5145     102002.7      46.7237      46.7237      46.7237 
  258000    92.271647   -11552.129   -10658.785   -21.151313     102002.7      46.7237      46.7237      46.7237 
  259000    90.786718   -11534.987    -10656.02    26.419245     102002.7      46.7237      46.7237      46.7237 
  260000    92.205352   -11518.547   -10625.845   -312.93046     102002.7      46.7237      46.7237      46.7237 
  261000    91.174197   -11533.888   -10651.169   -153.47715     102002.7      46.7237      46.7237      46.7237 
  262000    91.615154   -11526.285   -10639.297   -79.507517     102002.7      46.7237      46.7237      46.7237 
  263000    91.821939   -11529.977   -10640.987    147.14376     102002.7      46.7237      46.7237      46.7237 
  264000    91.534164   -11567.461   -10681.257   -238.24618     102002.7      46.7237      46.7237      46.7237 
  265000      91.3015   -11534.121    -10650.17   -44.035236     102002.7      46.7237      46.7237      46.7237 
  266000    92.199708   -11556.678   -10664.031   -99.891907     102002.7      46.7237      46.7237      46.7237 
  267000    88.193606   -11542.827   -10688.966    15.035322     102002.7      46.7237      46.7237      46.7237 
  268000    90.600273   -11529.251   -10652.089   -121.36683     102002.7      46.7237      46.7237      46.7237 
  269000    88.697862   -11539.881   -10681.137    -64.90576     102002.7      46.7237      46.7237      46.7237 
  270000    90.222213   -11535.558   -10662.056    -93.15411     102002.7      46.7237      46.7237      46.7237 
  271000    91.155482   -11545.939   -10663.402     -76.1827     102002.7      46.7237      46.7237      46.7237 
  272000    90.768081   -11540.557    -10661.77   -194.45978     102002.7      46.7237      46.7237      46.7237 
  273000    91.316706   -11528.675   -10644.577   -273.71018     102002.7      46.7237      46.7237      46.7237 
  274000    89.032303   -11522.307   -10660.325   -20.005285     102002.7      46.7237      46.7237      46.7237 
  275000    92.646606   -11521.162   -10624.188   -6.4989068     102002.7      46.7237      46.7237      46.7237 
  276000    91.832951   -11508.607    -10619.51   -161.81637     102002.7      46.7237      46.7237      46.7237 
  277000    89.926158   -11525.115    -10654.48   -115.72745     102002.7      46.7237      46.7237      46.7237 
  278000    90.114572   -11547.514   -10675.055    113.32132     102002.7      46.7237      46.7237      46.7237 
  279000    90.979024    -11550.52   -10669.691    -129.9963     102002.7      46.7237      46.7237      46.7237 
  280000    91.011801   -11537.148   -10656.002   -250.01011     102002.7      46.7237      46.7237      46.7237 
  281000     90.17726   -11527.681   -10654.614   -90.050097     102002.7      46.7237      46.7237      46.7237 
  282000    92.333322   -11507.812   -10613.871   -45.962503     102002.7      46.7237      46.7237      46.7237 
  283000    90.231678   -11544.107   -10670.513    156.84052     102002.7      46.7237      46.7237      46.7237 
  284000    92.156873   -11521.865   -10629.632   -5.8820834     102002.7      46.7237      46.7237      46.7237 
  285000    91.860822   -11531.089   -10641.723    -273.2388     102002.7      46.7237      46.7237      46.7237 
  286000    90.655264   -11536.641   -10658.946    150.79973     102002.7      46.7237      46.7237      46.7237 
  287000    89.227355   -11538.377   -10674.507   -51.252881     102002.7      46.7237      46.7237      46.7237 
  288000    91.480805    -11529.53   -10643.843   -210.91445     102002.7      46.7237      46.7237      46.7237 
  289000    89.565509   -11520.846   -10653.702    43.509601     102002.7      46.7237      46.7237      46.7237 
  290000    89.573005   -11516.401   -10649.185    30.795431     102002.7      46.7237      46.7237      46.7237 
  291000    91.084935   -11540.034   -10658.179     81.78794     102002.7      46.7237      46.7237      46.7237 
  292000    91.343878   -11508.428   -10624.067    28.692608     102002.7      46.7237      46.7237      46.7237 
  293000    89.020187    -11530.66   -10668.796   -200.49105     102002.7      46.7237      46.7237      46.7237 
  294000    91.592302   -11543.035   -10656.268   -149.65877     102002.7      46.7237      46.7237      46.7237 
  295000    90.703351    -11529.95    -10651.79   -153.09672     102002.7      46.7237      46.7237      46.7237 
  296000    91.618042   -11534.624   -10647.608    13.500177     102002.7      46.7237      46.7237      46.7237 
  297000     93.24178   -11546.636   -10643.899     34.58286     102002.7      46.7237      46.7237      46.7237 
  298000    90.318527   -11558.494    -10684.06    203.10448     102002.7      46.7237      46.7237      46.7237 
  299000    89.296117   -11518.032   -10653.497   -183.44999     102002.7      46.7237      46.7237      46.7237 
  300000    91.713804   -11503.986   -10616.043    192.71487     102002.7      46.7237      46.7237      46.7237 
  301000    91.071685   -11540.122   -10658.396    61.431633     102002.7      46.7237      46.7237      46.7237 
  302000    88.830556   -11532.275   -10672.247   -253.07818     102002.7      46.7237      46.7237      46.7237 
  303000    91.447339    -11538.95   -10653.587   -66.744217     102002.7      46.7237      46.7237      46.7237 
  304000    90.429566   -11541.461   -10665.952    129.26899     102002.7      46.7237      46.7237      46.7237 
  305000    90.872771   -11565.519   -10685.719   -82.262401     102002.7      46.7237      46.7237      46.7237 
  306000     91.64346   -11529.968   -10642.706     26.88094     102002.7      46.7237      46.7237      46.7237 
  307000    91.434886   -11560.331   -10675.089   -17.133482     102002.7      46.7237      46.7237      46.7237 
  308000    91.106388   -11518.734   -10636.672   -13.295313     102002.7      46.7237      46.7237      46.7237 
  309000    89.651531   -11543.297    -10675.32    2.8830077     102002.7      46.7237      46.7237      46.7237 
  310000    94.221898   -11543.467   -10631.241   -59.650684     102002.7      46.7237      46.7237      46.7237 
  311000    91.642139   -11537.987   -10650.738   -1.7415571     102002.7      46.7237      46.7237      46.7237 
  312000    92.575271   -11533.079   -10636.796   -80.036081     102002.7      46.7237      46.7237      46.7237 
  313000    90.385379   -11545.474   -10670.393   -348.52524     102002.7      46.7237      46.7237      46.7237 
  314000     91.56998   -11536.606   -10650.055    29.494277     102002.7      46.7237      46.7237      46.7237 
  315000    89.583451   -11530.923   -10663.605    415.10455     102002.7      46.7237      46.7237      46.7237 
  316000    92.180481    -11533.34   -10640.879    44.916086     102002.7      46.7237      46.7237      46.7237 
  317000     90.24896   -11542.302   -10668.541   -274.33346     102002.7      46.7237      46.7237      46.7237 
  318000    89.023127   -11524.809   -10662.917     10.73846     102002.7      46.7237      46.7237      46.7237 
  319000     91.46143   -11548.136   -10662.636   -194.42351     102002.7      46.7237      46.7237      46.7237 
  320000    93.463872   -11548.927   -10644.041     175.5309     102002.7      46.7237      46.7237      46.7237 
  321000    92.227479   -11537.647    -10644.73   -123.73932     102002.7      46.7237      46.7237      46.7237 
  322000    91.401418   -11543.693   -10658.775     -440.873     102002.7      46.7237      46.7237      46.7237 
  323000     91.85502   -11526.894   -10637.584   -45.954987     102002.7      46.7237      46.7237      46.7237 
  324000    89.265418   -11544.194   -10679.956   -138.87833     102002.7      46.7237      46.7237      46.7237 
  325000    90.567021   -11522.665   -10645.825      -215.63     102002.7      46.7237      46.7237      46.7237 
  326000    91.436807   -11538.693   -10653.432   -64.103175     102002.7      46.7237      46.7237      46.7237 
  327000    90.742252   -11527.838   -10649.302    137.50607     102002.7      46.7237      46.7237      46.7237 
  328000    92.330537   -11533.247   -10639.333   -49.879941     102002.7      46.7237      46.7237      46.7237 
  329000    89.727953   -11538.717   -10670.001   -77.645993     102002.7      46.7237      46.7237      46.7237 
  330000    89.604482   -11549.374   -10681.853    13.098286     102002.7      46.7237      46.7237      46.7237 
  331000    91.544599   -11525.363   -10639.058     80.42154     102002.7      46.7237      46.7237      46.7237 
  332000    88.145526   -11551.701   -10698.305   -10.837759     102002.7      46.7237      46.7237      46.7237 
  333000    91.351454   -11554.871   -10670.436   -119.62731     102002.7      46.7237      46.7237      46.7237 
  334000     90.13825   -11546.785   -10674.097    187.19744     102002.7      46.7237      46.7237      46.7237 
  335000    90.462047   -11509.768   -10633.944    34.266294     102002.7      46.7237      46.7237      46.7237 
  336000    90.595989   -11546.673   -10669.552   -364.18882     102002.7      46.7237      46.7237      46.7237 
  337000    89.944857   -11551.603   -10680.787   -100.52496     102002.7      46.7237      46.7237      46.7237 
  338000     91.95487    -11548.12   -10657.843   -92.178458     102002.7      46.7237      46.7237      46.7237 
  339000    92.322719    -11553.08   -10659.242   -167.08894     102002.7      46.7237      46.7237      46.7237 
  340000    89.959115   -11534.071   -10663.117   -54.900989     102002.7      46.7237      46.7237      46.7237 
  341000      91.3565   -11539.884     -10655.4   -3.1051346     102002.7      46.7237      46.7237      46.7237 
  342000    90.237002    -11534.65   -10661.005   -107.37201     102002.7      46.7237      46.7237      46.7237 
  343000    87.565784   -11560.633    -10712.85   -303.06698     102002.7      46.7237      46.7237      46.7237 
  344000    91.376143   -11538.245   -10653.571   -277.44155     102002.7      46.7237      46.7237      46.7237 
  345000    90.709957   -11541.341   -10663.117     -263.905     102002.7      46.7237      46.7237      46.7237 
  346000    90.311415   -11554.385   -10680.019   -321.75808     102002.7      46.7237      46.7237      46.7237 
  347000    92.709845   -11550.591   -10653.004   -147.99447     102002.7      46.7237      46.7237      46.7237 
  348000    90.255116   -11548.986   -10675.165   -163.96897     102002.7      46.7237      46.7237      46.7237 
  349000    89.214386   -11518.173   -10654.428   -45.129884     102002.7      46.7237      46.7237      46.7237 
  350000     92.66138   -11537.188   -10640.071   -36.314641     102002.7      46.7237      46.7237      46.7237 
  351000    90.661043   -11542.004   -10664.254   -256.30334     102002.7      46.7237      46.7237      46.7237 
  352000    93.653828   -11531.221   -10624.496    69.486869     102002.7      46.7237      46.7237      46.7237 
  353000    92.350802   -11509.277   -10615.167    117.53826     102002.7      46.7237      46.7237      46.7237 
  354000    92.046669     -11526.9   -10635.735    -68.51923     102002.7      46.7237      46.7237      46.7237 
  355000    91.074977    -11545.15   -10663.392     -58.4757     102002.7      46.7237      46.7237      46.7237 
  356000    92.721423   -11542.436   -10644.738    48.412255     102002.7      46.7237      46.7237      46.7237 
  357000    90.423595   -11545.627   -10670.175    15.724759     102002.7      46.7237      46.7237      46.7237 
  358000    92.126037    -11551.42   -10659.487    36.369739     102002.7      46.7237      46.7237      46.7237 
  359000    89.876805   -11540.143   -10669.985   -103.02189     102002.7      46.7237      46.7237      46.7237 
  360000     91.73711   -11534.301   -10646.132    56.163936     102002.7      46.7237      46.7237      46.7237 
  361000    90.513796   -11530.826   -10654.501    54.100368     102002.7      46.7237      46.7237      46.7237 
  362000    89.787505   -11529.867   -10660.574    174.33426     102002.7      46.7237      46.7237      46.7237 
  363000    93.830247   -11539.717   -10631.284   -82.117486     102002.7      46.7237      46.7237      46.7237 
  364000    90.505895   -11540.489   -10664.241   -274.86816     102002.7      46.7237      46.7237      46.7237 
  365000    91.670296   -11544.541    -10657.02    46.360889     102002.7      46.7237      46.7237      46.7237 
  366000    92.752407    -11566.06   -10668.062   -79.947779     102002.7      46.7237      46.7237      46.7237 
  367000    90.952822   -11536.194   -10655.619    173.28032     102002.7      46.7237      46.7237      46.7237 
  368000    90.597886   -11550.304   -10673.165   -123.48379     102002.7      46.7237      46.7237      46.7237 
  369000    90.642597   -11539.712   -10662.141   -120.17727     102002.7      46.7237      46.7237      46.7237 
  370000     92.53585   -11558.084   -10662.182   -3.6767053     102002.7      46.7237      46.7237      46.7237 
  371000    90.684936   -11545.822    -10667.84   -98.881057     102002.7      46.7237      46.7237      46.7237 
  372000    89.298332   -11555.612   -10691.055   -182.80447     102002.7      46.7237      46.7237      46.7237 
  373000    90.916114   -11528.892   -10648.672   -35.292674     102002.7      46.7237      46.7237      46.7237 
  374000    90.216257   -11548.161   -10674.717   -28.827656     102002.7      46.7237      46.7237      46.7237 
  375000    89.400351     -11527.9   -10662.356   -146.90141     102002.7      46.7237      46.7237      46.7237 
  376000    90.208969   -11557.946   -10684.573   -38.254857     102002.7      46.7237      46.7237      46.7237 
  377000    91.508896   -11540.446   -10654.487   -6.0913663     102002.7      46.7237      46.7237      46.7237 
  378000    90.993889   -11553.412   -10672.439   -106.53312     102002.7      46.7237      46.7237      46.7237 
  379000    92.882174     -11530.9   -10631.645   -92.357936     102002.7      46.7237      46.7237      46.7237 
  380000    89.011091    -11543.22   -10681.444    196.10614     102002.7      46.7237      46.7237      46.7237 
  381000    90.687172   -11556.752   -10678.748   -234.47087     102002.7      46.7237      46.7237      46.7237 
  382000    90.269569   -11564.517   -10690.557    52.024167     102002.7      46.7237      46.7237      46.7237 
  383000    90.267859    -11538.42   -10664.477   -288.41529     102002.7      46.7237      46.7237      46.7237 
  384000    92.309779    -11538.74   -10645.027   -40.323437     102002.7      46.7237      46.7237      46.7237 
  385000     89.89612   -11526.252   -10655.907    78.643421     102002.7      46.7237      46.7237      46.7237 
  386000      92.2256   -11544.154   -10651.256    -220.2213     102002.7      46.7237      46.7237      46.7237 
  387000    89.199425   -11533.301   -10669.702   -22.772788     102002.7      46.7237      46.7237      46.7237 
  388000    90.625921   -11532.846   -10655.435   -241.12504     102002.7      46.7237      46.7237      46.7237 
  389000    89.831779   -11531.949   -10662.227   -210.65366     102002.7      46.7237      46.7237      46.7237 
  390000    88.838889    -11559.25   -10699.141   -162.32098     102002.7      46.7237      46.7237      46.7237 
  391000    90.654191   -11537.539   -10659.855   -169.01533     102002.7      46.7237      46.7237      46.7237 
  392000    92.907149    -11537.88   -10638.383    -81.90992     102002.7      46.7237      46.7237      46.7237 
  393000     90.60708   -11552.154   -10674.926    184.07562     102002.7      46.7237      46.7237      46.7237 
  394000    92.596763   -11543.949   -10647.458   -204.01251     102002.7      46.7237      46.7237      46.7237 
  395000    93.310833   -11545.934   -10642.529   -279.82304     102002.7      46.7237      46.7237      46.7237 
  396000    90.741873   -11562.558   -10684.025   -20.719833     102002.7      46.7237      46.7237      46.7237 
  397000    91.867615   -11519.354   -10629.922    36.370347     102002.7      46.7237      46.7237      46.7237 
  398000    92.838837   -11535.375    -10636.54   -154.85935     102002.7      46.7237      46.7237      46.7237 
  399000    92.314916   -11544.139   -10650.376      -256.35     102002.7      46.7237      46.7237      46.7237 
  400000    87.753868    -11546.11   -10696.506   -173.18107     102002.7      46.7237      46.7237      46.7237 
  401000    91.522409   -11542.686   -10656.596   -337.23785     102002.7      46.7237      46.7237      46.7237 
  402000    91.549696   -11541.891   -10655.537   -195.90847     102002.7      46.7237      46.7237      46.7237 
  403000    89.424453    -11527.65   -10661.872   -29.621729     102002.7      46.7237      46.7237      46.7237 
  404000    90.694937   -11512.008   -10633.929   -194.08871     102002.7      46.7237      46.7237      46.7237 
  405000    90.327216   -11549.777   -10675.258   -274.91042     102002.7      46.7237      46.7237      46.7237 
  406000    89.970162   -11512.964   -10641.902    102.91819     102002.7      46.7237      46.7237      46.7237 
  407000    91.478052   -11553.343   -10667.683   -80.267651     102002.7      46.7237      46.7237      46.7237 
  408000    90.883633   -11538.117   -10658.211   -48.594776     102002.7      46.7237      46.7237      46.7237 
  409000     93.33455   -11547.941   -10644.307   -49.349575     102002.7      46.7237      46.7237      46.7237 
  410000    92.462913   -11544.207   -10649.011   -237.37188     102002.7      46.7237      46.7237      46.7237 
  411000    92.733218    -11517.61   -10619.798    243.39416     102002.7      46.7237      46.7237      46.7237 
  412000    92.220157   -11529.637   -10636.791    13.199119     102002.7      46.7237      46.7237      46.7237 
  413000    89.850467   -11546.582    -10676.68     -119.481     102002.7      46.7237      46.7237      46.7237 
  414000    93.279697   -11547.997   -10644.894    8.0617302     102002.7      46.7237      46.7237      46.7237 
  415000     89.42185   -11529.486   -10663.733   -244.93327     102002.7      46.7237      46.7237      46.7237 
  416000    92.192943   -11540.527   -10647.946    303.49641     102002.7      46.7237      46.7237      46.7237 
  417000      90.8319   -11546.117   -10666.713   -483.43859     102002.7      46.7237      46.7237      46.7237 
  418000    90.866418   -11543.611   -10663.872   -279.89446     102002.7      46.7237      46.7237      46.7237 
  419000    90.650809   -11517.429   -10639.778    330.08292     102002.7      46.7237      46.7237      46.7237 
  420000    90.758058   -11530.198   -10651.509    193.58203     102002.7      46.7237      46.7237      46.7237 
  421000    92.666257   -11521.815   -10624.651   -223.24386     102002.7      46.7237      46.7237      46.7237 
  422000    91.129017   -11525.892   -10643.611    167.79148     102002.7      46.7237      46.7237      46.7237 
  423000    91.392413   -11525.943   -10641.112    28.123623     102002.7      46.7237      46.7237      46.7237 
  424000    89.888566   -11532.715   -10662.443    168.65479     102002.7      46.7237      46.7237      46.7237 
  425000    91.859017   -11518.816   -10629.467   -239.41143     102002.7      46.7237      46.7237      46.7237 
  426000    88.191565   -11556.407   -10702.565    67.066833     102002.7      46.7237      46.7237      46.7237 
  427000    92.868032   -11534.784   -10635.666     85.42619     102002.7      46.7237      46.7237      46.7237 
  428000    91.707046   -11541.321   -10653.443    58.069491     102002.7      46.7237      46.7237      46.7237 
  429000    91.639302   -11543.677   -10656.456    213.52285     102002.7      46.7237      46.7237      46.7237 
  430000    91.935072   -11533.419   -10643.334    32.279827     102002.7      46.7237      46.7237      46.7237 
  431000    92.390847   -11518.089   -10623.591    144.42293     102002.7      46.7237      46.7237      46.7237 
  432000    89.055188   -11541.385   -10679.182   -38.716769     102002.7      46.7237      46.7237      46.7237 
  433000    89.308576   -11537.563   -10672.907   -94.741884     102002.7      46.7237      46.7237      46.7237 
  434000    90.717901   -11537.166   -10658.866   -164.33389     102002.7      46.7237      46.7237      46.7237 
  435000    90.376947   -11578.833   -10703.833    -39.51414     102002.7      46.7237      46.7237      46.7237 
  436000    92.296505   -11531.411   -10637.826   -8.1078583     102002.7      46.7237      46.7237      46.7237 
  437000     93.78051   -11557.003   -10649.051    45.005864     102002.7      46.7237      46.7237      46.7237 
  438000    92.487116   -11547.069    -10651.64    4.9795177     102002.7      46.7237      46.7237      46.7237 
  439000    89.522131   -11534.165   -10667.441   -249.29689     102002.7      46.7237      46.7237      46.7237 
  440000    91.684382   -11534.972   -10647.314    34.797111     102002.7      46.7237      46.7237      46.7237 
  441000    91.053403   -11537.264   -10655.715    111.67737     102002.7      46.7237      46.7237      46.7237 
  442000    91.243341   -11519.361   -10635.973   -248.30512     102002.7      46.7237      46.7237      46.7237 
  443000    91.561695   -11529.859   -10643.389   -307.54854     102002.7      46.7237      46.7237      46.7237 
  444000    89.074101   -11534.744   -10672.357   -289.54659     102002.7      46.7237      46.7237      46.7237 
  445000    89.516945   -11511.846   -10645.172    -19.18088     102002.7      46.7237      46.7237      46.7237 
  446000    92.563532    -11536.51   -10640.341   -113.63211     102002.7      46.7237      46.7237      46.7237 
  447000    91.214407   -11542.413   -10659.305   -228.56834     102002.7      46.7237      46.7237      46.7237 
  448000    89.188526   -11537.068   -10673.574   -115.17147     102002.7      46.7237      46.7237      46.7237 
  449000    91.046358   -11527.499   -10646.018    245.83097     102002.7      46.7237      46.7237      46.7237 
  450000     91.49079   -11518.815   -10633.032    -66.55364     102002.7      46.7237      46.7237      46.7237 
  451000    91.181376   -11553.714   -10670.926   -350.22039     102002.7      46.7237      46.7237      46.7237 
  452000    93.085803   -11534.714   -10633.488    55.916825     102002.7      46.7237      46.7237      46.7237 
  453000    90.977971   -11534.164   -10653.345    121.78836     102002.7      46.7237      46.7237      46.7237 
  454000    90.318537   -11534.463   -10660.028    88.810812     102002.7      46.7237      46.7237      46.7237 
  455000    89.290736   -11536.444    -10671.96   -126.91939     102002.7      46.7237      46.7237      46.7237 
  456000    91.625183   -11543.652   -10656.567    145.39734     102002.7      46.7237      46.7237      46.7237 
  457000    90.667948   -11543.744   -10665.927    105.08217     102002.7      46.7237      46.7237      46.7237 
  458000    88.734096   -11553.278   -10694.184    310.59526     102002.7      46.7237      46.7237      46.7237 
  459000    90.687323   -11532.191   -10654.186     115.7741     102002.7      46.7237      46.7237      46.7237 
  460000    89.940154    -11530.29   -10659.519    103.12768     102002.7      46.7237      46.7237      46.7237 
  461000     92.73347   -11537.044   -10639.229   -194.93068     102002.7      46.7237      46.7237      46.7237 
  462000    88.410496   -11518.617   -10662.656    41.067484     102002.7      46.7237      46.7237      46.7237 
  463000      91.2605   -11542.505   -10658.951   -72.136125     102002.7      46.7237      46.7237      46.7237 
  464000     91.09057   -11558.421   -10676.512   -272.02079     102002.7      46.7237      46.7237      46.7237 
  465000    90.768995   -11549.615    -10670.82    206.73684     102002.7      46.7237      46.7237      46.7237 
  466000    90.633654   -11515.129   -10637.644   -265.97975     102002.7      46.7237      46.7237      46.7237 
  467000    92.499268   -11540.476   -10644.928   -264.52232     102002.7      46.7237      46.7237      46.7237 
  468000    90.534297   -11526.582   -10650.058   -165.89092     102002.7      46.7237      46.7237      46.7237 
  469000    90.869793   -11543.185   -10663.414   -151.51452     102002.7      46.7237      46.7237      46.7237 
  470000    93.386201   -11540.361   -10636.227   -33.873584     102002.7      46.7237      46.7237      46.7237 
  471000    90.769762   -11513.199   -10634.396    129.49995     102002.7      46.7237      46.7237      46.7237 
  472000    90.909794   -11533.073   -10652.915   -386.56114     102002.7      46.7237      46.7237      46.7237 
  473000    91.910316   -11518.069   -10628.224   -102.90121     102002.7      46.7237      46.7237      46.7237 
  474000    91.272793   -11531.482   -10647.809   -37.702656     102002.7      46.7237      46.7237      46.7237 
  475000    92.417739   -11531.664   -10636.906   -120.96628     102002.7      46.7237      46.7237      46.7237 
  476000    92.876924   -11534.675   -10635.471     216.0152     102002.7      46.7237      46.7237      46.7237 
  477000    93.231958   -11553.253   -10650.612   -17.701201     102002.7      46.7237      46.7237      46.7237 
  478000    90.991288   -11546.645   -10665.698   -153.29386     102002.7      46.7237      46.7237      46.7237 
  479000    92.395248   -11553.393   -10658.853   -75.930706     102002.7      46.7237      46.7237      46.7237 
  480000    91.362193   -11550.796   -10666.258   -276.26079     102002.7      46.7237      46.7237      46.7237 
  481000    90.424014   -11543.564   -10668.108   -227.41359     102002.7      46.7237      46.7237      46.7237 
  482000    89.899189   -11536.987   -10666.613    39.416391     102002.7      46.7237      46.7237      46.7237 
  483000     90.12668   -11534.337    -10661.76   -166.90004     102002.7      46.7237      46.7237      46.7237 
  484000    90.140269   -11537.901   -10665.193    124.57713     102002.7      46.7237      46.7237      46.7237 
  485000    91.991919   -11554.928   -10664.292   -35.368547     102002.7      46.7237      46.7237      46.7237 
  486000    91.565345   -11533.493   -10646.988   -146.89518     102002.7      46.7237      46.7237      46.7237 
  487000    91.658109   -11541.351   -10653.947   -106.13566     102002.7      46.7237      46.7237      46.7237 
  488000    89.598763   -11545.955   -10678.489   -41.387412     102002.7      46.7237      46.7237      46.7237 
  489000    91.746458   -11515.279    -10627.02   -118.96285     102002.7      46.7237      46.7237      46.7237 
  490000    92.903917   -11522.524   -10623.058    55.520958     102002.7      46.7237      46.7237      46.7237 
  491000    89.410935   -11540.682   -10675.035   -296.09773     102002.7      46.7237      46.7237      46.7237 
  492000    91.262114   -11511.172   -10627.602   -297.16646     102002.7      46.7237      46.7237      46.7237 
  493000     91.56328   -11541.186   -10654.701   -285.64572     102002.7      46.7237      46.7237      46.7237 
  494000    91.749098   -11517.148   -10628.864    76.102824     102002.7      46.7237      46.7237      46.7237 
  495000    89.625067   -11535.513   -10667.793     12.79671     102002.7      46.7237      46.7237      46.7237 
  496000    90.881251   -11542.061   -10662.179    76.710202     102002.7      46.7237      46.7237      46.7237 
  497000    91.758666   -11549.753   -10661.376   -308.44855     102002.7      46.7237      46.7237      46.7237 
  498000     93.07563   -11529.124   -10627.996   -20.645358     102002.7      46.7237      46.7237      46.7237 
  499000    88.413601   -11544.392   -10688.401   -87.129611     102002.7      46.7237      46.7237      46.7237 
  500000    92.321682   -11526.052   -10632.224   -54.148663     102002.7      46.7237      46.7237      46.7237 
  500500    88.251994   -11534.215   -10679.788   -177.73342     102002.7      46.7237      46.7237      46.7237 
Loop time of 1819.57 on 16 procs for 500000 steps with 3249 atoms

Performance: 23.742 ns/day, 1.011 hours/ns, 274.790 timesteps/s
99.9% CPU use with 16 MPI tasks x no OpenMP threads

MPI task timing breakdown:
Section |  min time  |  avg time  |  max time  |%varavg| %total
---------------------------------------------------------------
Pair    | 948.04     | 1183.2     | 1371.9     | 347.8 | 65.03
Bond    | 128.51     | 174.81     | 218.19     | 198.0 |  9.61
Neigh   | 14.713     | 14.756     | 14.82      |   0.9 |  0.81
Comm    | 236.46     | 429.71     | 662.95     | 613.6 | 23.62
Output  | 0.021519   | 0.022194   | 0.025996   |   0.7 |  0.00
Modify  | 8.5824     | 10.175     | 11.45      |  30.1 |  0.56
Other   |            | 6.856      |            |       |  0.38

Nlocal:    203.062 ave 235 max 163 min
Histogram: 1 0 0 2 3 3 2 3 1 1
Nghost:    4100.62 ave 4146 max 4066 min
Histogram: 1 1 2 4 3 1 2 0 1 1
Neighs:    11456.9 ave 15981 max 8061 min
Histogram: 2 1 4 2 1 0 2 2 1 1

Total # of neighbors = 183310
Ave neighs/atom = 56.4204
Ave special neighs/atom = 3.54571
Neighbor list builds = 4155
Dangerous builds = 0
Neighbor list info ...
  update every 1 steps, delay 10 steps, check yes
  max neighbors/atom: 2000, page size: 100000
  master list distance cutoff = 16
  ghost atom cutoff = 16
  binsize = 8, bins = 6 6 6
  3 neighbor lists, perpetual/occasional/extra = 3 0 0
  (1) pair buck6d/coul/gauss/dsf, perpetual, skip from (3)
      attributes: half, newton on
      pair build: skip
      stencil: none
      bin: none
  (2) pair lj/cut, perpetual, skip from (3)
      attributes: half, newton on
      pair build: skip
      stencil: none
      bin: none
  (3) neighbor class addition, perpetual
      attributes: half, newton on
      pair build: half/bin/newton
      stencil: half/bin/3d/newton
      bin: standard
Setting up Verlet run ...
  Unit style    : real
  Current step  : 500500
  Time step     : 1
WARNING: Inconsistent image flags (../domain.cpp:786)
Per MPI rank memory allocation (min/avg/max) = 22.79 | 23.16 | 23.44 Mbytes
Step Time TotEng KinEng PotEng E_mol E_pair Temp Pxx Pyy Pzz Pxy Pxz Pyz Cella Cellb Cellc CellAlpha CellBeta CellGamma Volume Press 
  500500       500000   -10679.788    854.42678   -11534.215    4149.5179   -15683.732    88.251994    -302.9531   -8.6572654   -221.58988     78.67198   -12.657545    22.298346      46.7237      46.7237      46.7237           90           90           90     102002.7   -177.73342 
  501000       500500   -10670.306    864.21085   -11534.516    4166.9892   -15701.506    89.262571   -53.634922    103.08749   -32.163996    135.51432   -20.047225   -21.855528      46.7237      46.7237      46.7237           90           90           90     102002.7     5.762857 
  502000       501500   -10646.244    887.61779   -11533.861    4152.0342   -15685.896    91.680226    -211.7743   -360.71077    -400.3899   -33.633139    61.519676    37.479591      46.7237      46.7237      46.7237           90           90           90     102002.7   -324.29166 
  503000       502500   -10639.915    895.36431   -11535.279    4158.3986   -15693.678    92.480348    206.10696   -85.374517   -223.39001   -112.87445    209.83176    110.04945      46.7237      46.7237      46.7237           90           90           90     102002.7   -34.219188 
  504000       503500    -10642.89    891.18476   -11534.074    4158.2972   -15692.372    92.048651    90.096588    330.37395    371.51763     112.0332     48.42275   -33.840034      46.7237      46.7237      46.7237           90           90           90     102002.7    263.99606 
  505000       504500   -10665.105    881.17555    -11546.28    4163.0391   -15709.319    91.014821   -223.71875   -374.85404     360.1836    -148.7444    73.254697   -95.839591      46.7237      46.7237      46.7237           90           90           90     102002.7   -79.463064 
  506000       505500   -10672.198    871.87344   -11544.071    4155.3336   -15699.405    90.054024     23.26906    6.1308848   -528.25509   -255.68405    265.63355    138.25167      46.7237      46.7237      46.7237           90           90           90     102002.7   -166.28505 
  507000       506500   -10656.007     886.5903   -11542.598    4155.7655   -15698.363    91.574098    242.69315    152.66594    7.3949524   0.94400012   -165.86632   -25.990027      46.7237      46.7237      46.7237           90           90           90     102002.7    134.25135 
  508000       507500   -10650.882    900.09941   -11550.982    4141.2717   -15692.253    92.969427    17.594177   -176.71107     108.3093    31.990992   -67.296257    289.33172      46.7237      46.7237      46.7237           90           90           90     102002.7   -16.935866 
  509000       508500   -10633.577    895.04957   -11528.627    4160.2436    -15688.87    92.447839   -343.84444   -320.04478    19.660078    60.657077    75.600227   -105.48786      46.7237      46.7237      46.7237           90           90           90     102002.7   -214.74305 
  510000       509500   -10661.786    881.85332   -11543.639    4159.4029   -15703.042    91.084826    158.36572   -504.80635   -478.82655    181.14736    276.44345    189.02338      46.7237      46.7237      46.7237           90           90           90     102002.7   -275.08906 
  511000       510500   -10655.942    876.72075   -11532.663    4154.5247   -15687.187    90.554693   -9.4450068   -504.82582   -314.32661    187.89233   -166.63438    19.663928      46.7237      46.7237      46.7237           90           90           90     102002.7   -276.19915 
  512000       511500   -10676.569    870.38796   -11546.957     4135.594   -15682.551    89.900593   -262.38576   -274.99853    156.20677   -21.260357     252.0307   -22.615872      46.7237      46.7237      46.7237           90           90           90     102002.7   -127.05918 
  513000       512500   -10611.255    899.09265   -11510.347    4160.5293   -15670.877    92.865441   -271.28834   -7.9018648    -442.7304   -135.76523    186.20445    146.30246      46.7237      46.7237      46.7237           90           90           90     102002.7    -240.6402 
  514000       513500   -10638.957    887.69253    -11526.65    4159.2848   -15685.934    91.687945    49.801751     324.1062   -94.075959   -37.180292    78.365124   -31.035856      46.7237      46.7237      46.7237           90           90           90     102002.7    93.277331 
  515000       514500   -10681.652    871.19572   -11552.848    4137.8826   -15690.731    89.984024   -281.67933   -197.31384   -322.46829    154.03556    70.138638   -121.81385      46.7237      46.7237      46.7237           90           90           90     102002.7   -267.15382 
  516000       515500    -10645.28    890.55813   -11535.838    4164.7719    -15700.61    91.983927     -350.508     68.89003    119.96188     31.16609    5.7691346    152.87695      46.7237      46.7237      46.7237           90           90           90     102002.7   -53.885366 
  517000       516500   -10663.854    892.79532    -11556.65    4130.1457   -15686.795    92.215002   -100.98377    -326.5207    274.01274   -230.67788    217.79644    36.926558      46.7237      46.7237      46.7237           90           90           90     102002.7   -51.163911 
  518000       517500   -10665.407    881.76068   -11547.167    4147.1606   -15694.328    91.075257    247.55678   -317.15415    162.71716   -118.24649    132.59358    64.278362      46.7237      46.7237      46.7237           90           90           90     102002.7    31.039933 
  519000       518500   -10677.509    867.85888   -11545.368    4151.7411   -15697.109    89.639368   -68.354702    227.15798   -4.2760985   -92.466028    -15.11891      32.3147      46.7237      46.7237      46.7237           90           90           90     102002.7     51.50906 
  520000       519500   -10671.838    866.76556   -11538.603    4160.7092   -15699.313    89.526442   -195.73864     88.77206    260.73852    190.37664     -13.9055   -129.56857      46.7237      46.7237      46.7237           90           90           90     102002.7    51.257312 
  521000       520500   -10678.138    870.82473   -11548.963    4139.3608   -15688.324    89.945705   -353.47975   -34.101936   -252.96188   -96.720305    6.7144104    13.414663      46.7237      46.7237      46.7237           90           90           90     102002.7   -213.51452 
  522000       521500   -10654.955    884.44585   -11539.401     4169.763   -15709.164    91.352603   -183.02133    6.3553645   -204.67308   -80.385818     132.5326   -144.60965      46.7237      46.7237      46.7237           90           90           90     102002.7   -127.11302 
  523000       522500    -10642.47    898.74129   -11541.211    4138.7547   -15679.966     92.82915    337.72329   -211.25107    325.66349   -5.2658118    17.682209    -124.8852      46.7237      46.7237      46.7237           90           90           90     102002.7     150.7119 
  524000       523500   -10650.145     872.2933   -11522.439    4163.7382   -15686.177    90.097391     310.9025    308.62113   -222.19145     53.18915    287.09743   -126.07467      46.7237      46.7237      46.7237           90           90           90     102002.7    132.44406 
  525000       524500   -10635.008    889.07003   -11524.078    4157.3491   -15681.427    91.830225    -231.9328    311.17375    467.26474    50.854565   -294.81818    36.968767      46.7237      46.7237      46.7237           90           90           90     102002.7    182.16856 
  526000       525500   -10635.971    899.02118   -11534.992    4129.5984   -15664.591    92.858059    148.95026   -49.301322    88.393245    214.26867   -13.088658    128.17441      46.7237      46.7237      46.7237           90           90           90     102002.7    62.680726 
  527000       526500   -10669.435    873.38147   -11542.817    4137.8687   -15680.685    90.209786   -103.51612   -305.72819   -313.10077   -32.067575    40.909114    435.41621      46.7237      46.7237      46.7237           90           90           90     102002.7   -240.78169 
  528000       527500   -10693.098    861.96363   -11555.061    4141.8805   -15696.942     89.03046   -178.64513    -200.4138   -56.385794   -165.68986    38.810453     55.76097      46.7237      46.7237      46.7237           90           90           90     102002.7   -145.14824 
  529000       528500    -10686.36     861.4732   -11547.833    4163.4416   -15711.275    88.979804     164.6844    -175.1869   -185.94881   -74.486426    -71.02208   -256.13949      46.7237      46.7237      46.7237           90           90           90     102002.7   -65.483768 
  530000       529500   -10693.054    881.92383   -11574.978    4128.0281   -15703.006    91.092109   -193.99591     -14.6701    -58.45136    4.6301674    59.391825    -159.6109      46.7237      46.7237      46.7237           90           90           90     102002.7   -89.039123 
  531000       530500   -10650.649    875.72272   -11526.372    4174.5288     -15700.9    90.451608   -58.365474   -386.54529    90.203571    93.398068   -92.841002   -50.829044      46.7237      46.7237      46.7237           90           90           90     102002.7   -118.23573 
  532000       531500   -10648.184    891.76915   -11539.954    4161.4812   -15701.435    92.109012   -5.6821886   -57.962478   -400.37428    79.306315   -30.576378    118.12595      46.7237      46.7237      46.7237           90           90           90     102002.7   -154.67298 
  533000       532500    -10651.78     886.3067   -11538.086    4156.5459   -15694.632    91.544806   -145.57598   -27.676302    269.67784   -330.82103    113.59848   0.83948168      46.7237      46.7237      46.7237           90           90           90     102002.7    32.141852 
  534000       533500   -10663.065    894.20777   -11557.273    4148.9672    -15706.24    92.360892    433.98793      104.713   -159.85275   -9.0764709     85.99019    -161.5676      46.7237      46.7237      46.7237           90           90           90     102002.7    126.28273 
  535000       534500   -10642.136    885.35783   -11527.493    4168.4113   -15695.905      91.4468   -24.325439   -112.50285    176.84678   -182.21941   -115.27044    176.42819      46.7237      46.7237      46.7237           90           90           90     102002.7    13.339495 
  536000       535500   -10708.952    866.87124   -11575.823    4141.9895   -15717.812    89.537357    119.67216   -430.83452   -372.57198   -39.356422    26.461239    4.7997723      46.7237      46.7237      46.7237           90           90           90     102002.7   -227.91144 
  537000       536500   -10651.555    893.37497    -11544.93    4151.1533   -15696.083    92.274873    237.70821    114.53223   -114.34634    113.23719    122.47084   -125.45804      46.7237      46.7237      46.7237           90           90           90     102002.7    79.298032 
  538000       537500    -10669.98    874.50319   -11544.484    4133.0279   -15677.512    90.325646    412.37555   -184.25016    105.36509    157.78349    311.21224   -77.268757      46.7237      46.7237      46.7237           90           90           90     102002.7    111.16349 
  539000       538500   -10650.118     883.4408   -11533.559     4159.752   -15693.311    91.248793    148.40618    179.06918    38.345773    13.562845    117.03129   -13.678303      46.7237      46.7237      46.7237           90           90           90     102002.7    121.94038 
  540000       539500   -10643.985    903.58705   -11547.572    4139.8941   -15687.466    93.329659   -190.87214   -169.64461    -5.997853   -96.900274   -168.78395    65.261215      46.7237      46.7237      46.7237           90           90           90     102002.7   -122.17153 
  541000       540500   -10633.758    872.82168    -11506.58    4174.7367   -15681.316    90.151966    357.69581    266.86544   -261.89305    24.482617    130.05516    217.89216      46.7237      46.7237      46.7237           90           90           90     102002.7     120.8894 
  542000       541500   -10662.871    875.32041   -11538.192    4143.9083     -15682.1    90.410055    95.453608   -170.58088    16.263633   -5.6976255    208.28987    95.694759      46.7237      46.7237      46.7237           90           90           90     102002.7   -19.621214 
  543000       542500   -10662.927     860.3482   -11523.275    4159.0828   -15682.358    88.863606   -130.04462    32.935786   -142.50996    23.654636    69.500956   -99.390024      46.7237      46.7237      46.7237           90           90           90     102002.7   -79.872933 
  544000       543500   -10634.451    891.24884     -11525.7    4159.6552   -15685.355     92.05527    221.03047    129.67376    127.68972    99.480985    201.37483    323.55159      46.7237      46.7237      46.7237           90           90           90     102002.7    159.46465 
  545000       544500    -10664.02    880.06484   -11544.085    4138.1417   -15682.226    90.900098    86.545167   -106.42032   -328.05824   -179.18398    29.156806    152.88986      46.7237      46.7237      46.7237           90           90           90     102002.7    -115.9778 
  546000       545500   -10654.955    886.55322   -11541.508     4150.474   -15691.982    91.570269    122.41224    209.90205    106.74823   -53.689007    79.640477    18.838603      46.7237      46.7237      46.7237           90           90           90     102002.7    146.35417 
  547000       546500   -10659.906    856.96561   -11516.871    4156.1343   -15673.005    88.514225    12.204766    198.47463    -205.6962    -55.77417    117.38593    29.733878      46.7237      46.7237      46.7237           90           90           90     102002.7     1.661068 
  548000       547500   -10634.567    890.84458   -11525.412    4168.6682    -15694.08    92.013514    73.443138    174.68262    75.298403   -71.836126    138.85638    16.539219      46.7237      46.7237      46.7237           90           90           90     102002.7    107.80805 
  549000       548500   -10654.527    886.02326   -11540.551    4129.0827   -15669.633     91.51553    206.23301    134.59484    31.954493    152.14239   -293.42906    179.95519      46.7237      46.7237      46.7237           90           90           90     102002.7    124.26078 
  550000       549500   -10631.663    888.52787   -11520.191     4160.483   -15680.674    91.774226    162.12115   -429.74356   -47.426116    162.25311    114.54692   -58.937948      46.7237      46.7237      46.7237           90           90           90     102002.7   -105.01618 
  551000       550500   -10655.438    874.43297   -11529.871    4161.5705   -15691.441    90.318393   -65.771286    -147.6575   -158.58564   -86.018583    131.26292    39.775606      46.7237      46.7237      46.7237           90           90           90     102002.7   -124.00481 
  552000       551500   -10688.447    862.75715   -11551.204    4150.7621   -15701.966    89.112422    268.56403   -409.70085   -381.59776    56.888708    130.33511    87.611218      46.7237      46.7237      46.7237           90           90           90     102002.7   -174.24486 
  553000       552500   -10639.063    879.87089   -11518.934    4166.3947   -15685.329    90.880065    13.606057   -93.772181    -426.8445    153.99683   -44.853026   -11.031736      46.7237      46.7237      46.7237           90           90           90     102002.7   -169.00354 
  554000       553500   -10652.819    886.65382   -11539.473    4159.6394   -15699.112     91.58066    297.38863   -87.600273    38.569339    140.50777    38.665798     261.3468      46.7237      46.7237      46.7237           90           90           90     102002.7    82.785899 
  555000       554500   -10648.474    886.69328   -11535.167    4163.4445   -15698.612    91.584735     222.4834    139.91187   -206.23451    262.52388    -146.0705   -291.89154      46.7237      46.7237      46.7237           90           90           90     102002.7    52.053586 
[...]
  936000       935500   -10658.811    889.14782   -11547.958    4158.5752   -15706.534     91.83826    259.84427    35.460815    345.64086    52.353924   -140.32836    110.61364      46.7237      46.7237      46.7237           90           90           90     102002.7    213.64865 
  937000       936500   -10666.556    862.43179   -11528.988    4163.9676   -15692.956    89.078816    626.06753   -337.91821   -228.23387    62.893142   -163.44868    29.165282      46.7237      46.7237      46.7237           90           90           90     102002.7    19.971817 
  938000       937500   -10638.897    887.19438   -11526.092    4162.6065   -15688.698    91.636493   -35.994604     85.24952   -281.47553   -109.03661   -40.175369   -157.43096      46.7237      46.7237      46.7237           90           90           90     102002.7   -77.406871 
  939000       938500   -10633.257    877.08627   -11510.344    4162.1847   -15672.528    90.592446   -218.24545   -304.30002    229.31096    -42.55496   -189.01392   -115.30627      46.7237      46.7237      46.7237           90           90           90     102002.7   -97.744834 
  940000       939500   -10671.947    852.97567   -11524.923      4155.95   -15680.873    88.102112    314.07675    25.912876   -140.78731   -118.94571    149.35173   -125.42472      46.7237      46.7237      46.7237           90           90           90     102002.7    66.400773 
  941000       940500   -10633.466     891.7698   -11525.236     4158.055   -15683.291    92.109079   -24.315782   -104.18012   -230.35037    2.6845666   -3.9928243    97.603031      46.7237      46.7237      46.7237           90           90           90     102002.7   -119.61542 
  942000       941500   -10664.997    879.14128   -11544.138    4144.4022   -15688.541    90.804704   -59.121875   -188.07366   -51.004677    84.144858    11.095737    21.943632      46.7237      46.7237      46.7237           90           90           90     102002.7   -99.400072 
  943000       942500   -10640.347    896.75834   -11537.105     4158.941   -15696.046    92.624335   -133.72914   -26.354823   -205.28901    397.39595   -290.67777   -212.16015      46.7237      46.7237      46.7237           90           90           90     102002.7   -121.79099 
  944000       943500   -10673.378    874.87002   -11548.248     4131.878   -15680.126    90.363535    21.083262    119.73918    132.90628   -213.63822   -114.61077   -72.628823      46.7237      46.7237      46.7237           90           90           90     102002.7    91.242908 
  945000       944500   -10632.544    884.86502   -11517.409    4176.1363   -15693.545    91.395898   -247.97581    299.90934   -85.897132   -36.656599    228.46278   -26.021655      46.7237      46.7237      46.7237           90           90           90     102002.7   -11.321201 
  946000       945500   -10641.517    872.35946   -11513.877    4161.2791   -15675.156    90.104224    84.737452    6.2634751     10.00885   -13.565423    297.19722    211.11237      46.7237      46.7237      46.7237           90           90           90     102002.7    33.669926 
  947000       946500   -10656.053    885.38257   -11541.435    4171.5082   -15712.943    91.449354    -141.3395   -372.36573   -437.87768    51.723067    167.29102   -166.21343      46.7237      46.7237      46.7237           90           90           90     102002.7   -317.19431 
  948000       947500   -10648.374    885.39368   -11533.768    4138.6151   -15672.383    91.450503    72.952109   -306.94249   -109.49718    110.83562   -42.264765   -129.38324      46.7237      46.7237      46.7237           90           90           90     102002.7   -114.49585 
  949000       948500   -10704.848    854.91879   -11559.767    4142.6709   -15702.438    88.302813   -101.97578   -47.229612    40.156522    76.097893   -318.52362    106.50452      46.7237      46.7237      46.7237           90           90           90     102002.7   -36.349622 
  950000       949500   -10638.322    892.41954   -11530.741    4166.5023   -15697.243    92.176189    91.086201    56.439577   -266.75439    68.116444    209.33945   -120.57599      46.7237      46.7237      46.7237           90           90           90     102002.7   -39.742871 
  951000       950500   -10626.917    898.84638   -11525.763    4147.0245   -15672.788    92.840004   -110.41494   -550.33055   -246.92892    126.59369    43.750674   -160.98468      46.7237      46.7237      46.7237           90           90           90     102002.7   -302.55814 
  952000       951500   -10657.966    899.69457   -11557.661    4140.0178   -15697.678    92.927612     34.16303   -18.303866    12.317535    96.462351   -18.313412    111.34581      46.7237      46.7237      46.7237           90           90           90     102002.7    9.3922329 
  953000       952500   -10671.441    869.20665   -11540.647    4143.2075   -15683.855    89.778577   -124.46631   -97.667688     326.0961    156.93916    231.07285    251.50267      46.7237      46.7237      46.7237           90           90           90     102002.7    34.654034 
  954000       953500   -10698.935    853.06863   -11552.003    4145.8551   -15697.858    88.111714    -375.3714    1.7035937    26.602428    10.461303   -189.09109   -37.011986      46.7237      46.7237      46.7237           90           90           90     102002.7   -115.68846 
  955000       954500   -10632.887    880.08195   -11512.969     4153.354   -15666.323    90.901865    32.366276    160.94379    378.91158   -36.690264   -105.00509      216.931      46.7237      46.7237      46.7237           90           90           90     102002.7    190.74055 
  956000       955500   -10676.927     882.6545   -11559.581    4129.0968   -15688.678    91.167578   -227.41693   -322.62144    321.37748   -11.565719    110.38048   -87.191944      46.7237      46.7237      46.7237           90           90           90     102002.7   -76.220295 
  957000       956500   -10631.898    898.80812   -11530.706    4140.5086   -15671.215    92.836052    -149.9814    -134.0625     279.0195    67.642822    256.16822   -65.620057      46.7237      46.7237      46.7237           90           90           90     102002.7   -1.6747994 
  958000       957500   -10650.707    877.74385    -11528.45    4150.2478   -15678.698    90.660367    107.66396    -39.09603    23.277387    -87.33506     169.1911    75.779346      46.7237      46.7237      46.7237           90           90           90     102002.7    30.615107 
  959000       958500   -10661.651    867.93999   -11529.591     4159.825   -15689.416    89.647747    205.84735   -219.58607    196.66481    97.519303    89.581264   -108.83269      46.7237      46.7237      46.7237           90           90           90     102002.7    60.975363 
  960000       959500   -10634.182    900.91402   -11535.097    4146.0014   -15681.098    93.053566   -179.59681   -195.56969    145.70059    28.785609    34.269596    2.8809826      46.7237      46.7237      46.7237           90           90           90     102002.7   -76.488635 
  961000       960500   -10649.116      885.921   -11535.037     4172.765   -15707.802    91.504968   -475.99592   -397.59095   -61.792558   -76.909375   -58.240528    -206.7572      46.7237      46.7237      46.7237           90           90           90     102002.7   -311.79314 
  962000       961500   -10652.529     875.1185   -11527.647    4151.1977   -15678.845      90.3892   -382.69777   -328.69835    68.864537   -1.6880069   -3.4211549    81.114855      46.7237      46.7237      46.7237           90           90           90     102002.7   -214.17719 
  963000       962500   -10608.742    912.27867   -11521.021     4168.058   -15689.079    94.227398   -44.967429   -21.267846    -250.8107    28.905819    33.569523    172.78767      46.7237      46.7237      46.7237           90           90           90     102002.7   -105.68199 
  964000       963500   -10624.267    895.78386   -11520.051    4164.1004   -15684.151    92.523683    -214.4737    -240.3112   -139.23853    79.499679   -10.024727    45.552686      46.7237      46.7237      46.7237           90           90           90     102002.7   -198.00781 
  965000       964500   -10672.965    872.94248   -11545.908    4157.4163   -15703.324    90.164443    11.568428   -159.60465   -377.65646    130.22571   -7.9314591   -32.785837      46.7237      46.7237      46.7237           90           90           90     102002.7   -175.23089 
  966000       965500   -10641.037    879.33888   -11520.376    4155.6293   -15676.006    90.825115    330.31185    4.9662778    267.82937   -87.254961   -91.497764   -54.325185      46.7237      46.7237      46.7237           90           90           90     102002.7    201.03583 
  967000       966500   -10665.053    886.11814   -11551.171     4151.992   -15703.163     91.52533    265.93672   -41.464681    192.30716   -2.1929118    150.56936   -9.6904401      46.7237      46.7237      46.7237           90           90           90     102002.7     138.9264 
  968000       967500   -10613.237    908.54389   -11521.781    4166.0438   -15687.824     93.84164    256.82748   -429.44856    158.66036   -317.23089     223.1762   -102.23044      46.7237      46.7237      46.7237           90           90           90     102002.7   -4.6535732 
  969000       968500   -10632.169    906.63471   -11538.804    4147.3063    -15686.11    93.644444   -415.16827    231.44013    -180.9411    80.226817   -29.419776    207.73345      46.7237      46.7237      46.7237           90           90           90     102002.7   -121.55642 
  970000       969500   -10639.995    892.32461   -11532.319    4172.4641   -15704.783    92.166384   -529.54892   -81.665091    -120.8382    128.72767    200.22639    17.817454      46.7237      46.7237      46.7237           90           90           90     102002.7    -244.0174 
  971000       970500   -10638.817    880.47166   -11519.289    4156.3529   -15675.641    90.942117   -42.121715   -204.68761    -281.7427     -182.363   -81.467315   -7.3644887      46.7237      46.7237      46.7237           90           90           90     102002.7   -176.18401 
  972000       971500   -10633.112    895.16581   -11528.278    4164.9007   -15693.178    92.459845   -209.73199   -21.334771   -241.86732    11.591197    21.796686    73.678946      46.7237      46.7237      46.7237           90           90           90     102002.7   -157.64469 
  973000       972500    -10626.75    878.60749   -11505.358     4161.297   -15666.655    90.749571   -219.60473   -5.7305313    47.241546   -36.301921    90.636827   -68.226399      46.7237      46.7237      46.7237           90           90           90     102002.7   -59.364573 
  974000       973500   -10685.455    869.83247   -11555.287    4139.4426    -15694.73    89.843216   -395.00476   -221.77357   -60.920943    170.49923   -50.176718   -180.25771      46.7237      46.7237      46.7237           90           90           90     102002.7   -225.89976 
  975000       974500   -10651.691    886.30172   -11537.993    4142.1437   -15680.136    91.544292   -229.97707    94.953547    315.07648    60.274382    23.856434    3.7488293      46.7237      46.7237      46.7237           90           90           90     102002.7    60.017651 
  976000       975500   -10643.503    888.99571   -11532.499    4153.3141   -15685.813    91.822549    51.994131   -319.97419   -262.97828   -103.94924    361.62917    147.15396      46.7237      46.7237      46.7237           90           90           90     102002.7   -176.98611 
  977000       976500   -10640.892    888.62606   -11529.519    4150.6858   -15680.204    91.784368    12.457166   -309.94924   -390.22921    177.33515     251.5156    181.54642      46.7237      46.7237      46.7237           90           90           90     102002.7   -229.24043 
  978000       977500   -10665.966    874.53896   -11540.505    4147.2281   -15687.733    90.329341   -322.67399   -508.95477   -507.12131   -75.684237   -43.921849   -82.180289      46.7237      46.7237      46.7237           90           90           90     102002.7   -446.25002 
  979000       978500   -10652.588    874.89117    -11527.48    4153.6804    -15681.16     90.36572    181.95774   -255.95706    105.77701   -149.98546    150.30762    54.768264      46.7237      46.7237      46.7237           90           90           90     102002.7    10.592564 
  980000       979500    -10661.48    878.44478   -11539.925    4169.8254    -15709.75    90.732765   -286.56238   -585.50672    32.740771    121.01172    95.025597   -247.69623      46.7237      46.7237      46.7237           90           90           90     102002.7   -279.77611 
  981000       980500   -10649.283    870.09883   -11519.382    4160.1346   -15679.516    89.870729    139.37792   -301.17677   -543.34477    232.67804    21.850404    37.165218      46.7237      46.7237      46.7237           90           90           90     102002.7   -235.04787 
  982000       981500   -10626.312    905.16445   -11531.476    4139.5812   -15671.057    93.492584   -158.32733   -177.82147   -163.63681    160.14072   -0.4259974   -265.73282      46.7237      46.7237      46.7237           90           90           90     102002.7    -166.5952 
  983000       982500   -10674.893    869.39877   -11544.291    4133.3529   -15677.644    89.798421    131.72896   -212.77711    221.93023    118.59143   -26.494139   -248.33839      46.7237      46.7237      46.7237           90           90           90     102002.7    46.960691 
  984000       983500   -10646.699    894.54357   -11541.243     4160.029   -15701.272    92.395575    108.05124   -273.59828   -221.51383    363.28348   -78.748503    74.153055      46.7237      46.7237      46.7237           90           90           90     102002.7   -129.02029 
  985000       984500   -10631.128    897.23297   -11528.361    4161.4336   -15689.795    92.673359   -328.37822    12.824925   -221.15873   -40.586974    80.931014 -0.065252609      46.7237      46.7237      46.7237           90           90           90     102002.7   -178.90401 
  986000       985500   -10658.267    877.47548   -11535.742    4152.8075    -15688.55    90.632647    75.272133   -376.65544     311.7912    43.196327    358.73112   -36.025991      46.7237      46.7237      46.7237           90           90           90     102002.7    3.4692984 
  987000       986500   -10650.335    886.21386   -11536.549    4149.1735   -15685.722    91.535217    51.286177    248.47359   -83.252705     -92.6488   -16.784806    8.0733397      46.7237      46.7237      46.7237           90           90           90     102002.7     72.16902 
  988000       987500   -10652.869     882.6372   -11535.507    4175.0084   -15710.515    91.165791   -178.58107    -215.6172   -247.16586     135.7638    75.102361   -90.596526      46.7237      46.7237      46.7237           90           90           90     102002.7   -213.78804 
  989000       988500   -10668.836    881.22173   -11550.057    4146.6477   -15696.705     91.01959    178.52154   -397.32384   -407.45871   -31.210817     85.66991    109.43077      46.7237      46.7237      46.7237           90           90           90     102002.7   -208.75367 
  990000       989500   -10684.496     878.6872   -11563.183    4135.3753   -15698.558    90.757804    88.707165   -461.24251    287.93269   -236.91389   -17.708879    -96.79218      46.7237      46.7237      46.7237           90           90           90     102002.7   -28.200885 
  991000       990500   -10639.288    906.81872   -11546.107    4161.0573   -15707.164    93.663451   -60.958599   -294.83676   -298.98255   -377.73304     78.16492   -41.979668      46.7237      46.7237      46.7237           90           90           90     102002.7    -218.2593 
  992000       991500   -10658.168    883.35661   -11541.525    4143.7666   -15685.291    91.240097    19.984893    -311.9942   -459.93099   -89.804743    76.985469   -23.323363      46.7237      46.7237      46.7237           90           90           90     102002.7   -250.64677 
  993000       992500   -10675.841    872.61109   -11548.452    4174.4776    -15722.93    90.130214   -361.76595   -232.60694   -46.722155    67.724968   -244.17648    24.951052      46.7237      46.7237      46.7237           90           90           90     102002.7   -213.69835 
  994000       993500   -10674.374    876.46785   -11550.842    4133.4198   -15684.262    90.528572   -124.65412   -321.90594     347.7935    30.600757    147.24386    238.65538      46.7237      46.7237      46.7237           90           90           90     102002.7   -32.922186 
  995000       994500   -10635.199    910.95137    -11546.15    4152.7617   -15698.912    94.090304    10.942107       207.72   -462.25378   -40.711548     85.97361   -44.624723      46.7237      46.7237      46.7237           90           90           90     102002.7   -81.197224 
  996000       995500    -10639.72    881.20403   -11520.924    4170.1178   -15691.042    91.017762   -211.19449   -5.8829542   -352.50564   -187.16759   -64.091567   -39.616002      46.7237      46.7237      46.7237           90           90           90     102002.7   -189.86103 
  997000       996500   -10662.923     871.4888   -11534.412    4154.5132   -15688.925    90.014296   -442.65853    7.6099032    331.17214   -171.75471    113.23142    101.09354      46.7237      46.7237      46.7237           90           90           90     102002.7   -34.625495 
  998000       997500   -10666.821    878.22411   -11545.046    4157.2241    -15702.27    90.709972   -279.39618   -543.96914   -67.267112    137.88877    129.02017   -76.263053      46.7237      46.7237      46.7237           90           90           90     102002.7   -296.87748 
  999000       998500   -10663.845      881.084   -11544.929    4144.0397   -15688.969    91.005364    126.95138    285.84901   -56.490616     122.1659   -127.12232    89.456382      46.7237      46.7237      46.7237           90           90           90     102002.7    118.76993 
 1000000       999500   -10643.067    892.43548   -11535.503    4140.0643   -15675.567    92.177836    134.32279    363.25604    428.16217   -142.14027    118.91852   -94.785089      46.7237      46.7237      46.7237           90           90           90     102002.7    308.58033 
 1000500      1000000   -10632.663    895.01281   -11527.676    4160.9598   -15688.636    92.444043    50.851079   -88.927203    236.64136   0.86935365    68.816764   -173.30645      46.7237      46.7237      46.7237           90           90           90     102002.7    66.188413 
Loop time of 2222.64 on 16 procs for 500000 steps with 3249 atoms

Performance: 19.436 ns/day, 1.235 hours/ns, 224.958 timesteps/s
99.9% CPU use with 16 MPI tasks x no OpenMP threads

MPI task timing breakdown:
Section |  min time  |  avg time  |  max time  |%varavg| %total
---------------------------------------------------------------
Pair    | 1163.7     | 1495.8     | 1755       | 436.3 | 67.30
Bond    | 157.61     | 184.09     | 218.35     | 133.9 |  8.28
Neigh   | 14.525     | 14.567     | 14.632     |   0.8 |  0.66
Comm    | 215.35     | 496.58     | 847.15     | 788.9 | 22.34
Output  | 0.13164    | 0.13891    | 0.13961    |   0.5 |  0.01
Modify  | 22.997     | 24.508     | 26.268     |  22.7 |  1.10
Other   |            | 6.923      |            |       |  0.31

Nlocal:    203.062 ave 227 max 181 min
Histogram: 2 2 0 1 4 1 2 1 2 1
Nghost:    4120.31 ave 4154 max 4078 min
Histogram: 1 1 0 3 1 3 1 2 3 1
Neighs:    11456.5 ave 14968 max 8105 min
Histogram: 2 0 2 3 1 2 2 2 1 1

Total # of neighbors = 183304
Ave neighs/atom = 56.4186
Ave special neighs/atom = 3.54571
Neighbor list builds = 4155
Dangerous builds = 0
Total wall time: 1:07:27
