LAMMPS (30 Mar 2018)
Reading data file ...
  orthogonal box = (0 0 0) to (46.7237 46.7237 46.7237)
  2 by 3 by 4 MPI processor grid
  reading atoms ...
  1729 atoms
  scanning bonds ...
  5 = max bonds/atom
  scanning angles ...
  10 = max angles/atom
  scanning dihedrals ...
  32 = max dihedrals/atom
  scanning impropers ...
  3 = max impropers/atom
  reading bonds ...
  2064 bonds
  reading angles ...
  3696 angles
  reading dihedrals ...
  6240 dihedrals
  reading impropers ...
  1008 impropers
Finding 1-2 1-3 1-4 neighbors ...
  special bond factors lj:   0          0          0         
  special bond factors coul: 0          0          0         
  5 = max # of 1-2 neighbors
  8 = max # of 1-3 neighbors
  20 = max # of 1-4 neighbors
  19 = max # of special neighbors
Finding 1-2 1-3 1-4 neighbors ...
  special bond factors lj:   0          0          1         
  special bond factors coul: 1          1          1         
  5 = max # of 1-2 neighbors
  8 = max # of 1-3 neighbors
  19 = max # of special neighbors
WARNING: Using 'neigh_modify every 1 delay 0 check yes' setting during minimization (../min.cpp:168)
Neighbor list info ...
  update every 1 steps, delay 0 steps, check yes
  max neighbors/atom: 2000, page size: 100000
  master list distance cutoff = 16
  ghost atom cutoff = 16
  binsize = 8, bins = 6 6 6
  3 neighbor lists, perpetual/occasional/extra = 3 0 0
  (1) pair buck6d/coul/gauss/dsf, perpetual, skip from (3)
      attributes: half, newton on
      pair build: skip
      stencil: none
      bin: none
  (2) pair lj/cut, perpetual, skip from (3)
      attributes: half, newton on
      pair build: skip
      stencil: none
      bin: none
  (3) neighbor class addition, perpetual
      attributes: half, newton on
      pair build: half/bin/newton
      stencil: half/bin/3d/newton
      bin: standard
Setting up cg style minimization ...
  Unit style    : real
  Current step  : 0
WARNING: Inconsistent image flags (../domain.cpp:786)
Per MPI rank memory allocation (min/avg/max) = 22.87 | 23.28 | 24.42 Mbytes
Step Temp E_pair E_mol TotEng Press 
       0            0    -11516.38    6482.8914   -5033.4885    6290.5627 
     501            0   -11534.031    3747.6077   -7786.4234   -496.28299 
Loop time of 1.23976 on 24 procs for 501 steps with 1729 atoms

99.8% CPU use with 24 MPI tasks x no OpenMP threads

Minimization stats:
  Stopping criterion = max force evaluations
  Energy initial, next-to-last, final = 
        -5033.48846109     -7786.24939692     -7786.42335846
  Force two-norm initial, final = 2576.99 19.3064
  Force max component initial, final = 151.962 2.6562
  Final line search alpha, max atom move = 0.00451321 0.011988
  Iterations, force evaluations = 501 1001

MPI task timing breakdown:
Section |  min time  |  avg time  |  max time  |%varavg| %total
---------------------------------------------------------------
Pair    | 0.44844    | 0.60207    | 0.77198    |  11.0 | 48.56
Bond    | 0.12403    | 0.15874    | 0.21356    |   5.1 | 12.80
Neigh   | 0.0085695  | 0.008727   | 0.0088451  |   0.1 |  0.70
Comm    | 0.2666     | 0.4458     | 0.58291    |  13.1 | 35.96
Output  | 0          | 0          | 0          |   0.0 |  0.00
Modify  | 0          | 0          | 0          |   0.0 |  0.00
Other   |            | 0.02442    |            |       |  1.97

Nlocal:    72.0417 ave 85 max 60 min
Histogram: 2 3 1 1 7 1 3 2 3 1
Nghost:    1967.71 ave 2140 max 1876 min
Histogram: 16 0 0 0 0 0 0 0 0 8
Neighs:    7623.38 ave 10582 max 4870 min
Histogram: 3 5 1 1 1 4 3 1 1 4

Total # of neighbors = 182961
Ave neighs/atom = 105.819
Ave special neighs/atom = 6.66281
Neighbor list builds = 16
Dangerous builds = 0
Neighbor list info ...
  update every 1 steps, delay 10 steps, check yes
  max neighbors/atom: 2000, page size: 100000
  master list distance cutoff = 16
  ghost atom cutoff = 16
  binsize = 8, bins = 6 6 6
  3 neighbor lists, perpetual/occasional/extra = 3 0 0
  (1) pair buck6d/coul/gauss/dsf, perpetual, skip from (3)
      attributes: half, newton on
      pair build: skip
      stencil: none
      bin: none
  (2) pair lj/cut, perpetual, skip from (3)
      attributes: half, newton on
      pair build: skip
      stencil: none
      bin: none
  (3) neighbor class addition, perpetual
      attributes: half, newton on
      pair build: half/bin/newton
      stencil: half/bin/3d/newton
      bin: standard
Setting up Verlet run ...
  Unit style    : real
  Current step  : 501
  Time step     : 1
WARNING: Inconsistent image flags (../domain.cpp:786)
Per MPI rank memory allocation (min/avg/max) = 22.52 | 22.7 | 23.31 Mbytes
Step Temp PotEng TotEng Press Volume Lx Ly Lz 
     501          110   -7786.4234    -7219.831   -242.36592     102002.7      46.7237      46.7237      46.7237 
    1000     95.78267   -7273.1242    -6779.763   -569.92245     102002.7      46.7237      46.7237      46.7237 
    2000    116.63842   -7239.4521   -6638.6663   -633.51696     102002.7      46.7237      46.7237      46.7237 
    3000    106.43887   -7208.7468   -6660.4973   -856.69932     102002.7      46.7237      46.7237      46.7237 
    4000    108.14249   -7229.3405   -6672.3159   -675.79251     102002.7      46.7237      46.7237      46.7237 
    5000    108.71425   -7216.1067    -6656.137   -747.17782     102002.7      46.7237      46.7237      46.7237 
    6000    107.68496   -7222.6154   -6667.9474   -757.04791     102002.7      46.7237      46.7237      46.7237 
    7000    108.83968   -7219.7278    -6659.112   -424.12933     102002.7      46.7237      46.7237      46.7237 
    8000    105.19454   -7213.0768   -6671.2366   -962.68005     102002.7      46.7237      46.7237      46.7237 
    9000    113.45395   -7255.6681   -6671.2849   -585.81331     102002.7      46.7237      46.7237      46.7237 
   10000     109.0173   -7208.2485   -6646.7178   -913.79345     102002.7      46.7237      46.7237      46.7237 
   11000    110.79204   -7220.0997   -6649.4277   -863.58411     102002.7      46.7237      46.7237      46.7237 
   12000    110.21082   -7225.1754   -6657.4971   -651.54723     102002.7      46.7237      46.7237      46.7237 
   13000     111.1234    -7207.897   -6635.5182   -870.08192     102002.7      46.7237      46.7237      46.7237 
   14000    109.47846   -7213.4691   -6649.5631   -573.40094     102002.7      46.7237      46.7237      46.7237 
   15000    108.10413   -7248.5817   -6691.7546   -613.33952     102002.7      46.7237      46.7237      46.7237 
   16000    109.87823   -7217.8353   -6651.8702   -955.70839     102002.7      46.7237      46.7237      46.7237 
   17000    109.74629   -7225.1338   -6659.8483   -701.87943     102002.7      46.7237      46.7237      46.7237 
   18000    112.05883   -7233.4044   -6656.2074   -557.97746     102002.7      46.7237      46.7237      46.7237 
   19000      107.062   -7232.2696   -6680.8104   -535.28935     102002.7      46.7237      46.7237      46.7237 
   20000    107.91262   -7208.1065   -6652.2659    -598.8923     102002.7      46.7237      46.7237      46.7237 
   21000    108.63244   -7235.4608   -6675.9125   -785.05736     102002.7      46.7237      46.7237      46.7237 
   22000    110.05173   -7211.0951   -6644.2362   -631.73867     102002.7      46.7237      46.7237      46.7237 
   23000     109.3277   -7224.3677   -6661.2382   -862.64492     102002.7      46.7237      46.7237      46.7237 
   24000    105.24947   -7223.6468   -6681.5237   -1007.8415     102002.7      46.7237      46.7237      46.7237 
   25000    107.85231   -7215.3391   -6659.8091   -386.28228     102002.7      46.7237      46.7237      46.7237 
   26000    114.11627   -7220.3222   -6632.5276   -766.28081     102002.7      46.7237      46.7237      46.7237 
   27000    109.54797   -7225.8175   -6661.5535   -519.15965     102002.7      46.7237      46.7237      46.7237 
   28000    108.68818   -7224.5915   -6664.7561    -683.5916     102002.7      46.7237      46.7237      46.7237 
   29000    109.69631   -7218.6177   -6653.5896   -859.19321     102002.7      46.7237      46.7237      46.7237 
   30000    106.94864   -7211.1841   -6660.3088   -446.98791     102002.7      46.7237      46.7237      46.7237 
   31000    109.01997   -7211.7934    -6650.249   -560.12513     102002.7      46.7237      46.7237      46.7237 
   32000    110.63753   -7234.3267   -6664.4504   -787.13765     102002.7      46.7237      46.7237      46.7237 
   33000    111.10384   -7226.0438   -6653.7657    -397.1527     102002.7      46.7237      46.7237      46.7237 
   34000    108.04664   -7241.5858   -6685.0548   -489.31115     102002.7      46.7237      46.7237      46.7237 
   35000    107.46006   -7229.6813   -6676.1717   -723.72952     102002.7      46.7237      46.7237      46.7237 
   36000    108.83753   -7218.5589   -6657.9542   -562.26285     102002.7      46.7237      46.7237      46.7237 
   37000    108.74125   -7215.3508   -6655.2421   -691.46936     102002.7      46.7237      46.7237      46.7237 
   38000    107.46596   -7235.8476   -6682.3076   -777.68807     102002.7      46.7237      46.7237      46.7237 
   39000    112.32442   -7225.8185   -6647.2534   -669.71083     102002.7      46.7237      46.7237      46.7237 
   40000    108.20781   -7225.2605   -6667.8994   -891.52163     102002.7      46.7237      46.7237      46.7237 
   41000    107.33981   -7241.3212    -6688.431   -610.47705     102002.7      46.7237      46.7237      46.7237 
   42000    109.73605   -7209.1188    -6643.886   -894.87422     102002.7      46.7237      46.7237      46.7237 
   43000    108.90035   -7236.6196   -6675.6914   -676.76269     102002.7      46.7237      46.7237      46.7237 
   44000    110.08433   -7229.3143   -6662.2876   -728.25569     102002.7      46.7237      46.7237      46.7237 
   45000    105.22465   -7232.3551   -6690.3598   -722.43231     102002.7      46.7237      46.7237      46.7237 
   46000    109.12551   -7218.7605   -6656.6725   -499.41481     102002.7      46.7237      46.7237      46.7237 
   47000    110.37149   -7223.5256   -6655.0197   -408.44181     102002.7      46.7237      46.7237      46.7237 
   48000    110.50848   -7230.7083   -6661.4968   -526.68607     102002.7      46.7237      46.7237      46.7237 
   49000    112.89057   -7205.9512     -6624.47   -667.25523     102002.7      46.7237      46.7237      46.7237 
   50000    110.73375     -7242.63   -6672.2581   -795.74304     102002.7      46.7237      46.7237      46.7237 
   51000    109.93626   -7206.8349   -6640.5708   -609.36963     102002.7      46.7237      46.7237      46.7237 
   52000    108.03673   -7222.1121   -6665.6322   -469.37058     102002.7      46.7237      46.7237      46.7237 
   53000    110.41802   -7220.2756     -6651.53   -888.64597     102002.7      46.7237      46.7237      46.7237 
   54000    111.02073   -7217.4798   -6645.6297   -626.73704     102002.7      46.7237      46.7237      46.7237 
   55000    105.74105   -7228.7818   -6684.1266   -778.28496     102002.7      46.7237      46.7237      46.7237 
   56000    111.81863   -7226.4354   -6650.4755   -531.40413     102002.7      46.7237      46.7237      46.7237 
   57000    108.31685   -7218.5542   -6660.6315    -922.0657     102002.7      46.7237      46.7237      46.7237 
   58000    111.15831   -7232.2053   -6659.6466   -664.96485     102002.7      46.7237      46.7237      46.7237 
   59000    113.56688   -7224.9214   -6639.9566   -633.75563     102002.7      46.7237      46.7237      46.7237 
   60000    105.96612    -7217.875   -6672.0606   -606.23518     102002.7      46.7237      46.7237      46.7237 
   61000     110.5446   -7206.5719   -6637.1744   -237.79886     102002.7      46.7237      46.7237      46.7237 
   62000    109.37063   -7219.1749   -6655.8243   -716.20645     102002.7      46.7237      46.7237      46.7237 
   63000    112.55367   -7223.2807   -6643.5348   -576.18112     102002.7      46.7237      46.7237      46.7237 
   64000    109.78189   -7225.9457   -6660.4768   -507.27148     102002.7      46.7237      46.7237      46.7237 
   65000    112.27681   -7212.4479    -6634.128   -755.78373     102002.7      46.7237      46.7237      46.7237 
   66000    110.02403   -7213.2769   -6646.5608   -619.90869     102002.7      46.7237      46.7237      46.7237 
   67000    107.44802   -7228.5427   -6675.0951   -526.72645     102002.7      46.7237      46.7237      46.7237 
   68000     112.6187   -7217.4701   -6637.3892   -523.18663     102002.7      46.7237      46.7237      46.7237 
   69000    112.27477   -7232.2377   -6653.9283   -642.55719     102002.7      46.7237      46.7237      46.7237 
   70000    111.09627    -7229.807   -6657.5679   -448.02159     102002.7      46.7237      46.7237      46.7237 
   71000    110.97515   -7232.3421   -6660.7269   -478.90647     102002.7      46.7237      46.7237      46.7237 
   72000     112.8041   -7213.8334   -6632.7975   -470.93212     102002.7      46.7237      46.7237      46.7237 
   73000     112.4908   -7245.2149   -6665.7928   -696.22425     102002.7      46.7237      46.7237      46.7237 
   74000    107.94904   -7209.7481   -6653.7199   -664.89096     102002.7      46.7237      46.7237      46.7237 
   75000    109.66183   -7224.8537   -6660.0032   -592.78389     102002.7      46.7237      46.7237      46.7237 
   76000    111.88861   -7212.9583    -6636.638   -775.94214     102002.7      46.7237      46.7237      46.7237 
   77000     110.0718   -7220.9955   -6654.0333   -681.93839     102002.7      46.7237      46.7237      46.7237 
   78000    106.78674    -7221.587   -6671.5456   -675.93389     102002.7      46.7237      46.7237      46.7237 
   79000    109.21676   -7221.6772   -6659.1192   -947.30229     102002.7      46.7237      46.7237      46.7237 
   80000    110.72983   -7227.8075   -6657.4559   -588.87566     102002.7      46.7237      46.7237      46.7237 
   81000    107.82026   -7224.3755   -6669.0106   -602.91953     102002.7      46.7237      46.7237      46.7237 
   82000    111.35391   -7224.1407   -6650.5745   -649.84469     102002.7      46.7237      46.7237      46.7237 
   83000    112.32766   -7235.5551   -6656.9733   -751.28435     102002.7      46.7237      46.7237      46.7237 
   84000    109.42611   -7215.3042   -6651.6678   -642.79164     102002.7      46.7237      46.7237      46.7237 
   85000    109.49955   -7228.3804   -6664.3658   -813.04969     102002.7      46.7237      46.7237      46.7237 
   86000    112.32102   -7251.1425    -6672.595   -753.10872     102002.7      46.7237      46.7237      46.7237 
   87000    111.25774   -7243.4563   -6670.3855    -625.8854     102002.7      46.7237      46.7237      46.7237 
   88000    109.79139   -7206.1309    -6640.613   -707.38406     102002.7      46.7237      46.7237      46.7237 
   89000    109.78864   -7235.5981   -6670.0943   -651.42539     102002.7      46.7237      46.7237      46.7237 
   90000    109.84113    -7213.482   -6647.7079   -797.09695     102002.7      46.7237      46.7237      46.7237 
   91000    107.47868   -7229.5077   -6675.9022   -900.56321     102002.7      46.7237      46.7237      46.7237 
   92000    106.94945   -7209.7834   -6658.9039   -734.98497     102002.7      46.7237      46.7237      46.7237 
   93000    110.46917   -7240.6351   -6671.6262   -845.73171     102002.7      46.7237      46.7237      46.7237 
   94000    109.50012   -7207.1105   -6643.0929   -531.78484     102002.7      46.7237      46.7237      46.7237 
   95000     112.1161   -7258.1234   -6680.6313    -767.1762     102002.7      46.7237      46.7237      46.7237 
   96000    111.62991   -7220.5788    -6645.591   -881.46712     102002.7      46.7237      46.7237      46.7237 
   97000    109.12437   -7215.3533   -6653.2712   -465.89762     102002.7      46.7237      46.7237      46.7237 
   98000    108.63155   -7225.3762   -6665.8325   -473.97832     102002.7      46.7237      46.7237      46.7237 
   99000    111.61998    -7206.635   -6631.6983   -682.88622     102002.7      46.7237      46.7237      46.7237 
  100000    108.73807   -7228.1402   -6668.0478   -591.26023     102002.7      46.7237      46.7237      46.7237 
  101000    104.18256   -7227.6104   -6690.9827   -778.93858     102002.7      46.7237      46.7237      46.7237 
  102000    108.05036   -7206.9188   -6650.3688   -652.47629     102002.7      46.7237      46.7237      46.7237 
  103000    109.57333   -7245.1063   -6680.7116   -715.17262     102002.7      46.7237      46.7237      46.7237 
  104000    109.23516   -7200.8593   -6638.2065   -855.89054     102002.7      46.7237      46.7237      46.7237 
  105000    110.60573   -7224.7616   -6655.0493   -599.17123     102002.7      46.7237      46.7237      46.7237 
  106000    106.40132   -7230.8266   -6682.7705   -859.97438     102002.7      46.7237      46.7237      46.7237 
  107000    108.56862   -7219.5371   -6660.3176    -1030.269     102002.7      46.7237      46.7237      46.7237 
  108000    111.23927   -7232.9851   -6660.0094   -720.55798     102002.7      46.7237      46.7237      46.7237 
  109000    109.66114   -7235.8156   -6670.9686   -841.90677     102002.7      46.7237      46.7237      46.7237 
  110000    111.42937   -7207.0645   -6633.1097   -603.68923     102002.7      46.7237      46.7237      46.7237 
  111000      109.274   -7229.6459   -6666.7931   -551.34691     102002.7      46.7237      46.7237      46.7237 
  112000    109.28486   -7206.9996   -6644.0908   -504.64693     102002.7      46.7237      46.7237      46.7237 
  113000     109.9441   -7233.3035   -6666.9991   -800.51644     102002.7      46.7237      46.7237      46.7237 
  114000     112.4489   -7209.3855   -6630.1793   -702.71586     102002.7      46.7237      46.7237      46.7237 
  115000    109.77561   -7229.0126    -6663.576   -582.89805     102002.7      46.7237      46.7237      46.7237 
  116000    110.22606   -7207.7237   -6639.9669   -597.65627     102002.7      46.7237      46.7237      46.7237 
  117000    109.18907   -7221.2123   -6658.7969   -554.28386     102002.7      46.7237      46.7237      46.7237 
  118000    111.80264   -7226.4081   -6650.5306   -557.94916     102002.7      46.7237      46.7237      46.7237 
  119000    106.66454   -7241.2764   -6691.8645   -650.93375     102002.7      46.7237      46.7237      46.7237 
  120000    107.83666   -7205.4865   -6650.0372   -592.98837     102002.7      46.7237      46.7237      46.7237 
  121000    109.81912   -7229.4426   -6663.7819   -664.05012     102002.7      46.7237      46.7237      46.7237 
  122000    112.11884   -7229.0938   -6651.5876   -528.98522     102002.7      46.7237      46.7237      46.7237 
  123000    109.60687    -7224.527   -6659.9596   -580.50819     102002.7      46.7237      46.7237      46.7237 
  124000    110.44564   -7214.8906   -6646.0029   -536.74667     102002.7      46.7237      46.7237      46.7237 
  125000       114.66   -7215.9602   -6625.3649   -643.28378     102002.7      46.7237      46.7237      46.7237 
  126000    111.20035   -7235.0412    -6662.266   -759.63776     102002.7      46.7237      46.7237      46.7237 
  127000    115.19895   -7213.5345   -6620.1632   -470.41045     102002.7      46.7237      46.7237      46.7237 
  128000    109.44942   -7223.2106   -6659.4542   -704.63182     102002.7      46.7237      46.7237      46.7237 
  129000    108.95469   -7226.3032   -6665.0951   -768.01381     102002.7      46.7237      46.7237      46.7237 
  130000    113.47827   -7192.8994    -6608.391   -721.13314     102002.7      46.7237      46.7237      46.7237 
  131000    107.49105   -7217.8149   -6664.1458   -621.56741     102002.7      46.7237      46.7237      46.7237 
  132000     109.4068   -7204.2378   -6640.7009   -780.66423     102002.7      46.7237      46.7237      46.7237 
  133000    109.71872   -7215.5276    -6650.384   -610.27489     102002.7      46.7237      46.7237      46.7237 
  134000     109.3805   -7240.1819   -6676.7805   -765.00792     102002.7      46.7237      46.7237      46.7237 
  135000    110.49363   -7225.5185   -6656.3835   -812.51665     102002.7      46.7237      46.7237      46.7237 
  136000    107.11944    -7216.521   -6664.7659   -598.76329     102002.7      46.7237      46.7237      46.7237 
  137000    109.32983   -7220.8661   -6657.7256   -757.20938     102002.7      46.7237      46.7237      46.7237 
  138000    109.41518   -7225.0647   -6661.4846   -732.86296     102002.7      46.7237      46.7237      46.7237 
  139000    109.36681    -7203.793   -6640.4621   -553.28443     102002.7      46.7237      46.7237      46.7237 
  140000    108.93846   -7227.3812   -6666.2566   -683.19294     102002.7      46.7237      46.7237      46.7237 
  141000    113.01489   -7237.7868   -6655.6652   -756.39614     102002.7      46.7237      46.7237      46.7237 
  142000    113.02151   -7220.5596   -6638.4039   -600.98683     102002.7      46.7237      46.7237      46.7237 
  143000    111.81999   -7229.9191   -6653.9523   -674.67513     102002.7      46.7237      46.7237      46.7237 
  144000    109.73938   -7226.2079    -6660.958   -996.09183     102002.7      46.7237      46.7237      46.7237 
  145000    106.71811   -7229.5609    -6679.873   -836.97394     102002.7      46.7237      46.7237      46.7237 
  146000    110.44513   -7215.7122   -6646.8271   -837.21586     102002.7      46.7237      46.7237      46.7237 
  147000    109.05506   -7233.4593   -6671.7341   -751.22977     102002.7      46.7237      46.7237      46.7237 
  148000    111.62818   -7221.9877   -6647.0089   -689.34288     102002.7      46.7237      46.7237      46.7237 
  149000    111.33217   -7219.8197   -6646.3655   -746.72089     102002.7      46.7237      46.7237      46.7237 
  150000    109.01969   -7227.4111   -6665.8682   -531.03492     102002.7      46.7237      46.7237      46.7237 
  151000    113.16575   -7212.6603   -6629.7616   -956.17751     102002.7      46.7237      46.7237      46.7237 
  152000     110.1193   -7212.9037   -6645.6968   -743.02291     102002.7      46.7237      46.7237      46.7237 
  153000    114.49122    -7234.929   -6645.2031   -769.10768     102002.7      46.7237      46.7237      46.7237 
  154000    107.82333   -7230.3462   -6674.9655   -455.17543     102002.7      46.7237      46.7237      46.7237 
  155000    110.47757   -7209.6453    -6640.593   -508.65171     102002.7      46.7237      46.7237      46.7237 
  156000    113.44248   -7233.7995   -6649.4754   -234.87347     102002.7      46.7237      46.7237      46.7237 
  157000    110.33809   -7227.0297   -6658.6959   -550.57859     102002.7      46.7237      46.7237      46.7237 
  158000    112.89954   -7217.2115   -6635.6841   -686.33117     102002.7      46.7237      46.7237      46.7237 
  159000    113.08168   -7243.5466    -6661.081   -225.02724     102002.7      46.7237      46.7237      46.7237 
  160000    109.32661   -7241.0173   -6677.8934   -751.16863     102002.7      46.7237      46.7237      46.7237 
  161000    110.61021   -7224.3871   -6654.6516   -515.27458     102002.7      46.7237      46.7237      46.7237 
  162000    108.96355   -7240.5611   -6679.3073    -921.5038     102002.7      46.7237      46.7237      46.7237 
  163000    110.63783   -7231.0396   -6661.1619   -811.85255     102002.7      46.7237      46.7237      46.7237 
  164000    110.81101   -7211.8708   -6641.1011   -737.14431     102002.7      46.7237      46.7237      46.7237 
  165000    113.40222   -7223.5822   -6639.4656   -800.84705     102002.7      46.7237      46.7237      46.7237 
  166000    109.59351   -7224.1108   -6659.6121   -513.01641     102002.7      46.7237      46.7237      46.7237 
  167000    110.36772   -7222.0368   -6653.5504   -659.66576     102002.7      46.7237      46.7237      46.7237 
  168000    106.08303   -7224.3991   -6677.9825   -605.90555     102002.7      46.7237      46.7237      46.7237 
  169000    111.07375   -7223.2449   -6651.1219   -752.16952     102002.7      46.7237      46.7237      46.7237 
  170000    114.40709    -7220.056   -6630.7634   -851.69971     102002.7      46.7237      46.7237      46.7237 
  171000    109.78372    -7210.416   -6644.9376   -713.53467     102002.7      46.7237      46.7237      46.7237 
  172000    109.81123   -7231.7492   -6666.1292   -767.64028     102002.7      46.7237      46.7237      46.7237 
  173000     106.9608   -7220.6643   -6669.7263   -850.65105     102002.7      46.7237      46.7237      46.7237 
  174000    112.46446   -7224.5759   -6645.2895    -916.0289     102002.7      46.7237      46.7237      46.7237 
  175000    108.08641   -7228.9898    -6672.254   -550.88986     102002.7      46.7237      46.7237      46.7237 
  176000    107.64222   -7219.5787   -6665.1309   -733.37714     102002.7      46.7237      46.7237      46.7237 
  177000    107.55474   -7221.1085   -6667.1113   -612.73887     102002.7      46.7237      46.7237      46.7237 
  178000    110.92081   -7214.7726   -6643.4373   -800.54074     102002.7      46.7237      46.7237      46.7237 
  179000    110.27726   -7232.6008   -6664.5803   -456.88929     102002.7      46.7237      46.7237      46.7237 
  180000    111.17786   -7221.0811   -6648.4217   -713.58003     102002.7      46.7237      46.7237      46.7237 
  181000    108.21084      -7217.5   -6660.1233   -553.53016     102002.7      46.7237      46.7237      46.7237 
  182000    112.38836    -7203.164   -6624.2696   -634.49886     102002.7      46.7237      46.7237      46.7237 
  183000    110.77467   -7229.8738   -6659.2913   -509.22019     102002.7      46.7237      46.7237      46.7237 
  184000    112.58447   -7216.6121   -6636.7076   -719.31188     102002.7      46.7237      46.7237      46.7237 
  185000     114.2398   -7225.1183   -6636.6874   -208.85529     102002.7      46.7237      46.7237      46.7237 
  186000    109.09569   -7234.7799   -6672.8455   -177.65126     102002.7      46.7237      46.7237      46.7237 
  187000    112.27475   -7194.4976   -6616.1883   -501.53421     102002.7      46.7237      46.7237      46.7237 
  188000    107.62827   -7215.6481   -6661.2721   -591.08963     102002.7      46.7237      46.7237      46.7237 
  189000    111.31369   -7216.5077   -6643.1487   -890.13298     102002.7      46.7237      46.7237      46.7237 
  190000    111.35663   -7230.1642    -6656.584   -975.61413     102002.7      46.7237      46.7237      46.7237 
  191000    109.65475   -7220.6966   -6655.8825   -804.72373     102002.7      46.7237      46.7237      46.7237 
  192000    107.99065   -7231.5448   -6675.3022   -745.08519     102002.7      46.7237      46.7237      46.7237 
  193000    109.26069   -7226.2178   -6663.4335   -1113.8835     102002.7      46.7237      46.7237      46.7237 
  194000    110.09444   -7210.9874   -6643.9086    -715.8865     102002.7      46.7237      46.7237      46.7237 
  195000    109.06274   -7240.2389   -6678.4742   -927.94796     102002.7      46.7237      46.7237      46.7237 
  196000    108.14227    -7212.949   -6655.9255   -602.60134     102002.7      46.7237      46.7237      46.7237 
  197000    109.47688   -7225.1489   -6661.2511    -674.4863     102002.7      46.7237      46.7237      46.7237 
  198000    108.34021   -7225.7336   -6667.6906   -776.99875     102002.7      46.7237      46.7237      46.7237 
  199000    108.66776    -7208.645   -6648.9148   -612.47547     102002.7      46.7237      46.7237      46.7237 
  200000    109.76696   -7231.1473   -6665.7553   -880.37589     102002.7      46.7237      46.7237      46.7237 
  201000    109.71941   -7200.3506   -6635.2035   -660.85879     102002.7      46.7237      46.7237      46.7237 
  202000    109.76611   -7202.8558   -6637.4681   -799.88603     102002.7      46.7237      46.7237      46.7237 
  203000    108.80915   -7227.9133   -6667.4548   -661.90584     102002.7      46.7237      46.7237      46.7237 
  204000    114.74539   -7224.6791    -6633.644    -778.7367     102002.7      46.7237      46.7237      46.7237 
  205000    109.72126   -7232.3932   -6667.2365    -729.4363     102002.7      46.7237      46.7237      46.7237 
  206000    114.02602   -7224.5468   -6637.2171   -559.79448     102002.7      46.7237      46.7237      46.7237 
  207000    108.03214   -7217.5378   -6661.0815   -802.23203     102002.7      46.7237      46.7237      46.7237 
  208000    110.45052    -7226.325   -6657.4121   -632.25727     102002.7      46.7237      46.7237      46.7237 
  209000     110.1056   -7234.0022   -6666.8659   -806.73363     102002.7      46.7237      46.7237      46.7237 
  210000    111.31697   -7240.2115   -6666.8356   -497.78448     102002.7      46.7237      46.7237      46.7237 
  211000    110.79472   -7214.1791   -6643.4933    -895.9405     102002.7      46.7237      46.7237      46.7237 
  212000    108.39222   -7235.6008   -6677.2899   -763.87592     102002.7      46.7237      46.7237      46.7237 
  213000      109.473   -7215.2798   -6651.4019   -462.12479     102002.7      46.7237      46.7237      46.7237 
  214000    111.62669   -7224.6233   -6649.6521   -687.39774     102002.7      46.7237      46.7237      46.7237 
  215000    110.50583   -7240.2719    -6671.074   -631.13195     102002.7      46.7237      46.7237      46.7237 
  216000    107.95508   -7211.1551   -6655.0957   -773.21948     102002.7      46.7237      46.7237      46.7237 
  217000    109.66558   -7232.6725   -6667.8027   -600.27958     102002.7      46.7237      46.7237      46.7237 
  218000     111.7367   -7212.6505   -6637.1127    -798.4173     102002.7      46.7237      46.7237      46.7237 
  219000     108.5665   -7214.6531   -6655.4444    -722.1549     102002.7      46.7237      46.7237      46.7237 
  220000    107.38842   -7234.6325   -6681.4919   -774.02115     102002.7      46.7237      46.7237      46.7237 
  221000    111.60326   -7234.6195    -6659.769   -427.59475     102002.7      46.7237      46.7237      46.7237 
  222000    112.33694   -7230.2052   -6651.5756   -846.31338     102002.7      46.7237      46.7237      46.7237 
  223000    114.52619   -7227.7103   -6637.8043   -861.28128     102002.7      46.7237      46.7237      46.7237 
  224000    107.59427   -7217.8613   -6663.6605   -406.77668     102002.7      46.7237      46.7237      46.7237 
  225000    108.57283   -7224.6363   -6665.3951   -786.77765     102002.7      46.7237      46.7237      46.7237 
  226000    111.95884   -7243.6772   -6666.9952   -506.55037     102002.7      46.7237      46.7237      46.7237 
  227000    109.52078   -7207.8552   -6643.7312   -725.94416     102002.7      46.7237      46.7237      46.7237 
  228000    110.79343   -7231.9326   -6661.2534    -761.6067     102002.7      46.7237      46.7237      46.7237 
  229000    112.88312   -7226.6143   -6645.1714   -711.51151     102002.7      46.7237      46.7237      46.7237 
  230000    109.78259   -7231.8856    -6666.413   -872.95858     102002.7      46.7237      46.7237      46.7237 
  231000    106.96573   -7228.8764   -6677.9131   -724.97456     102002.7      46.7237      46.7237      46.7237 
  232000    111.20487   -7226.3275   -6653.5291   -726.23288     102002.7      46.7237      46.7237      46.7237 
  233000    111.03938   -7210.3953   -6638.4493   -1035.7461     102002.7      46.7237      46.7237      46.7237 
  234000    109.70043   -7215.3352   -6650.2859    -390.1554     102002.7      46.7237      46.7237      46.7237 
  235000    110.00765   -7215.2112   -6648.5795   -697.04493     102002.7      46.7237      46.7237      46.7237 
  236000    112.52947   -7229.8103   -6650.1891   -594.92782     102002.7      46.7237      46.7237      46.7237 
  237000    106.57034   -7217.7331   -6668.8063   -480.83982     102002.7      46.7237      46.7237      46.7237 
  238000    105.74697   -7230.5334   -6685.8477   -523.75524     102002.7      46.7237      46.7237      46.7237 
  239000    111.08026    -7216.952   -6644.7953   -625.73522     102002.7      46.7237      46.7237      46.7237 
  240000    108.70066   -7218.7765   -6658.8768   -416.59677     102002.7      46.7237      46.7237      46.7237 
  241000    107.27202   -7227.2626   -6674.7216   -755.32898     102002.7      46.7237      46.7237      46.7237 
  242000    109.00336   -7232.2705   -6670.8117   -478.21057     102002.7      46.7237      46.7237      46.7237 
  243000      112.255   -7226.5346   -6648.3271   -480.07199     102002.7      46.7237      46.7237      46.7237 
  244000     110.5039   -7228.6906   -6659.5027   -789.93121     102002.7      46.7237      46.7237      46.7237 
  245000    107.41023   -7224.1253   -6670.8724   -456.56321     102002.7      46.7237      46.7237      46.7237 
  246000    107.97071   -7212.6173   -6656.4775   -607.39909     102002.7      46.7237      46.7237      46.7237 
  247000    110.66212   -7240.5582   -6670.5553   -864.36646     102002.7      46.7237      46.7237      46.7237 
  248000    109.82009   -7225.4097    -6659.744   -325.05128     102002.7      46.7237      46.7237      46.7237 
  249000    112.54449   -7212.3018   -6632.6032   -849.41122     102002.7      46.7237      46.7237      46.7237 
  250000    108.62274   -7223.3167   -6663.8184   -833.40063     102002.7      46.7237      46.7237      46.7237 
  251000    108.63023   -7234.6525   -6675.1156   -375.16478     102002.7      46.7237      46.7237      46.7237 
  252000    111.22414   -7233.6907    -6660.793   -793.70553     102002.7      46.7237      46.7237      46.7237 
  253000    110.14268   -7209.9113    -6642.584   -550.04661     102002.7      46.7237      46.7237      46.7237 
  254000    110.11551   -7230.8334   -6663.6461   -638.96576     102002.7      46.7237      46.7237      46.7237 
  255000    109.77965   -7225.7739   -6660.3165   -813.76077     102002.7      46.7237      46.7237      46.7237 
  256000    106.75864   -7204.1161   -6654.2194   -796.03066     102002.7      46.7237      46.7237      46.7237 
  257000    104.13276   -7233.0208   -6696.6496   -845.59568     102002.7      46.7237      46.7237      46.7237 
  258000    114.23943    -7243.109     -6654.68   -686.21183     102002.7      46.7237      46.7237      46.7237 
  259000    108.45928   -7218.1018   -6659.4454      -840.83     102002.7      46.7237      46.7237      46.7237 
  260000    110.77349   -7236.6407   -6666.0642   -730.11713     102002.7      46.7237      46.7237      46.7237 
  261000     110.3736   -7217.6326   -6649.1158   -937.69776     102002.7      46.7237      46.7237      46.7237 
  262000    109.96237   -7224.1813   -6657.7827   -458.05091     102002.7      46.7237      46.7237      46.7237 
  263000    109.83647   -7234.0166   -6668.2666    -724.1134     102002.7      46.7237      46.7237      46.7237 
  264000    111.10796   -7222.6543    -6650.355   -725.44794     102002.7      46.7237      46.7237      46.7237 
  265000    114.89187   -7228.3688   -6636.5792   -797.34028     102002.7      46.7237      46.7237      46.7237 
  266000    106.74518   -7224.1811   -6674.3538    -947.7423     102002.7      46.7237      46.7237      46.7237 
  267000    112.92062   -7214.5769   -6632.9409   -475.08452     102002.7      46.7237      46.7237      46.7237 
  268000    109.43527   -7224.7782   -6661.0946     -941.233     102002.7      46.7237      46.7237      46.7237 
  269000    105.58061   -7221.6345   -6677.8057   -575.62573     102002.7      46.7237      46.7237      46.7237 
  270000    108.88221   -7215.7872   -6654.9524   -533.80953     102002.7      46.7237      46.7237      46.7237 
  271000    104.76612   -7211.7207   -6672.0872    -640.6029     102002.7      46.7237      46.7237      46.7237 
  272000    109.85693   -7222.0492   -6656.1938   -827.84133     102002.7      46.7237      46.7237      46.7237 
  273000     109.5647   -7228.3493   -6663.9991   -504.60781     102002.7      46.7237      46.7237      46.7237 
  274000    108.77454   -7216.9879   -6656.7076   -685.39903     102002.7      46.7237      46.7237      46.7237 
  275000    107.26105   -7223.6659   -6671.1814   -640.21601     102002.7      46.7237      46.7237      46.7237 
  276000    110.88518    -7239.187   -6668.0352   -881.06325     102002.7      46.7237      46.7237      46.7237 
  277000    111.87924   -7221.9604   -6645.6884   -508.31616     102002.7      46.7237      46.7237      46.7237 
  278000    110.44742   -7215.0174   -6646.1205   -569.26547     102002.7      46.7237      46.7237      46.7237 
  279000    107.17318   -7222.7689    -6670.737   -833.98534     102002.7      46.7237      46.7237      46.7237 
  280000    110.36997   -7228.6901   -6660.1921   -509.15855     102002.7      46.7237      46.7237      46.7237 
  281000    110.91515   -7230.8534   -6659.5473   -529.04402     102002.7      46.7237      46.7237      46.7237 
  282000    109.88525   -7219.8678   -6653.8665   -754.55145     102002.7      46.7237      46.7237      46.7237 
  283000    115.17358   -7227.4247   -6634.1841   -816.93891     102002.7      46.7237      46.7237      46.7237 
  284000    109.24468   -7226.9993   -6664.2975   -589.55678     102002.7      46.7237      46.7237      46.7237 
  285000    110.27439   -7229.3426   -6661.3369   -776.03716     102002.7      46.7237      46.7237      46.7237 
  286000    114.23494   -7213.7747   -6625.3689   -656.33218     102002.7      46.7237      46.7237      46.7237 
  287000    109.16244   -7210.1249   -6647.8466   -798.78132     102002.7      46.7237      46.7237      46.7237 
  288000    105.91194   -7230.5543   -6685.0188   -681.03122     102002.7      46.7237      46.7237      46.7237 
  289000    112.94056   -7238.4922   -6656.7535   -289.39278     102002.7      46.7237      46.7237      46.7237 
  290000    111.60927   -7219.4145    -6644.533   -712.31642     102002.7      46.7237      46.7237      46.7237 
  291000    109.47567   -7238.6255   -6674.7338   -439.51064     102002.7      46.7237      46.7237      46.7237 
  292000    113.90762    -7212.985   -6626.2651   -640.78442     102002.7      46.7237      46.7237      46.7237 
  293000    108.28889   -7215.7268   -6657.9481   -776.77562     102002.7      46.7237      46.7237      46.7237 
  294000    108.42967   -7230.1625   -6671.6587   -749.60285     102002.7      46.7237      46.7237      46.7237 
  295000    113.48859   -7228.9242   -6644.3626   -681.21404     102002.7      46.7237      46.7237      46.7237 
  296000     109.3706   -7236.2941   -6672.9437   -528.23356     102002.7      46.7237      46.7237      46.7237 
  297000    110.05069   -7209.1937   -6642.3403    -650.2995     102002.7      46.7237      46.7237      46.7237 
  298000    113.02644   -7207.5265   -6625.3454   -575.50747     102002.7      46.7237      46.7237      46.7237 
  299000    110.92491   -7232.1921   -6660.8356   -959.12865     102002.7      46.7237      46.7237      46.7237 
  300000    110.44429   -7209.4846   -6640.6038   -860.32692     102002.7      46.7237      46.7237      46.7237 
  301000    107.18498   -7210.3142   -6658.2215   -446.80126     102002.7      46.7237      46.7237      46.7237 
  302000    108.66776   -7223.5626   -6663.8324   -957.13954     102002.7      46.7237      46.7237      46.7237 
  303000    109.61059   -7215.0212   -6650.4346   -739.08182     102002.7      46.7237      46.7237      46.7237 
  304000    108.08202   -7238.9713   -6682.2581   -671.97245     102002.7      46.7237      46.7237      46.7237 
  305000    109.61636   -7229.8873    -6665.271   -887.81788     102002.7      46.7237      46.7237      46.7237 
  306000    111.90139    -7218.422   -6642.0358   -702.41097     102002.7      46.7237      46.7237      46.7237 
  307000    108.81109   -7241.5016   -6681.0331   -564.64138     102002.7      46.7237      46.7237      46.7237 
  308000    110.24023   -7211.8082   -6643.9785   -548.80631     102002.7      46.7237      46.7237      46.7237 
  309000    111.48516   -7208.8744   -6634.6322   -445.36123     102002.7      46.7237      46.7237      46.7237 
  310000    107.98982   -7223.9687   -6667.7304   -525.97618     102002.7      46.7237      46.7237      46.7237 
  311000    113.21273    -7222.186   -6639.0454   -576.42844     102002.7      46.7237      46.7237      46.7237 
  312000     107.0655   -7214.2416   -6662.7643   -614.37784     102002.7      46.7237      46.7237      46.7237 
  313000    106.61361   -7224.9581   -6675.8085   -836.00804     102002.7      46.7237      46.7237      46.7237 
  314000    109.58445   -7227.8486   -6663.3966    -741.4749     102002.7      46.7237      46.7237      46.7237 
  315000    107.23852   -7230.9089   -6678.5405   -606.90487     102002.7      46.7237      46.7237      46.7237 
  316000    114.75126   -7224.4307   -6633.3653   -737.33212     102002.7      46.7237      46.7237      46.7237 
  317000    113.48464   -7230.0982   -6645.5571   -573.81174     102002.7      46.7237      46.7237      46.7237 
  318000     109.4532    -7217.812   -6654.0361   -484.14899     102002.7      46.7237      46.7237      46.7237 
  319000    107.90613   -7220.3033   -6664.4961   -673.32128     102002.7      46.7237      46.7237      46.7237 
  320000    112.20719   -7213.9818   -6636.0205     -838.482     102002.7      46.7237      46.7237      46.7237 
  321000     110.6755   -7239.2504   -6669.1786   -631.35095     102002.7      46.7237      46.7237      46.7237 
  322000    112.59891   -7223.2143   -6643.2354     -408.267     102002.7      46.7237      46.7237      46.7237 
  323000    109.51866   -7222.8375   -6658.7244   -599.35749     102002.7      46.7237      46.7237      46.7237 
  324000    108.77939   -7229.4815   -6669.1763   -457.18231     102002.7      46.7237      46.7237      46.7237 
  325000    111.09277   -7228.7621   -6656.5411   -718.61847     102002.7      46.7237      46.7237      46.7237 
  326000    109.89791   -7218.1563   -6652.0898   -558.46637     102002.7      46.7237      46.7237      46.7237 
  327000    107.99086   -7227.9557   -6671.7121   -669.92953     102002.7      46.7237      46.7237      46.7237 
  328000    105.29813   -7228.6958    -6686.322    -634.4529     102002.7      46.7237      46.7237      46.7237 
  329000    112.16914   -7229.0191   -6651.2538   -422.27895     102002.7      46.7237      46.7237      46.7237 
  330000    106.41831   -7238.7262   -6690.5826     -968.318     102002.7      46.7237      46.7237      46.7237 
  331000    108.59122   -7208.9905   -6649.6546   -531.38246     102002.7      46.7237      46.7237      46.7237 
  332000    105.98327   -7219.7195   -6673.8166   -768.15724     102002.7      46.7237      46.7237      46.7237 
  333000    106.98623   -7227.4306   -6676.3616   -743.10039     102002.7      46.7237      46.7237      46.7237 
  334000    112.30063   -7214.5886    -6636.146   -817.60079     102002.7      46.7237      46.7237      46.7237 
  335000    110.19639   -7226.0517   -6658.4478   -623.48368     102002.7      46.7237      46.7237      46.7237 
  336000    108.16752   -7231.9995   -6674.8459   -531.85145     102002.7      46.7237      46.7237      46.7237 
  337000    108.71857   -7199.5916   -6639.5997   -866.85321     102002.7      46.7237      46.7237      46.7237 
  338000     109.3941   -7253.4079   -6689.9364   -590.96822     102002.7      46.7237      46.7237      46.7237 
  339000    108.29671   -7217.4064   -6659.5873   -855.58815     102002.7      46.7237      46.7237      46.7237 
  340000    112.20233   -7220.1299   -6642.1937   -440.94533     102002.7      46.7237      46.7237      46.7237 
  341000    109.19327   -7215.9666   -6653.5295   -430.81135     102002.7      46.7237      46.7237      46.7237 
  342000     113.3888   -7249.0229   -6664.9754   -653.93193     102002.7      46.7237      46.7237      46.7237 
  343000    115.18849   -7239.5471   -6646.2297   -702.25378     102002.7      46.7237      46.7237      46.7237 
  344000    113.61457   -7221.1619   -6635.9515   -649.68417     102002.7      46.7237      46.7237      46.7237 
  345000    112.83009   -7255.7886   -6674.6189   -514.01057     102002.7      46.7237      46.7237      46.7237 
  346000    110.85829   -7217.2056   -6646.1923   -586.07496     102002.7      46.7237      46.7237      46.7237 
  347000    110.02733   -7207.4716   -6640.7384    -524.6893     102002.7      46.7237      46.7237      46.7237 
  348000    108.42918   -7231.7069   -6673.2055   -636.73835     102002.7      46.7237      46.7237      46.7237 
  349000    113.32036   -7218.5486   -6634.8536    -510.6723     102002.7      46.7237      46.7237      46.7237 
  350000    111.35537   -7228.8929   -6655.3193    -346.4471     102002.7      46.7237      46.7237      46.7237 
  351000    110.74781   -7228.6209   -6658.1766   -716.75842     102002.7      46.7237      46.7237      46.7237 
  352000    113.66998   -7210.7099   -6625.2141   -681.24997     102002.7      46.7237      46.7237      46.7237 
  353000     111.9416   -7235.3472    -6658.754   -529.55747     102002.7      46.7237      46.7237      46.7237 
  354000    113.13362   -7236.1183   -6653.3851   -724.97587     102002.7      46.7237      46.7237      46.7237 
  355000    106.28256    -7224.261   -6676.8165   -787.66765     102002.7      46.7237      46.7237      46.7237 
  356000    110.84998   -7229.3108   -6658.3403   -683.07418     102002.7      46.7237      46.7237      46.7237 
  357000    109.60875   -7226.6164   -6662.0393   -439.57171     102002.7      46.7237      46.7237      46.7237 
  358000    107.96985   -7226.0805   -6669.9451    -558.4685     102002.7      46.7237      46.7237      46.7237 
  359000    109.12679    -7211.517   -6649.4224    -576.7979     102002.7      46.7237      46.7237      46.7237 
  360000    107.90604   -7211.1162   -6655.3095    -575.9506     102002.7      46.7237      46.7237      46.7237 
  361000    109.81694   -7211.9494   -6646.2999   -544.83033     102002.7      46.7237      46.7237      46.7237 
  362000    111.40521   -7217.4869   -6643.6565   -788.35423     102002.7      46.7237      46.7237      46.7237 
  363000    110.93821   -7225.8798   -6654.4549   -930.69429     102002.7      46.7237      46.7237      46.7237 
  364000    105.99027   -7217.5239    -6671.585   -826.18349     102002.7      46.7237      46.7237      46.7237 
  365000    115.04571   -7227.0339   -6634.4519   -910.61439     102002.7      46.7237      46.7237      46.7237 
  366000    108.41912   -7213.2274   -6654.7778   -548.35839     102002.7      46.7237      46.7237      46.7237 
  367000    109.81175   -7222.1468   -6656.5241   -824.54634     102002.7      46.7237      46.7237      46.7237 
  368000    109.64164   -7225.2363   -6660.4897   -704.34858     102002.7      46.7237      46.7237      46.7237 
  369000    108.15044   -7233.0296    -6675.964   -674.63683     102002.7      46.7237      46.7237      46.7237 
  370000    113.61135    -7214.093   -6628.8991     -674.862     102002.7      46.7237      46.7237      46.7237 
  371000    110.13036   -7224.3181   -6657.0542   -657.77574     102002.7      46.7237      46.7237      46.7237 
  372000    109.88568   -7218.9191   -6652.9156   -573.85358     102002.7      46.7237      46.7237      46.7237 
  373000    108.91562   -7236.3264   -6675.3195   -678.41594     102002.7      46.7237      46.7237      46.7237 
  374000     108.6913   -7240.2278   -6680.3763   -495.71327     102002.7      46.7237      46.7237      46.7237 
  375000    109.19529   -7212.6699   -6650.2225   -795.21442     102002.7      46.7237      46.7237      46.7237 
  376000    111.74967   -7207.3255   -6631.7209   -586.61868     102002.7      46.7237      46.7237      46.7237 
  377000    111.10903    -7240.629   -6668.3242   -279.66852     102002.7      46.7237      46.7237      46.7237 
  378000    108.32351   -7222.7677   -6664.8106   -313.98447     102002.7      46.7237      46.7237      46.7237 
  379000    113.10552   -7215.0989   -6632.5105   -408.08142     102002.7      46.7237      46.7237      46.7237 
  380000    109.47479   -7234.8635   -6670.9764    -384.3281     102002.7      46.7237      46.7237      46.7237 
  381000    111.28741   -7207.7786   -6634.5549   -712.40816     102002.7      46.7237      46.7237      46.7237 
  382000    111.62303   -7216.0708   -6641.1185    -530.0934     102002.7      46.7237      46.7237      46.7237 
  383000    109.31286   -7221.1944   -6658.1414   -294.70118     102002.7      46.7237      46.7237      46.7237 
  384000    111.60794   -7230.8383   -6655.9637    -775.4896     102002.7      46.7237      46.7237      46.7237 
  385000    109.45494   -7234.5205   -6670.7357   -590.14214     102002.7      46.7237      46.7237      46.7237 
  386000    112.05738   -7223.0768   -6645.8872   -646.34202     102002.7      46.7237      46.7237      46.7237 
  387000    112.74098   -7236.2842   -6655.5735   -490.87193     102002.7      46.7237      46.7237      46.7237 
  388000    112.27235   -7228.5608   -6650.2639   -549.53646     102002.7      46.7237      46.7237      46.7237 
  389000     105.4046     -7211.62   -6668.6978   -446.64779     102002.7      46.7237      46.7237      46.7237 
  390000    111.38475   -7213.8692   -6640.1442   -655.25723     102002.7      46.7237      46.7237      46.7237 
  391000    111.99798   -7223.1493   -6646.2656   -450.38046     102002.7      46.7237      46.7237      46.7237 
  392000    108.74381   -7234.7783   -6674.6564   -651.15274     102002.7      46.7237      46.7237      46.7237 
  393000    107.83668   -7210.0251   -6654.5757   -533.81152     102002.7      46.7237      46.7237      46.7237 
  394000    113.63551   -7224.7505   -6639.4322   -722.88329     102002.7      46.7237      46.7237      46.7237 
  395000    109.88438   -7228.6316   -6662.6347   -707.55292     102002.7      46.7237      46.7237      46.7237 
  396000    110.50654   -7222.5342   -6653.3327   -457.67009     102002.7      46.7237      46.7237      46.7237 
  397000     107.0423   -7235.6043   -6684.2466   -683.86802     102002.7      46.7237      46.7237      46.7237 
  398000    106.96231   -7217.9552   -6667.0095    -826.3358     102002.7      46.7237      46.7237      46.7237 
  399000    108.51661   -7213.7481   -6654.7964   -569.51402     102002.7      46.7237      46.7237      46.7237 
  400000     109.0302   -7238.4425   -6676.8454   -767.48248     102002.7      46.7237      46.7237      46.7237 
  401000     110.2844   -7213.3269   -6645.2696   -858.34408     102002.7      46.7237      46.7237      46.7237 
  402000    110.07906   -7214.7788   -6647.7792   -665.29407     102002.7      46.7237      46.7237      46.7237 
  403000    111.19016   -7243.2893   -6670.5667   -498.53789     102002.7      46.7237      46.7237      46.7237 
  404000    110.21749   -7233.9035   -6666.1909   -685.78204     102002.7      46.7237      46.7237      46.7237 
  405000    112.01678   -7231.4591   -6654.4786   -466.85461     102002.7      46.7237      46.7237      46.7237 
  406000    109.74327   -7218.8912   -6653.6212   -1070.2003     102002.7      46.7237      46.7237      46.7237 
  407000    114.56503   -7203.9344   -6613.8283   -751.57356     102002.7      46.7237      46.7237      46.7237 
  408000    112.10866   -7236.3088   -6658.8551   -563.72075     102002.7      46.7237      46.7237      46.7237 
  409000    110.00803   -7211.1432   -6644.5094   -674.03051     102002.7      46.7237      46.7237      46.7237 
  410000    112.28561   -7224.3702    -6646.005   -334.24126     102002.7      46.7237      46.7237      46.7237 
  411000    107.28547   -7221.7035   -6669.0932   -566.01199     102002.7      46.7237      46.7237      46.7237 
  412000    111.13451   -7218.9541    -6646.518   -512.30147     102002.7      46.7237      46.7237      46.7237 
  413000     114.3068   -7222.2805   -6633.5045   -644.95925     102002.7      46.7237      46.7237      46.7237 
  414000    110.27525   -7241.9636   -6673.9534   -729.84997     102002.7      46.7237      46.7237      46.7237 
  415000    110.99297     -7218.88    -6647.173    -522.3716     102002.7      46.7237      46.7237      46.7237 
  416000    109.35472   -7225.4424   -6662.1738   -593.26391     102002.7      46.7237      46.7237      46.7237 
  417000    113.23637   -7234.1204    -6650.858   -426.98968     102002.7      46.7237      46.7237      46.7237 
  418000    110.80059   -7235.7679   -6665.0518   -443.23454     102002.7      46.7237      46.7237      46.7237 
  419000    109.26926   -7217.1298   -6654.3014   -342.89803     102002.7      46.7237      46.7237      46.7237 
  420000     107.8604   -7240.3176    -6684.746   -453.26303     102002.7      46.7237      46.7237      46.7237 
  421000    108.96006   -7231.3448    -6670.109   -466.73418     102002.7      46.7237      46.7237      46.7237 
  422000    110.72115   -7223.3102   -6653.0033   -488.90335     102002.7      46.7237      46.7237      46.7237 
  423000     107.2023   -7242.1316   -6689.9497     -304.224     102002.7      46.7237      46.7237      46.7237 
  424000     111.2688    -7244.026   -6670.8983   -859.61665     102002.7      46.7237      46.7237      46.7237 
  425000    111.54386   -7212.3178   -6637.7733   -351.98615     102002.7      46.7237      46.7237      46.7237 
  426000    110.46866   -7230.1806   -6661.1743   -719.64244     102002.7      46.7237      46.7237      46.7237 
  427000     117.4964   -7206.6738   -6601.4687   -611.60135     102002.7      46.7237      46.7237      46.7237 
  428000    109.61668   -7244.4615   -6679.8436   -543.98091     102002.7      46.7237      46.7237      46.7237 
  429000    108.24646   -7203.6367   -6646.0765   -623.12828     102002.7      46.7237      46.7237      46.7237 
  430000    109.52669   -7245.2675   -6681.1131   -341.37953     102002.7      46.7237      46.7237      46.7237 
  431000    109.08555   -7229.4023   -6667.5201    -454.6925     102002.7      46.7237      46.7237      46.7237 
  432000    109.14037   -7233.1809   -6671.0164   -408.76912     102002.7      46.7237      46.7237      46.7237 
  433000     110.6332   -7224.2629    -6654.409   -763.92459     102002.7      46.7237      46.7237      46.7237 
  434000    109.42852   -7214.2841   -6650.6353   -426.97681     102002.7      46.7237      46.7237      46.7237 
  435000    112.97931   -7212.5075   -6630.5692   -538.82901     102002.7      46.7237      46.7237      46.7237 
  436000    109.28022   -7232.6585   -6669.7736   -727.95246     102002.7      46.7237      46.7237      46.7237 
  437000    111.58386   -7222.3985   -6647.6479   -360.62815     102002.7      46.7237      46.7237      46.7237 
  438000    109.90999   -7223.9616   -6657.8328   -674.71635     102002.7      46.7237      46.7237      46.7237 
  439000    109.75931   -7202.7281   -6637.3755   -579.59407     102002.7      46.7237      46.7237      46.7237 
  440000    111.72838   -7219.7627   -6644.2677   -518.81454     102002.7      46.7237      46.7237      46.7237 
  441000    110.67592   -7236.8239     -6666.75   -731.57867     102002.7      46.7237      46.7237      46.7237 
  442000    110.55848   -7221.7088   -6652.2398   -494.89033     102002.7      46.7237      46.7237      46.7237 
  443000    109.83089   -7244.6013     -6678.88   -590.60117     102002.7      46.7237      46.7237      46.7237 
  444000    111.00539   -7221.5936   -6649.8226   -668.28193     102002.7      46.7237      46.7237      46.7237 
  445000    108.63664    -7239.673   -6680.1031   -769.26687     102002.7      46.7237      46.7237      46.7237 
  446000    111.77329   -7230.9817   -6655.2554   -736.47828     102002.7      46.7237      46.7237      46.7237 
  447000     110.5971   -7226.2709    -6656.603    -524.0849     102002.7      46.7237      46.7237      46.7237 
  448000    109.43959   -7243.9445   -6680.2387   -603.39777     102002.7      46.7237      46.7237      46.7237 
  449000    109.20629   -7218.4437   -6655.9396   -472.30362     102002.7      46.7237      46.7237      46.7237 
  450000    109.57775   -7243.3902   -6678.9728   -679.61531     102002.7      46.7237      46.7237      46.7237 
  451000      107.904   -7204.4238   -6648.6276   -652.24548     102002.7      46.7237      46.7237      46.7237 
  452000    108.01064   -7242.5347   -6686.1892    -821.6266     102002.7      46.7237      46.7237      46.7237 
  453000    111.33073   -7242.0808   -6668.6341   -418.19494     102002.7      46.7237      46.7237      46.7237 
  454000    114.83545    -7230.784    -6639.285   -690.52479     102002.7      46.7237      46.7237      46.7237 
  455000    108.13016   -7220.8304   -6663.8693   -779.14289     102002.7      46.7237      46.7237      46.7237 
  456000    112.20741   -7218.6281   -6640.6657     -619.888     102002.7      46.7237      46.7237      46.7237 
  457000    109.29361   -7218.8878   -6655.9339   -648.61256     102002.7      46.7237      46.7237      46.7237 
  458000    107.61304   -7201.7036    -6647.406    -600.0653     102002.7      46.7237      46.7237      46.7237 
  459000    109.99961    -7247.599   -6681.0086    -624.3193     102002.7      46.7237      46.7237      46.7237 
  460000    110.79252   -7230.0412   -6659.3667   -778.40132     102002.7      46.7237      46.7237      46.7237 
  461000    110.86836    -7210.701   -6639.6359   -688.46529     102002.7      46.7237      46.7237      46.7237 
  462000    112.08534   -7228.8069   -6651.4733   -449.61328     102002.7      46.7237      46.7237      46.7237 
  463000    111.27993   -7222.6956   -6649.5105   -457.84198     102002.7      46.7237      46.7237      46.7237 
  464000    109.27346   -7223.9656   -6661.1155   -884.79966     102002.7      46.7237      46.7237      46.7237 
  465000    110.80482   -7213.3533   -6642.6154   -377.24161     102002.7      46.7237      46.7237      46.7237 
  466000    111.60332   -7209.1324   -6634.2816   -665.98604     102002.7      46.7237      46.7237      46.7237 
  467000    110.22704    -7233.454   -6665.6922   -896.16536     102002.7      46.7237      46.7237      46.7237 
  468000    106.45826   -7222.3356   -6673.9862   -717.07986     102002.7      46.7237      46.7237      46.7237 
  469000    111.87716   -7224.5818   -6648.3205   -644.80692     102002.7      46.7237      46.7237      46.7237 
  470000    109.32224    -7233.971   -6670.8697   -601.83062     102002.7      46.7237      46.7237      46.7237 
  471000    113.19181   -7210.8038   -6627.7709   -941.46164     102002.7      46.7237      46.7237      46.7237 
  472000    108.71125    -7233.106   -6673.1517   -324.79712     102002.7      46.7237      46.7237      46.7237 
  473000     111.0921   -7226.1466    -6653.929   -552.56014     102002.7      46.7237      46.7237      46.7237 
  474000    108.84584   -7229.5313   -6668.8838   -655.07892     102002.7      46.7237      46.7237      46.7237 
  475000    110.64624   -7207.7578   -6637.8368   -770.62771     102002.7      46.7237      46.7237      46.7237 
  476000    109.39681   -7207.7654   -6644.2799   -1021.5075     102002.7      46.7237      46.7237      46.7237 
  477000    109.91384   -7233.1623   -6667.0137   -689.75971     102002.7      46.7237      46.7237      46.7237 
  478000    113.22211   -7218.3396   -6635.1506   -619.36305     102002.7      46.7237      46.7237      46.7237 
  479000     111.3525    -7228.525    -6654.966   -601.35886     102002.7      46.7237      46.7237      46.7237 
  480000    106.53639   -7226.3025   -6677.5506   -415.16636     102002.7      46.7237      46.7237      46.7237 
  481000    111.66236   -7209.8643   -6634.7094   -565.14419     102002.7      46.7237      46.7237      46.7237 
  482000    108.48718   -7210.9196   -6652.1195   -968.93266     102002.7      46.7237      46.7237      46.7237 
  483000    107.34707   -7236.1156   -6683.1881   -889.43389     102002.7      46.7237      46.7237      46.7237 
  484000    111.77899   -7225.3391   -6649.5834   -425.49457     102002.7      46.7237      46.7237      46.7237 
  485000    106.32687   -7232.4454   -6684.7727   -463.22401     102002.7      46.7237      46.7237      46.7237 
  486000    110.05473   -7227.8523    -6660.978   -521.48368     102002.7      46.7237      46.7237      46.7237 
  487000    113.40896   -7210.1484    -6625.997   -779.69374     102002.7      46.7237      46.7237      46.7237 
  488000     107.1241   -7208.0542   -6656.2752   -727.59604     102002.7      46.7237      46.7237      46.7237 
  489000    109.25248   -7233.1718   -6670.4297   -550.89813     102002.7      46.7237      46.7237      46.7237 
  490000      110.266   -7195.8166   -6627.8541   -700.40293     102002.7      46.7237      46.7237      46.7237 
  491000    110.19112   -7216.4096   -6648.8328   -315.56584     102002.7      46.7237      46.7237      46.7237 
  492000    106.30163   -7233.0962   -6685.5535   -643.04192     102002.7      46.7237      46.7237      46.7237 
  493000    113.06496   -7234.6132   -6652.2337   -557.70957     102002.7      46.7237      46.7237      46.7237 
  494000    108.75386   -7223.7648   -6663.5911   -476.52166     102002.7      46.7237      46.7237      46.7237 
  495000    105.39244   -7231.6388   -6688.7793   -637.49013     102002.7      46.7237      46.7237      46.7237 
  496000    112.56797   -7225.9304   -6646.1108   -619.17227     102002.7      46.7237      46.7237      46.7237 
  497000    106.02878   -7236.1376   -6690.0004   -384.70569     102002.7      46.7237      46.7237      46.7237 
  498000    106.73704   -7203.6038   -6653.8184    -500.7678     102002.7      46.7237      46.7237      46.7237 
  499000    111.60873   -7226.6107    -6651.732   -590.91756     102002.7      46.7237      46.7237      46.7237 
  500000    111.84196   -7213.7168   -6637.6368   -529.81138     102002.7      46.7237      46.7237      46.7237 
  500501    110.13842   -7231.6508   -6664.3455   -615.25175     102002.7      46.7237      46.7237      46.7237 
Loop time of 564.551 on 24 procs for 500000 steps with 1729 atoms

Performance: 76.521 ns/day, 0.314 hours/ns, 885.659 timesteps/s
99.9% CPU use with 24 MPI tasks x no OpenMP threads

MPI task timing breakdown:
Section |  min time  |  avg time  |  max time  |%varavg| %total
---------------------------------------------------------------
Pair    | 180.65     | 275.09     | 354.09     | 311.3 | 48.73
Bond    | 74.334     | 78.419     | 83.46      |  32.3 | 13.89
Neigh   | 1.4646     | 1.4806     | 1.4914     |   0.8 |  0.26
Comm    | 126.37     | 202.46     | 295.96     | 368.0 | 35.86
Output  | 0.30429    | 0.30458    | 0.30813    |   0.1 |  0.05
Modify  | 3.4607     | 3.8289     | 4.0784     |   8.5 |  0.68
Other   |            | 2.963      |            |       |  0.52

Nlocal:    72.0417 ave 94 max 54 min
Histogram: 2 2 2 4 4 4 2 2 0 2
Nghost:    1980.04 ave 2152 max 1876 min
Histogram: 7 9 0 0 0 0 0 0 0 8
Neighs:    7638.33 ave 11282 max 4005 min
Histogram: 1 3 2 5 3 2 2 0 4 2

Total # of neighbors = 183320
Ave neighs/atom = 106.027
Ave special neighs/atom = 6.66281
Neighbor list builds = 2806
Dangerous builds = 0
Neighbor list info ...
  update every 1 steps, delay 10 steps, check yes
  max neighbors/atom: 2000, page size: 100000
  master list distance cutoff = 16
  ghost atom cutoff = 16
  binsize = 8, bins = 6 6 6
  3 neighbor lists, perpetual/occasional/extra = 3 0 0
  (1) pair buck6d/coul/gauss/dsf, perpetual, skip from (3)
      attributes: half, newton on
      pair build: skip
      stencil: none
      bin: none
  (2) pair lj/cut, perpetual, skip from (3)
      attributes: half, newton on
      pair build: skip
      stencil: none
      bin: none
  (3) neighbor class addition, perpetual
      attributes: half, newton on
      pair build: half/bin/newton
      stencil: half/bin/3d/newton
      bin: standard
Setting up Verlet run ...
  Unit style    : real
  Current step  : 500501
  Time step     : 1
WARNING: Inconsistent image flags (../domain.cpp:786)
Per MPI rank memory allocation (min/avg/max) = 24.13 | 24.46 | 24.57 Mbytes
Step Time TotEng KinEng PotEng E_mol E_pair Temp Pxx Pyy Pzz Pxy Pxz Pyz Cella Cellb Cellc CellAlpha CellBeta CellGamma Volume Press 
  500501       500000   -6664.3455    567.30536   -7231.6508    4300.9096    -11532.56    110.13842   -532.80413    -655.5715   -657.37962   -4.3177902    105.88762    89.629401      46.7237      46.7237      46.7237           90           90           90     102002.7   -615.25175 
  501000       500499   -6669.6382    556.13561   -7225.7738    4300.6232   -11526.397    107.96989   -591.28659   -984.39229   -917.52296   -46.098847   -3.0587809    28.682015      46.7237      46.7237      46.7237           90           90           90     102002.7   -831.06728 
  502000       501499   -6652.7634    573.30275   -7226.0662    4285.4746   -11511.541    111.30277   -677.90553   -415.11295   -197.38819    42.045533    336.16926   -83.354964      46.7237      46.7237      46.7237           90           90           90     102002.7   -430.13555 
  503000       502499   -6650.1958    566.64078   -7216.8366    4310.2552   -11527.092     110.0094   -968.69041   -619.75211   -375.84564   -104.51062    17.201172   -12.644803      46.7237      46.7237      46.7237           90           90           90     102002.7   -654.76272 
  504000       503499   -6678.3018    571.68954   -7249.9913    4268.0016   -11517.993    110.98958   -837.56959    -724.7087    -81.13754    161.33791   -68.483763    23.691655      46.7237      46.7237      46.7237           90           90           90     102002.7   -547.80528 
  505000       504499   -6670.2956    564.56397   -7234.8596    4291.3542   -11526.214     109.6062   -930.28658   -1149.0581   -428.17258    220.55126    25.927141   -38.820784      46.7237      46.7237      46.7237           90           90           90     102002.7   -835.83909 
  506000       505499   -6652.5042    560.37455   -7212.8788     4312.538   -11525.417    108.79285   -777.82857   -751.71568   -368.79962   -50.329858   -25.667916   -50.363638      46.7237      46.7237      46.7237           90           90           90     102002.7   -632.78129 
  507000       506499    -6636.032    585.46744   -7221.4994    4314.1661   -11535.666    113.66446   -763.76835   -263.23975   -342.23567   -350.15792    86.642386   -60.055624      46.7237      46.7237      46.7237           90           90           90     102002.7   -456.41459 
  508000       507499   -6667.4173    559.33341   -7226.7507    4309.5748   -11536.325    108.59072   -845.50763    -768.2779   -602.80104   -231.80501    74.019451   -80.775893      46.7237      46.7237      46.7237           90           90           90     102002.7   -738.86219 
  509000       508499   -6653.2129    570.77355   -7223.9865    4308.3293   -11532.316    110.81175   -805.95693   -940.61426   -805.94203    163.50069   -114.83401    22.263661      46.7237      46.7237      46.7237           90           90           90     102002.7   -850.83774 
  510000       509499   -6681.0152     552.3382   -7233.3534    4290.7087   -11524.062    107.23265   -515.09295   -707.26025   -1110.6031   -107.66972    196.87268    174.11324      46.7237      46.7237      46.7237           90           90           90     102002.7    -777.6521 
  511000       510499   -6652.8459    568.73213    -7221.578     4295.365   -11516.943    110.41542   -694.56031   -705.15444   -773.49198    266.31247    6.6126753    170.49024      46.7237      46.7237      46.7237           90           90           90     102002.7   -724.40225 
  512000       511499   -6635.8985    566.01352    -7201.912    4307.2061   -11509.118    109.88762   -1018.5951   -264.20475   -386.10547    51.456898    12.421069    123.23195      46.7237      46.7237      46.7237           90           90           90     102002.7   -556.30178 
  513000       512499   -6661.9194    546.27367   -7208.1931    4302.8943   -11511.087    106.05526   -400.73607   -291.22362   -392.45692    117.24395   -70.713485    -167.0662      46.7237      46.7237      46.7237           90           90           90     102002.7    -361.4722 
  514000       513499   -6676.6182      559.876   -7236.4942    4277.6745   -11514.169    108.69606   -337.57341   -474.61531   -713.59069    20.772809    11.437394    21.979619      46.7237      46.7237      46.7237           90           90           90     102002.7   -508.59314 
  515000       514499   -6642.7878    579.71035   -7222.4982    4300.3875   -11522.886    112.54676   -911.77967    -229.1249   -396.48745    118.43761   -60.797078   -126.98793      46.7237      46.7237      46.7237           90           90           90     102002.7     -512.464 
  516000       515499    -6671.872    549.18209   -7221.0541    4297.6499   -11518.704    106.61991   -571.69102   -577.95455   -579.02337   -57.100512    32.009407    43.099923      46.7237      46.7237      46.7237           90           90           90     102002.7   -576.22298 
  517000       516499   -6658.4306    558.81759   -7217.2482    4320.6069   -11537.855    108.49058   -677.62448   -1106.3818   -225.63817    19.708539     51.26092    43.627827      46.7237      46.7237      46.7237           90           90           90     102002.7   -669.88148 
  518000       517499    -6674.035    559.60591   -7233.6409    4287.0114   -11520.652    108.64363   -79.448659   -542.18043   -719.58189    89.783554    35.839962   -243.31404      46.7237      46.7237      46.7237           90           90           90     102002.7   -447.07032 
  519000       518499   -6664.3639    560.13895   -7224.5028    4301.0499   -11525.553    108.74711   -668.25249   -546.89831   -486.09204   -166.26134    232.12652    25.690705      46.7237      46.7237      46.7237           90           90           90     102002.7   -567.08095 
  520000       519499   -6633.8553    569.00925   -7202.8645    4327.9088   -11530.773    110.46922   -743.76851   -763.59801   -381.33016    119.93617   -102.68671    5.4849382      46.7237      46.7237      46.7237           90           90           90     102002.7   -629.56556 
  521000       520499   -6651.8924    574.75514   -7226.6475     4293.574   -11520.222    111.58475   -224.46847   -456.22919    -914.0215    9.9873412   -170.79851    146.48565      46.7237      46.7237      46.7237           90           90           90     102002.7   -531.57305 
  522000       521499   -6659.2723    557.07492   -7216.3472     4307.215   -11523.562    108.15225   -601.56484   -411.47254   -847.78262    98.020029    138.19298    180.61833      46.7237      46.7237      46.7237           90           90           90     102002.7   -620.27333 
  523000       522499   -6662.9197    570.85316   -7233.7729    4295.1555   -11528.928     110.8272   -1016.1528   -360.76886   -911.86437   -2.2441008   -261.23955    113.93342      46.7237      46.7237      46.7237           90           90           90     102002.7   -762.92866 
  524000       523499   -6650.2485    573.12523   -7223.3737    4299.2681   -11522.642    111.26831   -138.38434   -592.66891   -599.23965   -110.69121    25.745829   -85.383606      46.7237      46.7237      46.7237           90           90           90     102002.7   -443.43096 
  525000       524499   -6653.0074    574.41155   -7227.4189    4307.0544   -11534.473    111.51804   -375.31855   -947.57699   -647.97622   -38.190266   -82.482603    39.048996      46.7237      46.7237      46.7237           90           90           90     102002.7   -656.95725 
  526000       525499    -6633.768     581.9678   -7215.7358    4310.2708   -11526.007    112.98503   -1091.0013    -795.8425   -799.22891    20.320868      23.5757   -157.73566      46.7237      46.7237      46.7237           90           90           90     102002.7   -895.35756 
  527000       526499   -6643.2564    575.19132   -7218.4478    4321.9917   -11540.439    111.66943   -526.77562   -104.60736   -579.72553   -136.30174    255.21769   -241.30171      46.7237      46.7237      46.7237           90           90           90     102002.7   -403.70284 
  528000       527499   -6677.7845    560.81435   -7238.5989    4289.4779   -11528.077    108.87824   -435.44476   -712.90047   -864.30018    128.07888    105.96115   -69.096829      46.7237      46.7237      46.7237           90           90           90     102002.7    -670.8818 
  529000       528499   -6644.9465    571.53369   -7216.4802    4318.9709   -11535.451    110.95932   -880.07992   -600.30054   -766.98473    91.516661    41.464231   -128.84577      46.7237      46.7237      46.7237           90           90           90     102002.7   -749.12173 
  530000       529499   -6654.2333    569.56051   -7223.7938    4312.3416   -11536.135    110.57624   -1130.3594     -465.124   -931.02321    54.433601   -239.57489   -14.408353      46.7237      46.7237      46.7237           90           90           90     102002.7   -842.16885 
  531000       530499   -6639.8841    579.87794   -7219.7621    4297.0086   -11516.771     112.5793   -391.05927   -636.76043   -397.69997     35.56851    140.67074    46.177477      46.7237      46.7237      46.7237           90           90           90     102002.7   -475.17322 
  532000       531499   -6671.8372    563.61834   -7235.4556    4278.5841    -11514.04    109.42261   -1016.0416   -863.36702   -399.73903   -82.272948    97.079772    16.471405      46.7237      46.7237      46.7237           90           90           90     102002.7    -759.7159 
  533000       532499   -6649.7284    580.83477   -7230.5632    4296.0284   -11526.592    112.76506   -583.70099   -660.13239   -1023.0312    112.58449    204.14074    -26.32394      46.7237      46.7237      46.7237           90           90           90     102002.7   -755.62154 
  534000       533499    -6682.814    546.90451   -7229.7185      4284.83   -11514.548    106.17774   -348.00611   -224.13075   -461.44586    41.735604    85.023988    184.65495      46.7237      46.7237      46.7237           90           90           90     102002.7   -344.52757 
  535000       534499   -6668.2084    571.79009   -7239.9985    4286.7308   -11526.729     111.0091   -568.89827    -503.8584   -592.91129   -63.993015    229.42031   -133.00437      46.7237      46.7237      46.7237           90           90           90     102002.7   -555.22265 
  536000       535499   -6635.9242    584.14018   -7220.0643    4292.4451   -11512.509    113.40679   -858.76565   -332.57031   -323.76953   -88.493359    -110.9844    158.58132      46.7237      46.7237      46.7237           90           90           90     102002.7   -505.03516 
  537000       536499   -6678.7551    570.56438   -7249.3195     4268.578   -11517.897    110.77114   -192.97445   -726.15932   -494.62097   -26.367286   -53.401263   -175.72993      46.7237      46.7237      46.7237           90           90           90     102002.7   -471.25158 
  538000       537499   -6653.1819    575.48673   -7228.6686    4290.0204   -11518.689    111.72678   -676.30725   -1181.2717   -337.34987   -21.391314   -325.61121    87.223198      46.7237      46.7237      46.7237           90           90           90     102002.7   -731.64294 
  539000       538499   -6663.5845    567.59566   -7231.1802    4296.8575   -11528.038    110.19478   -699.47451    -856.9801   -802.83558    69.231503   -6.6167906   -109.97732      46.7237      46.7237      46.7237           90           90           90     102002.7   -786.43006 
  540000       539499   -6664.4134    565.66935   -7230.0827    4305.2691   -11535.352     109.8208   -798.47894   -1273.2172   -766.86411   -14.352151   -84.180507    231.14742      46.7237      46.7237      46.7237           90           90           90     102002.7   -946.18675 
  541000       540499    -6623.807    584.02819   -7207.8352    4321.8249    -11529.66    113.38504   -747.87381   -709.78283   -568.70611   -58.047138   -309.03419    186.07306      46.7237      46.7237      46.7237           90           90           90     102002.7   -675.45425 
  542000       541499   -6675.1667    564.87686   -7240.0436    4282.7508   -11522.794    109.66695   -144.67498   -618.84356    -550.0532   -40.610081    272.08348    111.85146      46.7237      46.7237      46.7237           90           90           90     102002.7   -437.85725 
  543000       542499   -6639.7305    578.86129   -7218.5918    4321.7145   -11540.306    112.38193   -803.63312   -1060.9003   -969.62886   -138.48115    65.647461    54.157233      46.7237      46.7237      46.7237           90           90           90     102002.7   -944.72075 
  544000       543499   -6642.1849    579.22221   -7221.4071    4306.0301   -11527.437      112.452   -200.16552   -615.35734   -556.96307   -105.00379    13.122489    93.433593      46.7237      46.7237      46.7237           90           90           90     102002.7   -457.49531 
  545000       544499    -6682.069    555.98206   -7238.0511    4277.6523   -11515.703    107.94008   -399.98579    -558.9537   -1366.5821   -291.70275   0.99358048    10.795071      46.7237      46.7237      46.7237           90           90           90     102002.7   -775.17386 
  546000       545499   -6639.5842    579.72349   -7219.3077    4305.9491   -11525.257    112.54932   -413.47996   -182.36848   -1111.9816    216.64753   -105.50324     100.3035      46.7237      46.7237      46.7237           90           90           90     102002.7   -569.27667 
  547000       546499   -6662.7974    574.39198   -7237.1894    4302.3297   -11539.519    111.51424   -1085.0446   -819.72478   -296.34444   -64.344741    50.915958    57.079948      46.7237      46.7237      46.7237           90           90           90     102002.7   -733.70461 
  548000       547499   -6658.4397    563.22235    -7221.662    4294.4361   -11516.098    109.34573   -819.50733   -758.63662   -662.92563   -104.30685    -16.32064   -8.1484609      46.7237      46.7237      46.7237           90           90           90     102002.7   -747.02319 
  549000       548499   -6650.5707    561.73414   -7212.3048    4319.7566   -11532.061    109.05681   -881.20711   -970.16789   -659.30183    118.60567    245.55548   -108.78423      46.7237      46.7237      46.7237           90           90           90     102002.7   -836.89228 
  550000       549499   -6693.2514    534.58903   -7227.8404    4298.5673   -11526.408    103.78677   -709.80433   -362.71634   -685.80393   -127.64715    63.045728   -312.65882      46.7237      46.7237      46.7237           90           90           90     102002.7    -586.1082 
  551000       550499   -6654.2923    561.92308   -7216.2154    4311.2955   -11527.511    109.09349   -733.23561   -964.07108   -514.21997    -329.9672   -28.200735    12.911252      46.7237      46.7237      46.7237           90           90           90     102002.7   -737.17555 
  552000       551499   -6632.5884    584.91449   -7217.5029    4301.7292   -11519.232    113.55711   -614.81117   -255.03368   -1082.3759    52.139653    -29.07995   -106.36779      46.7237      46.7237      46.7237           90           90           90     102002.7   -650.74024 
  553000       552499   -6671.6691    562.24489    -7233.914    4300.4979   -11534.412    109.15597   -932.10241   -766.63898   -30.233723   -123.48255   -243.70372   -3.9753714      46.7237      46.7237      46.7237           90           90           90     102002.7   -576.32504 
  554000       553499   -6639.7621    577.25827   -7217.0203     4310.369   -11527.389    112.07071   -844.53934    82.353945   -1052.0131   -23.122777   0.81969999    32.350311      46.7237      46.7237      46.7237           90           90           90     102002.7   -604.73284 
  555000       554499   -6640.9321    570.37937   -7211.3114    4314.6157   -11525.927    110.73522   -817.79588   -348.47373   -859.50557     -201.582   -145.50148    215.73178      46.7237      46.7237      46.7237           90           90           90     102002.7   -675.25839 
[...]
  936000       935499   -6668.8291    549.26506   -7218.0941    4302.4453   -11520.539    106.63602   -590.43907   -335.88931   -182.34699    198.33461    30.256098   -140.52741      46.7237      46.7237      46.7237           90           90           90     102002.7   -369.55846 
  937000       936499   -6650.1511    549.68892     -7199.84     4346.419   -11546.259    106.71831   -602.32875   -245.90604   -755.08548   -185.69288    224.55182    111.93722      46.7237      46.7237      46.7237           90           90           90     102002.7   -534.44009 
  938000       937499   -6637.8274    571.73683   -7209.5642         4309   -11518.564    110.99876   -856.29443   -719.54361   -230.68361   -13.809898   -136.52625   -32.868467      46.7237      46.7237      46.7237           90           90           90     102002.7   -602.17388 
  939000       938499    -6665.324    572.85499    -7238.179    4278.1384   -11516.317    111.21584   -281.97442    -302.0981   -294.84205    101.65918    135.37319   -9.0806764      46.7237      46.7237      46.7237           90           90           90     102002.7   -292.97152 
  940000       939499   -6660.4901    569.78853   -7230.2786    4292.6423   -11522.921    110.62051   -247.12961   -372.38976   -380.44502   -58.772116   -30.479427   -155.82672      46.7237      46.7237      46.7237           90           90           90     102002.7   -333.32146 
  941000       940499   -6655.0443    569.05475   -7224.0991    4299.8187   -11523.918    110.47805   -346.24422   -541.80309   -1102.6686   -173.96752   -207.89597    269.19625      46.7237      46.7237      46.7237           90           90           90     102002.7   -663.57198 
  942000       941499   -6672.4649    564.78295   -7237.2478    4281.2558   -11518.504    109.64871   -705.69336   -925.02174     198.2415   -28.658093    196.14383   -39.643217      46.7237      46.7237      46.7237           90           90           90     102002.7    -477.4912 
  943000       942499   -6645.9547    569.63192   -7215.5866    4305.3085   -11520.895    110.59011   -989.66247   -807.11733   -650.90398     160.3387   -47.132308   -129.28728      46.7237      46.7237      46.7237           90           90           90     102002.7   -815.89459 
  944000       943499   -6676.4188    558.81848   -7235.2373    4283.1918   -11518.429    108.49075   -959.04492   -447.85319   -795.46777    68.546162   -3.9377595   -312.83875      46.7237      46.7237      46.7237           90           90           90     102002.7   -734.12196 
  945000       944499   -6650.1128    561.76899   -7211.8818    4318.0641   -11529.946    109.06357   -627.97176   -875.48062   -578.46952   -3.6612608   -1.6184678   -23.509599      46.7237      46.7237      46.7237           90           90           90     102002.7   -693.97396 
  946000       945499   -6690.7649    549.42686   -7240.1917    4270.9818   -11511.174    106.66743   -673.92607   -387.26252   -498.21644   -67.589862   -4.9245246    18.756941      46.7237      46.7237      46.7237           90           90           90     102002.7   -519.80168 
  947000       946499      -6648.2    561.60229   -7209.8023    4322.5782   -11532.381    109.03121   -840.96422   -584.49492   -511.39943   -99.086367   -90.708135   -20.122231      46.7237      46.7237      46.7237           90           90           90     102002.7   -645.61952 
  948000       947499   -6635.6994    582.18266   -7217.8821    4310.5989   -11528.481    113.02675   -453.53808    -766.9416   -828.72195    -18.03254   -62.552907     107.0678      46.7237      46.7237      46.7237           90           90           90     102002.7   -683.06721 
  949000       948499   -6639.3709    577.39211   -7216.7631    4305.7279   -11522.491    112.09669   -907.78582   -550.19781    -701.0393    82.406518   -149.11551    88.709711      46.7237      46.7237      46.7237           90           90           90     102002.7   -719.67431 
  950000       949499   -6641.2881    570.46795   -7211.7561    4317.3384   -11529.094    110.75242   -525.69829   -689.54446   -631.26036    15.989846   -197.34098   -121.11441      46.7237      46.7237      46.7237           90           90           90     102002.7   -615.50104 
  951000       950499   -6657.3189    556.11146   -7213.4303    4320.4096    -11533.84     107.9652   -512.16028   -657.93235   -565.90802    98.622658   -229.88237    55.090719      46.7237      46.7237      46.7237           90           90           90     102002.7   -578.66688 
  952000       951499   -6639.8857    581.75558   -7221.6413    4305.8017   -11527.443    112.94383   -389.24925   -690.53924   -194.90833    23.036674    183.26396   -136.00001      46.7237      46.7237      46.7237           90           90           90     102002.7   -424.89894 
  953000       952499   -6664.2453    555.18524   -7219.4305    4302.9716   -11522.402    107.78538   -263.90224   -392.45683   -533.21562    41.623922    39.442474   -51.445868      46.7237      46.7237      46.7237           90           90           90     102002.7    -396.5249 
  954000       953499   -6655.6297    561.92511   -7217.5548    4309.5563   -11527.111    109.09388   -594.70702   -819.41355   -773.10246   -93.452694     23.99234   -54.936947      46.7237      46.7237      46.7237           90           90           90     102002.7   -729.07434 
  955000       954499   -6623.8826    568.15239    -7192.035    4349.5242   -11541.559    110.30287   -1069.5739   -591.13832    -705.7802    194.76799    120.28243    249.77909      46.7237      46.7237      46.7237           90           90           90     102002.7   -788.83081 
  956000       955499   -6654.2849    575.74482   -7230.0297     4288.765   -11518.795    111.77688   -1165.4063   -544.80859   -664.27653   -10.617931     105.2584    117.82128      46.7237      46.7237      46.7237           90           90           90     102002.7   -791.49714 
  957000       956499   -6680.5534    549.27569    -7229.829    4307.3179   -11537.147    106.63808   -884.43465   -1100.5716   -1054.6558   -196.16764    224.84713     17.49118      46.7237      46.7237      46.7237           90           90           90     102002.7   -1013.2207 
  958000       957499   -6668.1579    559.69577   -7227.8537    4290.1343   -11517.988    108.66107   -717.55393   -1357.8441   -911.02681   -107.30865   -156.33058    87.537982      46.7237      46.7237      46.7237           90           90           90     102002.7   -995.47494 
  959000       958499   -6664.1919    573.50747   -7237.6994    4277.6399   -11515.339    111.34252   -674.07763   -585.65861    -849.4457   -335.84125    -298.4671    48.430453      46.7237      46.7237      46.7237           90           90           90     102002.7   -703.06065 
  960000       959499    -6640.457      585.061   -7225.5181    4312.4893   -11538.007    113.58556   -770.99796   -462.34049   -801.71827   -135.39718    144.75425    142.53472      46.7237      46.7237      46.7237           90           90           90     102002.7   -678.35224 
  961000       960499   -6655.9459    563.61828   -7219.5641    4292.5056    -11512.07     109.4226   -540.34423   -745.49125   -616.52679   -115.84664    198.59972    -68.68854      46.7237      46.7237      46.7237           90           90           90     102002.7   -634.12076 
  962000       961499   -6658.0234    575.34946   -7233.3729    4302.2557   -11535.629    111.70013   -860.94644   -523.12818   -419.76552    -60.61834   -11.762068    67.731239      46.7237      46.7237      46.7237           90           90           90     102002.7   -601.28005 
  963000       962499   -6673.2568    561.47503   -7234.7318    4297.9336   -11532.665     109.0065   -485.80479   -855.39913   -595.65323   -40.080536    181.73345    99.456935      46.7237      46.7237      46.7237           90           90           90     102002.7   -645.61905 
  964000       963499   -6671.9545    550.34471   -7222.2992    4302.7563   -11525.055    106.84563   -665.65213   -555.05201   -257.53861   -203.65329     118.4097    137.75135      46.7237      46.7237      46.7237           90           90           90     102002.7   -492.74758 
  965000       964499   -6635.4365    569.59971   -7205.0362    4319.2531   -11524.289    110.58385   -470.91869   -546.33616   -754.95574    82.992627   -143.62765    121.61543      46.7237      46.7237      46.7237           90           90           90     102002.7   -590.73686 
  966000       965499   -6659.1861    569.51553   -7228.7016    4303.4577   -11532.159    110.56751   -941.40916   -685.55313   -538.01182    -29.23448    121.76663    40.159356      46.7237      46.7237      46.7237           90           90           90     102002.7   -721.65804 
  967000       966499   -6649.6057    575.60341   -7225.2092    4308.4666   -11533.676    111.74943   -597.41924   -497.13251   -583.79993   -16.970274    75.479699     98.32901      46.7237      46.7237      46.7237           90           90           90     102002.7   -559.45056 
  968000       967499   -6616.9012    573.22052   -7190.1217    4345.3143   -11535.436    111.28681   -725.06592   -880.15443   -699.29696    76.982833    -197.9861    28.212926      46.7237      46.7237      46.7237           90           90           90     102002.7   -768.17244 
  969000       968499   -6659.4805    565.98991   -7225.4704    4287.9614   -11513.432    109.88304   -378.29559   -1178.4023    -486.2858    106.95212     255.5646    174.73536      46.7237      46.7237      46.7237           90           90           90     102002.7   -680.99455 
  970000       969499   -6688.4238    553.32643   -7241.7502      4290.55     -11532.3    107.42451     -654.855   -858.90647   -780.66974    57.756184   -3.1987306    40.030291      46.7237      46.7237      46.7237           90           90           90     102002.7    -764.8104 
  971000       970499   -6637.4365    571.36113   -7208.7976    4326.2027       -11535    110.92582   -709.25278   -799.89739   -869.30663   -210.38292    188.67914     107.3863      46.7237      46.7237      46.7237           90           90           90     102002.7   -792.81893 
  972000       971499   -6664.5879    558.38226   -7222.9701     4309.192   -11532.162    108.40606   -476.42588   -1221.6175   -645.53536   -112.91907    9.9146659   -84.412157      46.7237      46.7237      46.7237           90           90           90     102002.7   -781.19293 
  973000       972499   -6666.2725     574.0667   -7240.3392    4283.2069   -11523.546    111.45109   -599.88216   -948.03252   -660.55588   -144.20464    256.50182    55.700435      46.7237      46.7237      46.7237           90           90           90     102002.7   -736.15685 
  974000       973499   -6655.1867    571.70968   -7226.8964    4297.6046   -11524.501    110.99349   -932.05036   -490.47405   -739.99172   -178.04878   -57.724155    164.90004      46.7237      46.7237      46.7237           90           90           90     102002.7   -720.83871 
  975000       974499   -6683.4193     553.7792   -7237.1985    4286.3744   -11523.573    107.51241    -1028.483   -573.81081   -614.72541   -40.699998    211.60884    153.74108      46.7237      46.7237      46.7237           90           90           90     102002.7   -739.00639 
  976000       975499   -6654.1488    569.10949   -7223.2583    4309.0273   -11532.286    110.48868   -197.14235   -692.74307   -722.11482    147.62373    -48.04066   -112.50821      46.7237      46.7237      46.7237           90           90           90     102002.7   -537.33341 
  977000       976499   -6693.0997    548.11618   -7241.2158    4275.4903   -11516.706    106.41297   -731.92873   -595.06739   -289.26061    244.62629    61.643371      73.2412      46.7237      46.7237      46.7237           90           90           90     102002.7   -538.75224 
  978000       977499   -6671.2379    555.11496   -7226.3529    4296.9434   -11523.296    107.77174   -598.19136   -973.93905   -777.09439    166.66681    273.01061   -215.55904      46.7237      46.7237      46.7237           90           90           90     102002.7   -783.07493 
  979000       978499   -6674.4711    554.11363   -7228.5847    4308.3393   -11536.924    107.57734   -784.19889   -1039.5591   -421.36607    112.37358     218.7296   -59.439753      46.7237      46.7237      46.7237           90           90           90     102002.7   -748.37469 
  980000       979499   -6661.3759    560.70224   -7222.0781    4284.0751   -11506.153    108.85647   -724.06646   -2.0670378   -926.87778   -56.122496   -182.35422   -158.21426      46.7237      46.7237      46.7237           90           90           90     102002.7   -551.00376 
  981000       980499   -6649.6136    576.28915   -7225.9027    4300.0682   -11525.971    111.88256   -694.38507   -836.91257    23.684646    171.48758    19.336797   -122.14506      46.7237      46.7237      46.7237           90           90           90     102002.7   -502.53767 
  982000       981499   -6668.7522    565.04108   -7233.7932    4312.2064       -11546    109.69883   -1155.2371   -393.23669   -1073.7537    21.283598    142.38411   -239.15088      46.7237      46.7237      46.7237           90           90           90     102002.7   -874.07584 
  983000       982499   -6659.1557    572.59466   -7231.7504    4285.7419   -11517.492     111.1653   -562.68057   -598.54205    -586.2583   -133.21904   -211.05063    98.722788      46.7237      46.7237      46.7237           90           90           90     102002.7   -582.49364 
  984000       983499   -6624.9312    588.94866   -7213.8799    4311.6948   -11525.575    114.34032    -551.5814    -553.1134   -673.00114   -132.39721   -151.18904   -94.365411      46.7237      46.7237      46.7237           90           90           90     102002.7   -592.56531 
  985000       984499   -6670.4462     550.1382   -7220.5844     4318.838   -11539.422    106.80554   -876.01162   -756.71144   -476.82481    282.76749     148.9869   -24.781375      46.7237      46.7237      46.7237           90           90           90     102002.7   -703.18263 
  986000       985499   -6656.3775    565.85837   -7222.2359    4294.1122   -11516.348     109.8575   -344.03537      -541.75   -1147.7569   -122.64836   -85.879605    191.16742      46.7237      46.7237      46.7237           90           90           90     102002.7   -677.84743 
  987000       986499   -6651.0946    560.76648   -7211.8611    4318.1976   -11530.059    108.86894   -960.69289   -1346.3452   -422.27273    170.94038    29.245253    12.040112      46.7237      46.7237      46.7237           90           90           90     102002.7   -909.77027 
  988000       987499   -6663.3634    563.01347   -7226.3769    4301.3213   -11527.698    109.30518   -248.85589   -594.15072   -798.38931    128.87815   -138.30769    -19.20007      46.7237      46.7237      46.7237           90           90           90     102002.7   -547.13197 
  989000       988499   -6639.2264    574.11597   -7213.3423    4318.8814   -11532.224    111.46065   -720.24751   -978.55059   -682.03925    -15.50161   -145.68625    97.973198      46.7237      46.7237      46.7237           90           90           90     102002.7   -793.61245 
  990000       989499   -6666.7218    567.68965   -7234.4115    4298.8918   -11533.303    110.21303   -839.24642   -421.43684   -206.90232   -180.72283   -23.633264   -210.04976      46.7237      46.7237      46.7237           90           90           90     102002.7   -489.19519 
  991000       990499   -6632.3137    594.06744   -7226.3811    4313.6129   -11539.994    115.33409   -857.68295   -767.45365   -233.20599     155.5993    52.539122   -249.50419      46.7237      46.7237      46.7237           90           90           90     102002.7   -619.44753 
  992000       991499   -6667.4033     573.2281   -7240.6314    4293.8662   -11534.498    111.28828   -696.77866   -853.83479   -966.84551   -75.248931   -64.237914   -269.88349      46.7237      46.7237      46.7237           90           90           90     102002.7   -839.15298 
  993000       992499   -6631.4856    579.36331    -7210.849    4308.9567   -11519.806    112.47939   -801.28372   -699.10481   -717.30198   -191.38356    118.95964   -190.55427      46.7237      46.7237      46.7237           90           90           90     102002.7   -739.23017 
  994000       993499   -6666.7827    559.44659   -7226.2293    4303.0001   -11529.229     108.6127   -431.24115   -988.38493    -561.1625    179.73458    164.71314   -32.614083      46.7237      46.7237      46.7237           90           90           90     102002.7   -660.26286 
  995000       994499   -6660.0468    567.24703   -7227.2938    4309.3838   -11536.678     110.1271   -340.62688   -557.83765   -557.70515     46.62972    112.15437   -127.06885      46.7237      46.7237      46.7237           90           90           90     102002.7   -485.38989 
  996000       995499   -6664.4759    552.69879   -7217.1747    4324.1786   -11541.353    107.30266   -431.18266   -420.16658   -504.67562    81.619893    23.775183    -70.36965      46.7237      46.7237      46.7237           90           90           90     102002.7   -452.00829 
  997000       996499   -6653.3599    566.09157   -7219.4515    4301.4971   -11520.949    109.90277    -377.1213   -268.27132   -771.12271   -180.03958   -244.36984   -127.41802      46.7237      46.7237      46.7237           90           90           90     102002.7   -472.17177 
  998000       997499   -6643.5149    586.87586   -7230.3908    4308.5589    -11538.95     113.9379   -343.28334   -680.01423   -690.81212    71.449141   -41.579773   -58.989838      46.7237      46.7237      46.7237           90           90           90     102002.7   -571.36989 
  999000       998499   -6662.5803    570.72595   -7233.3063     4286.984    -11520.29    110.80251   -413.93453   -813.79806   -123.62334    151.02198    227.30957   -61.563422      46.7237      46.7237      46.7237           90           90           90     102002.7   -450.45198 
 1000000       999499   -6645.2604    575.61731   -7220.8777    4315.0837   -11535.961    111.75213   -1217.1196   -496.31763   -353.17363     186.5556   -141.89826    48.008787      46.7237      46.7237      46.7237           90           90           90     102002.7    -688.8703 
 1000501      1000000   -6632.6549    581.81811    -7214.473    4310.0687   -11524.542    112.95597   -726.00125   -618.02973    -636.9233    156.87846    164.91396   -47.978708      46.7237      46.7237      46.7237           90           90           90     102002.7    -660.3181 
Loop time of 618.16 on 24 procs for 500000 steps with 1729 atoms

Performance: 69.885 ns/day, 0.343 hours/ns, 808.852 timesteps/s
99.9% CPU use with 24 MPI tasks x no OpenMP threads

MPI task timing breakdown:
Section |  min time  |  avg time  |  max time  |%varavg| %total
---------------------------------------------------------------
Pair    | 205.45     | 303.46     | 390.75     | 318.1 | 49.09
Bond    | 76.839     | 82.518     | 89.08      |  41.1 | 13.35
Neigh   | 1.4051     | 1.4221     | 1.434      |   0.9 |  0.23
Comm    | 129.02     | 215.43     | 311.54     | 382.4 | 34.85
Output  | 0.3538     | 0.40475    | 0.4071     |   1.7 |  0.07
Modify  | 11.568     | 11.923     | 12.167     |   4.3 |  1.93
Other   |            | 3.005      |            |       |  0.49

Nlocal:    72.0417 ave 103 max 47 min
Histogram: 2 3 2 4 3 4 0 3 2 1
Nghost:    1962.08 ave 2113 max 1868 min
Histogram: 6 8 2 0 0 0 0 1 3 4
Neighs:    7630.92 ave 12495 max 3460 min
Histogram: 2 2 2 3 6 2 2 3 0 2

Total # of neighbors = 183142
Ave neighs/atom = 105.924
Ave special neighs/atom = 6.66281
Neighbor list builds = 2715
Dangerous builds = 0
Total wall time: 0:19:44
