LAMMPS (30 Mar 2018)
Reading data file ...
  orthogonal box = (0 0 0) to (46.7237 46.7237 46.7237)
  2 by 2 by 4 MPI processor grid
  reading atoms ...
  1832 atoms
  scanning bonds ...
  5 = max bonds/atom
  scanning angles ...
  10 = max angles/atom
  scanning dihedrals ...
  32 = max dihedrals/atom
  scanning impropers ...
  3 = max impropers/atom
  reading bonds ...
  2064 bonds
  reading angles ...
  3696 angles
  reading dihedrals ...
  6240 dihedrals
  reading impropers ...
  1008 impropers
Finding 1-2 1-3 1-4 neighbors ...
  special bond factors lj:   0          0          0         
  special bond factors coul: 0          0          0         
  5 = max # of 1-2 neighbors
  8 = max # of 1-3 neighbors
  20 = max # of 1-4 neighbors
  19 = max # of special neighbors
Finding 1-2 1-3 1-4 neighbors ...
  special bond factors lj:   0          0          1         
  special bond factors coul: 1          1          1         
  5 = max # of 1-2 neighbors
  8 = max # of 1-3 neighbors
  19 = max # of special neighbors
WARNING: Using 'neigh_modify every 1 delay 0 check yes' setting during minimization (../min.cpp:168)
Neighbor list info ...
  update every 1 steps, delay 0 steps, check yes
  max neighbors/atom: 2000, page size: 100000
  master list distance cutoff = 16
  ghost atom cutoff = 16
  binsize = 8, bins = 6 6 6
  3 neighbor lists, perpetual/occasional/extra = 3 0 0
  (1) pair buck6d/coul/gauss/dsf, perpetual, skip from (3)
      attributes: half, newton on
      pair build: skip
      stencil: none
      bin: none
  (2) pair lj/cut, perpetual, skip from (3)
      attributes: half, newton on
      pair build: skip
      stencil: none
      bin: none
  (3) neighbor class addition, perpetual
      attributes: half, newton on
      pair build: half/bin/newton
      stencil: half/bin/3d/newton
      bin: standard
Setting up cg style minimization ...
  Unit style    : real
  Current step  : 0
WARNING: Inconsistent image flags (../domain.cpp:786)
Per MPI rank memory allocation (min/avg/max) = 22.9 | 23.35 | 23.8 Mbytes
Step Temp E_pair E_mol TotEng Press 
       0            0   -11806.582    6482.8914   -5323.6907    6157.7177 
     502            0   -11849.685    3719.2916   -8130.3936   -522.75891 
Loop time of 2.99322 on 16 procs for 502 steps with 1832 atoms

99.8% CPU use with 16 MPI tasks x no OpenMP threads

Minimization stats:
  Stopping criterion = max force evaluations
  Energy initial, next-to-last, final = 
        -5323.69070507     -8130.35432384     -8130.39363885
  Force two-norm initial, final = 2576.64 8.6626
  Force max component initial, final = 152.07 1.35755
  Final line search alpha, max atom move = 0.00475804 0.00645928
  Iterations, force evaluations = 502 1001

MPI task timing breakdown:
Section |  min time  |  avg time  |  max time  |%varavg| %total
---------------------------------------------------------------
Pair    | 1.2707     | 1.6557     | 2.2717     |  18.5 | 55.32
Bond    | 0.28887    | 0.36172    | 0.44506    |   6.6 | 12.08
Neigh   | 0.018068   | 0.018129   | 0.018188   |   0.0 |  0.61
Comm    | 0.24394    | 0.91813    | 1.3149     |  24.7 | 30.67
Output  | 0          | 0          | 0          |   0.0 |  0.00
Modify  | 0          | 0          | 0          |   0.0 |  0.00
Other   |            | 0.03953    |            |       |  1.32

Nlocal:    114.5 ave 130 max 102 min
Histogram: 3 1 1 2 2 2 2 1 0 2
Nghost:    2284.75 ave 2298 max 2270 min
Histogram: 2 0 0 4 2 2 1 1 2 2
Neighs:    11447.7 ave 15937 max 6932 min
Histogram: 1 1 2 4 1 0 1 3 2 1

Total # of neighbors = 183163
Ave neighs/atom = 99.9798
Ave special neighs/atom = 6.28821
Neighbor list builds = 13
Dangerous builds = 0
Neighbor list info ...
  update every 1 steps, delay 10 steps, check yes
  max neighbors/atom: 2000, page size: 100000
  master list distance cutoff = 16
  ghost atom cutoff = 16
  binsize = 8, bins = 6 6 6
  3 neighbor lists, perpetual/occasional/extra = 3 0 0
  (1) pair buck6d/coul/gauss/dsf, perpetual, skip from (3)
      attributes: half, newton on
      pair build: skip
      stencil: none
      bin: none
  (2) pair lj/cut, perpetual, skip from (3)
      attributes: half, newton on
      pair build: skip
      stencil: none
      bin: none
  (3) neighbor class addition, perpetual
      attributes: half, newton on
      pair build: half/bin/newton
      stencil: half/bin/3d/newton
      bin: standard
Setting up Verlet run ...
  Unit style    : real
  Current step  : 502
  Time step     : 1
WARNING: Inconsistent image flags (../domain.cpp:786)
Per MPI rank memory allocation (min/avg/max) = 22.54 | 22.64 | 23 Mbytes
Step Temp PotEng TotEng Press Volume Lx Ly Lz 
     502          130   -8130.3936   -7420.8714   -204.78816     102002.7      46.7237      46.7237      46.7237 
    1000    117.49641   -7519.7089   -6878.4295   -522.39605     102002.7      46.7237      46.7237      46.7237 
    2000    134.91747    -7389.675   -6653.3139   -732.57819     102002.7      46.7237      46.7237      46.7237 
    3000    122.93851    -7375.709   -6704.7274   -761.73543     102002.7      46.7237      46.7237      46.7237 
    4000    126.93101   -7396.3594   -6703.5873   -547.56813     102002.7      46.7237      46.7237      46.7237 
    5000    130.71006   -7369.1066   -6655.7089   -896.30381     102002.7      46.7237      46.7237      46.7237 
    6000    131.20413   -7398.1084   -6682.0142   -654.16497     102002.7      46.7237      46.7237      46.7237 
    7000    126.41291   -7387.2167   -6697.2724   -833.11307     102002.7      46.7237      46.7237      46.7237 
    8000    133.24324   -7371.0634     -6643.84    -703.5073     102002.7      46.7237      46.7237      46.7237 
    9000    133.05384   -7409.8913   -6683.7016   -585.91405     102002.7      46.7237      46.7237      46.7237 
   10000    127.24455   -7392.5407   -6698.0573   -639.82415     102002.7      46.7237      46.7237      46.7237 
   11000    133.35357   -7405.0108   -6677.1853   -639.43762     102002.7      46.7237      46.7237      46.7237 
   12000    128.43582   -7362.8396   -6661.8545   -971.33022     102002.7      46.7237      46.7237      46.7237 
   13000     132.9553   -7417.2349    -6691.583   -778.66299     102002.7      46.7237      46.7237      46.7237 
   14000    129.54209   -7399.2731   -6692.2502   -902.02789     102002.7      46.7237      46.7237      46.7237 
   15000    129.64327   -7382.7199   -6675.1447   -352.40622     102002.7      46.7237      46.7237      46.7237 
   16000    127.88415   -7414.9777   -6717.0035   -478.70399     102002.7      46.7237      46.7237      46.7237 
   17000    129.65182   -7379.2083   -6671.5864   -996.17353     102002.7      46.7237      46.7237      46.7237 
   18000    129.01545   -7401.2092   -6697.0605   -790.88051     102002.7      46.7237      46.7237      46.7237 
   19000    128.67398    -7389.061    -6686.776   -1031.4616     102002.7      46.7237      46.7237      46.7237 
   20000    134.52949   -7413.9203   -6679.6767   -541.01037     102002.7      46.7237      46.7237      46.7237 
   21000    129.63899   -7379.8261   -6672.2743   -1021.2114     102002.7      46.7237      46.7237      46.7237 
   22000    128.42746    -7386.169   -6685.2295   -723.69986     102002.7      46.7237      46.7237      46.7237 
   23000    129.47137   -7405.6379   -6699.0009    -820.5572     102002.7      46.7237      46.7237      46.7237 
   24000    131.91951    -7405.463   -6685.4644   -475.00716     102002.7      46.7237      46.7237      46.7237 
   25000    125.82856     -7420.29   -6733.5349   -904.18871     102002.7      46.7237      46.7237      46.7237 
   26000    130.48516   -7380.1414   -6667.9712   -961.16446     102002.7      46.7237      46.7237      46.7237 
   27000    129.81959   -7397.8649   -6689.3273   -488.06108     102002.7      46.7237      46.7237      46.7237 
   28000    133.51232   -7389.0496   -6660.3576   -909.10736     102002.7      46.7237      46.7237      46.7237 
   29000    125.97747    -7371.196   -6683.6282   -522.97691     102002.7      46.7237      46.7237      46.7237 
   30000    129.82231   -7411.3372   -6702.7848   -798.03407     102002.7      46.7237      46.7237      46.7237 
   31000    131.53536   -7359.9248   -6642.0228    -781.1896     102002.7      46.7237      46.7237      46.7237 
   32000    128.79377   -7406.2842   -6703.3454   -999.24895     102002.7      46.7237      46.7237      46.7237 
   33000    128.54348   -7402.4622   -6700.8895   -581.28636     102002.7      46.7237      46.7237      46.7237 
   34000    129.17232   -7382.5719   -6677.5671   -911.99614     102002.7      46.7237      46.7237      46.7237 
   35000    130.55718   -7395.4059   -6682.8426   -739.87418     102002.7      46.7237      46.7237      46.7237 
   36000    130.04825   -7377.4381   -6667.6526   -268.81551     102002.7      46.7237      46.7237      46.7237 
   37000    127.44465    -7376.593   -6681.0175   -996.72802     102002.7      46.7237      46.7237      46.7237 
   38000    129.66306   -7392.1146   -6684.4313   -945.89641     102002.7      46.7237      46.7237      46.7237 
   39000    131.50176   -7396.9373   -6679.2186   -474.96878     102002.7      46.7237      46.7237      46.7237 
   40000     128.8349   -7392.8404   -6689.6772   -877.85947     102002.7      46.7237      46.7237      46.7237 
   41000    127.03749   -7417.9573   -6724.6041   -973.44197     102002.7      46.7237      46.7237      46.7237 
   42000    132.51561   -7407.7008   -6684.4487   -634.49066     102002.7      46.7237      46.7237      46.7237 
   43000    133.34524   -7398.7918   -6671.0117   -385.51006     102002.7      46.7237      46.7237      46.7237 
   44000    129.39581    -7407.603   -6701.3784   -843.58421     102002.7      46.7237      46.7237      46.7237 
   45000    129.98993    -7396.875   -6687.4078   -426.73405     102002.7      46.7237      46.7237      46.7237 
   46000    131.21242   -7400.9178   -6684.7783   -688.95587     102002.7      46.7237      46.7237      46.7237 
   47000    133.47672     -7403.29   -6674.7923      -667.62     102002.7      46.7237      46.7237      46.7237 
   48000    129.51518   -7417.0013   -6710.1252   -737.09052     102002.7      46.7237      46.7237      46.7237 
   49000    127.33064   -7414.8806   -6719.9274   -842.13625     102002.7      46.7237      46.7237      46.7237 
   50000    133.11778   -7390.9878   -6664.4491   -649.34001     102002.7      46.7237      46.7237      46.7237 
   51000    130.50923   -7391.5562   -6679.2547   -713.35919     102002.7      46.7237      46.7237      46.7237 
   52000     131.9427   -7414.0398   -6693.9146   -663.11804     102002.7      46.7237      46.7237      46.7237 
   53000    126.59679    -7396.785    -6705.837   -881.61414     102002.7      46.7237      46.7237      46.7237 
   54000    132.82284   -7407.6363   -6682.7074   -485.66304     102002.7      46.7237      46.7237      46.7237 
   55000    128.12946   -7415.7514   -6716.4383   -668.87437     102002.7      46.7237      46.7237      46.7237 
   56000    129.95609   -7378.9479   -6669.6653   -655.04797     102002.7      46.7237      46.7237      46.7237 
   57000    127.34413   -7395.4976   -6700.4708   -685.01237     102002.7      46.7237      46.7237      46.7237 
   58000     131.2167   -7403.2161   -6687.0533   -634.59547     102002.7      46.7237      46.7237      46.7237 
   59000    133.19088   -7370.6069   -6643.6693   -396.76868     102002.7      46.7237      46.7237      46.7237 
   60000    132.44404   -7389.4241   -6666.5627   -801.56806     102002.7      46.7237      46.7237      46.7237 
   61000    129.19169   -7411.0951   -6705.9845   -717.65776     102002.7      46.7237      46.7237      46.7237 
   62000    129.52936   -7396.3462   -6689.3926     -769.289     102002.7      46.7237      46.7237      46.7237 
   63000    130.51539   -7396.7423   -6684.4072   -553.08825     102002.7      46.7237      46.7237      46.7237 
   64000    127.10443    -7382.796   -6689.0774   -991.40366     102002.7      46.7237      46.7237      46.7237 
   65000    131.19009   -7378.0985   -6662.0809   -570.69484     102002.7      46.7237      46.7237      46.7237 
   66000    128.83922   -7420.8734   -6717.6866   -497.11172     102002.7      46.7237      46.7237      46.7237 
   67000    129.28155   -7407.2652   -6701.6642   -783.91045     102002.7      46.7237      46.7237      46.7237 
   68000    129.80313   -7389.6297    -6681.182   -739.10493     102002.7      46.7237      46.7237      46.7237 
   69000    124.93359    -7390.688   -6708.8175   -618.76994     102002.7      46.7237      46.7237      46.7237 
   70000    129.40106   -7411.8832   -6705.6299   -787.99653     102002.7      46.7237      46.7237      46.7237 
   71000    128.21779   -7399.4011   -6699.6059   -894.72593     102002.7      46.7237      46.7237      46.7237 
   72000    128.38245    -7413.075   -6712.3812   -956.54408     102002.7      46.7237      46.7237      46.7237 
   73000    130.77554   -7379.2167   -6665.4617   -383.25261     102002.7      46.7237      46.7237      46.7237 
   74000     125.1011   -7387.2525   -6704.4678   -545.96316     102002.7      46.7237      46.7237      46.7237 
   75000    130.42335   -7366.3428     -6654.51   -541.38626     102002.7      46.7237      46.7237      46.7237 
   76000    128.91908   -7396.6549   -6693.0322   -679.26929     102002.7      46.7237      46.7237      46.7237 
   77000    131.17125   -7406.6221   -6690.7073   -510.49146     102002.7      46.7237      46.7237      46.7237 
   78000    129.62062    -7398.302   -6690.8504   -744.70247     102002.7      46.7237      46.7237      46.7237 
   79000    130.21016   -7400.9271   -6690.2578   -670.18616     102002.7      46.7237      46.7237      46.7237 
   80000    132.13594   -7399.5039    -6678.324   -896.39556     102002.7      46.7237      46.7237      46.7237 
   81000    131.56603    -7399.196   -6681.1266   -762.75482     102002.7      46.7237      46.7237      46.7237 
   82000    135.73858   -7396.1738   -6655.3312   -729.23441     102002.7      46.7237      46.7237      46.7237 
   83000    130.25841   -7385.3607   -6674.4281   -1053.2731     102002.7      46.7237      46.7237      46.7237 
   84000    129.24452   -7401.9685   -6696.5696   -807.83929     102002.7      46.7237      46.7237      46.7237 
   85000    130.63631   -7405.0218   -6692.0267   -581.28529     102002.7      46.7237      46.7237      46.7237 
   86000    129.38512   -7383.7822    -6677.616   -596.84913     102002.7      46.7237      46.7237      46.7237 
   87000    128.49669   -7404.2691   -6702.9517   -989.38606     102002.7      46.7237      46.7237      46.7237 
   88000    133.38927   -7385.6225   -6657.6021   -616.33963     102002.7      46.7237      46.7237      46.7237 
   89000    130.83797     -7397.72   -6683.6242   -871.54973     102002.7      46.7237      46.7237      46.7237 
   90000    130.84785   -7385.0294   -6670.8798   -826.38163     102002.7      46.7237      46.7237      46.7237 
   91000    130.56334   -7376.1922   -6663.5954   -689.78299     102002.7      46.7237      46.7237      46.7237 
   92000    128.95463   -7404.3568   -6700.5401   -737.74683     102002.7      46.7237      46.7237      46.7237 
   93000    132.08585   -7394.1769   -6673.2704    -704.5588     102002.7      46.7237      46.7237      46.7237 
   94000     127.1829   -7409.7514   -6715.6046   -632.04123     102002.7      46.7237      46.7237      46.7237 
   95000    132.27654   -7411.1098   -6689.1625   -678.45199     102002.7      46.7237      46.7237      46.7237 
   96000    129.41201   -7382.4949   -6676.1819   -769.79681     102002.7      46.7237      46.7237      46.7237 
   97000    128.83424   -7424.7625   -6721.6028    -570.5035     102002.7      46.7237      46.7237      46.7237 
   98000    128.58554   -7363.1207   -6661.3184   -710.83913     102002.7      46.7237      46.7237      46.7237 
   99000    134.05588   -7390.6336   -6658.9749   -847.55297     102002.7      46.7237      46.7237      46.7237 
  100000    131.08769   -7392.9311   -6677.4724   -723.55502     102002.7      46.7237      46.7237      46.7237 
  101000    126.53172   -7417.0079   -6726.4151   -595.68554     102002.7      46.7237      46.7237      46.7237 
  102000    131.80981     -7393.35   -6673.9501   -889.38817     102002.7      46.7237      46.7237      46.7237 
  103000    129.07356   -7403.7772   -6699.3114   -675.02652     102002.7      46.7237      46.7237      46.7237 
  104000    132.43162   -7399.1907   -6676.3971   -564.83702     102002.7      46.7237      46.7237      46.7237 
  105000    126.45328   -7402.7396   -6712.5749   -775.74883     102002.7      46.7237      46.7237      46.7237 
  106000    129.57636   -7389.5532   -6682.3431    -748.7691     102002.7      46.7237      46.7237      46.7237 
  107000    132.03087   -7413.1601   -6692.5537   -874.18505     102002.7      46.7237      46.7237      46.7237 
  108000    127.27118   -7419.9197    -6725.291   -862.67237     102002.7      46.7237      46.7237      46.7237 
  109000     131.2024   -7380.1814   -6664.0966   -565.86841     102002.7      46.7237      46.7237      46.7237 
  110000    129.19995   -7404.7109   -6699.5553   -513.62857     102002.7      46.7237      46.7237      46.7237 
  111000    130.40666   -7363.2456   -6651.5039   -901.74602     102002.7      46.7237      46.7237      46.7237 
  112000    130.15308   -7419.5625   -6709.2047   -575.47737     102002.7      46.7237      46.7237      46.7237 
  113000    134.84103    -7402.463   -6666.5191   -352.67491     102002.7      46.7237      46.7237      46.7237 
  114000    130.06676   -7393.5024   -6683.6158   -615.08409     102002.7      46.7237      46.7237      46.7237 
  115000    130.86129   -7419.1122   -6704.8892   -655.29068     102002.7      46.7237      46.7237      46.7237 
  116000    133.44099   -7387.9968   -6659.6941   -307.57714     102002.7      46.7237      46.7237      46.7237 
  117000    131.27584   -7408.7075    -6692.222   -639.22114     102002.7      46.7237      46.7237      46.7237 
  118000    131.57522    -7389.871   -6671.7515   -814.88605     102002.7      46.7237      46.7237      46.7237 
  119000    132.83307   -7415.3483   -6690.3636   -849.33964     102002.7      46.7237      46.7237      46.7237 
  120000     131.0449   -7389.6163   -6674.3912   -792.50522     102002.7      46.7237      46.7237      46.7237 
  121000    126.18945   -7386.9845   -6698.2597   -891.65915     102002.7      46.7237      46.7237      46.7237 
  122000    130.22166   -7385.2494   -6674.5174   -625.55049     102002.7      46.7237      46.7237      46.7237 
  123000    127.15812    -7415.823   -6721.8114   -900.29277     102002.7      46.7237      46.7237      46.7237 
  124000     130.3812   -7386.8445   -6675.2418   -498.07129     102002.7      46.7237      46.7237      46.7237 
  125000    124.98764   -7388.0519   -6705.8864   -625.20923     102002.7      46.7237      46.7237      46.7237 
  126000    128.92412   -7387.9878   -6684.3375   -768.74533     102002.7      46.7237      46.7237      46.7237 
  127000    128.39647   -7401.6583   -6700.8879   -573.61771     102002.7      46.7237      46.7237      46.7237 
  128000    131.05444   -7387.0242    -6671.747    -919.2881     102002.7      46.7237      46.7237      46.7237 
  129000    128.92147   -7405.8726   -6702.2369   -714.25919     102002.7      46.7237      46.7237      46.7237 
  130000    129.46214    -7365.493   -6658.9064    -501.2276     102002.7      46.7237      46.7237      46.7237 
  131000    132.47433    -7372.183   -6649.1563   -913.05175     102002.7      46.7237      46.7237      46.7237 
  132000    127.15523   -7387.6606   -6693.6647   -578.33898     102002.7      46.7237      46.7237      46.7237 
  133000    133.20476   -7375.8467   -6648.8334   -857.34461     102002.7      46.7237      46.7237      46.7237 
  134000    131.11794   -7385.2875   -6669.6637   -709.08787     102002.7      46.7237      46.7237      46.7237 
  135000    129.32601   -7423.3339   -6717.4902   -812.86623     102002.7      46.7237      46.7237      46.7237 
  136000    125.85265   -7385.3797   -6698.4932   -1018.6836     102002.7      46.7237      46.7237      46.7237 
  137000    132.55917   -7403.2542   -6679.7644   -507.08994     102002.7      46.7237      46.7237      46.7237 
  138000    128.02834   -7392.8519   -6694.0907    -590.3601     102002.7      46.7237      46.7237      46.7237 
  139000    129.46827    -7375.584   -6668.9639   -655.12223     102002.7      46.7237      46.7237      46.7237 
  140000    129.59952   -7403.2855   -6695.9491   -894.38337     102002.7      46.7237      46.7237      46.7237 
  141000    127.31892   -7389.5815   -6694.6923   -743.76272     102002.7      46.7237      46.7237      46.7237 
  142000    126.55915   -7376.9026   -6686.1601    -959.3091     102002.7      46.7237      46.7237      46.7237 
  143000    129.99336   -7381.0087   -6671.5227   -914.21425     102002.7      46.7237      46.7237      46.7237 
  144000      131.208   -7394.3867   -6678.2714   -636.10728     102002.7      46.7237      46.7237      46.7237 
  145000    134.03772   -7382.6621   -6651.1026   -974.89123     102002.7      46.7237      46.7237      46.7237 
  146000    128.59181   -7399.1888   -6697.3523    -799.6948     102002.7      46.7237      46.7237      46.7237 
  147000    129.87829   -7409.4473   -6700.5894   -957.14382     102002.7      46.7237      46.7237      46.7237 
  148000    131.34015    -7384.641   -6667.8044   -564.27352     102002.7      46.7237      46.7237      46.7237 
  149000    127.21749   -7398.1929   -6703.8572    -985.8801     102002.7      46.7237      46.7237      46.7237 
  150000    132.68059   -7389.0141   -6664.8616   -621.01211     102002.7      46.7237      46.7237      46.7237 
  151000     132.2723   -7388.5792   -6666.6551   -740.34184     102002.7      46.7237      46.7237      46.7237 
  152000    123.87191   -7396.3196   -6720.2437   -579.96604     102002.7      46.7237      46.7237      46.7237 
  153000    132.99937   -7405.2796   -6679.3872   -507.35687     102002.7      46.7237      46.7237      46.7237 
  154000    128.26367    -7378.301   -6678.2554   -710.32865     102002.7      46.7237      46.7237      46.7237 
  155000    134.38669   -7408.2198   -6674.7556   -564.49926     102002.7      46.7237      46.7237      46.7237 
  156000    131.67564   -7365.7454   -6647.0778    -373.0186     102002.7      46.7237      46.7237      46.7237 
  157000    128.22266   -7380.9817     -6681.16   -204.40486     102002.7      46.7237      46.7237      46.7237 
  158000    127.52909   -7367.5569   -6671.5206   -434.37729     102002.7      46.7237      46.7237      46.7237 
  159000    132.54017    -7371.456     -6648.07   -629.79916     102002.7      46.7237      46.7237      46.7237 
  160000    131.66777    -7394.232   -6675.6074   -860.54333     102002.7      46.7237      46.7237      46.7237 
  161000    129.82276   -7397.9045   -6689.3497   -558.69352     102002.7      46.7237      46.7237      46.7237 
  162000    132.79229   -7371.8753   -6647.1131   -661.76384     102002.7      46.7237      46.7237      46.7237 
  163000    130.30022   -7386.8245   -6675.6638   -596.03947     102002.7      46.7237      46.7237      46.7237 
  164000    124.24692   -7399.0049   -6720.8822   -816.22344     102002.7      46.7237      46.7237      46.7237 
  165000     131.1037    -7389.152   -6673.6059   -874.59243     102002.7      46.7237      46.7237      46.7237 
  166000    130.33035   -7411.8478   -6700.5225   -1035.8123     102002.7      46.7237      46.7237      46.7237 
  167000    129.17175   -7380.2798   -6675.2781   -649.81736     102002.7      46.7237      46.7237      46.7237 
  168000    127.86432   -7404.3899   -6706.5239   -868.10256     102002.7      46.7237      46.7237      46.7237 
  169000    133.75321   -7391.1881   -6661.1814   -728.76209     102002.7      46.7237      46.7237      46.7237 
  170000    130.93645   -7375.4641   -6660.8309   -553.44461     102002.7      46.7237      46.7237      46.7237 
  171000    126.90926   -7405.6734     -6713.02   -958.57694     102002.7      46.7237      46.7237      46.7237 
  172000    129.46606   -7416.9606   -6710.3526   -449.18568     102002.7      46.7237      46.7237      46.7237 
  173000    128.31096   -7378.7259   -6678.4222   -846.67225     102002.7      46.7237      46.7237      46.7237 
  174000    130.66889   -7404.7043   -6691.5314   -1015.1806     102002.7      46.7237      46.7237      46.7237 
  175000    129.80591   -7397.6067   -6689.1438   -645.36437     102002.7      46.7237      46.7237      46.7237 
  176000    130.80684    -7384.212   -6670.2861   -1163.4501     102002.7      46.7237      46.7237      46.7237 
  177000    131.63987   -7426.9947   -6708.5223   -737.85233     102002.7      46.7237      46.7237      46.7237 
  178000    130.97952   -7394.4179   -6679.5496   -765.95543     102002.7      46.7237      46.7237      46.7237 
  179000      126.986    -7369.652   -6676.5798   -677.44639     102002.7      46.7237      46.7237      46.7237 
  180000    127.10963   -7388.4656   -6694.7186   -914.54218     102002.7      46.7237      46.7237      46.7237 
  181000    131.90763   -7386.7067   -6666.7729   -838.13852     102002.7      46.7237      46.7237      46.7237 
  182000    129.40478    -7414.454   -6708.1804    -762.5971     102002.7      46.7237      46.7237      46.7237 
  183000    128.46603   -7385.8165   -6684.6665   -538.12961     102002.7      46.7237      46.7237      46.7237 
  184000    129.60285    -7402.604   -6695.2494   -861.88813     102002.7      46.7237      46.7237      46.7237 
  185000    131.56615   -7394.2291    -6676.159   -712.07688     102002.7      46.7237      46.7237      46.7237 
  186000    128.75333   -7408.5333   -6705.8153   -667.10902     102002.7      46.7237      46.7237      46.7237 
  187000    132.56597   -7384.5863   -6661.0594   -988.90327     102002.7      46.7237      46.7237      46.7237 
  188000    129.65392   -7417.8965   -6710.2631   -1081.9335     102002.7      46.7237      46.7237      46.7237 
  189000    127.10134   -7385.9672   -6692.2655   -872.83969     102002.7      46.7237      46.7237      46.7237 
  190000    129.93412   -7398.0268   -6688.8641   -747.19775     102002.7      46.7237      46.7237      46.7237 
  191000    131.35487   -7400.7166   -6683.7997   -1061.2174     102002.7      46.7237      46.7237      46.7237 
  192000    128.77488   -7383.5552   -6680.7195   -900.40392     102002.7      46.7237      46.7237      46.7237 
  193000     129.6638   -7402.1412   -6694.4539   -874.38588     102002.7      46.7237      46.7237      46.7237 
  194000    132.91763   -7376.0965   -6650.6502   -469.76576     102002.7      46.7237      46.7237      46.7237 
  195000    133.53605   -7401.5279   -6672.7064   -787.38797     102002.7      46.7237      46.7237      46.7237 
  196000    132.36082   -7382.0093   -6659.6021   -717.37757     102002.7      46.7237      46.7237      46.7237 
  197000    128.99609     -7359.03    -6654.987   -650.29638     102002.7      46.7237      46.7237      46.7237 
  198000    128.39286    -7403.625   -6702.8744   -851.49644     102002.7      46.7237      46.7237      46.7237 
  199000    131.37435   -7385.9584   -6668.9351   -549.82902     102002.7      46.7237      46.7237      46.7237 
  200000    127.84475   -7381.3979   -6683.6387   -993.95949     102002.7      46.7237      46.7237      46.7237 
  201000    131.69537   -7402.2165   -6683.4412   -769.84337     102002.7      46.7237      46.7237      46.7237 
  202000    126.66572   -7401.7207   -6710.3965   -889.47081     102002.7      46.7237      46.7237      46.7237 
  203000     130.1803   -7404.4311   -6693.9249   -864.70242     102002.7      46.7237      46.7237      46.7237 
  204000     127.8669   -7382.4191   -6684.5391    -1204.938     102002.7      46.7237      46.7237      46.7237 
  205000    127.26701   -7398.0053   -6703.3994   -759.87622     102002.7      46.7237      46.7237      46.7237 
  206000    131.82017   -7389.5368   -6670.0804    -449.3892     102002.7      46.7237      46.7237      46.7237 
  207000    128.26237   -7407.8139   -6707.7754   -747.89596     102002.7      46.7237      46.7237      46.7237 
  208000     127.9068    -7410.785   -6712.6871   -643.32725     102002.7      46.7237      46.7237      46.7237 
  209000    132.13776   -7372.1209    -6650.931   -474.84696     102002.7      46.7237      46.7237      46.7237 
  210000    130.11958   -7391.2039    -6681.029   -664.95159     102002.7      46.7237      46.7237      46.7237 
  211000    127.22418   -7399.6262   -6705.2541    -607.5653     102002.7      46.7237      46.7237      46.7237 
  212000    125.15393   -7385.5594   -6702.4864   -696.98586     102002.7      46.7237      46.7237      46.7237 
  213000     128.9016   -7373.6154   -6670.0881   -754.76441     102002.7      46.7237      46.7237      46.7237 
  214000    135.90229   -7428.3877   -6686.6516    -780.3601     102002.7      46.7237      46.7237      46.7237 
  215000    125.76982   -7372.1717   -6685.7372   -698.56333     102002.7      46.7237      46.7237      46.7237 
  216000    129.09413   -7363.3082   -6658.7301    -694.5168     102002.7      46.7237      46.7237      46.7237 
  217000    129.39918   -7405.8866   -6699.6436   -889.51949     102002.7      46.7237      46.7237      46.7237 
  218000    133.93404   -7348.3253   -6617.3316   -934.71274     102002.7      46.7237      46.7237      46.7237 
  219000     130.3854   -7404.9238   -6693.2981   -693.59748     102002.7      46.7237      46.7237      46.7237 
  220000    124.74751   -7384.7544   -6703.8996    -1050.362     102002.7      46.7237      46.7237      46.7237 
  221000    130.04603   -7369.2527   -6659.4792   -776.71019     102002.7      46.7237      46.7237      46.7237 
  222000      131.612   -7402.5056   -6684.1853   -675.23397     102002.7      46.7237      46.7237      46.7237 
  223000    127.94597   -7399.7785   -6701.4669   -871.45981     102002.7      46.7237      46.7237      46.7237 
  224000    125.93785   -7405.8434   -6718.4918   -734.20939     102002.7      46.7237      46.7237      46.7237 
  225000    130.27542    -7379.515   -6668.4895    -874.1311     102002.7      46.7237      46.7237      46.7237 
  226000    132.15136   -7398.1311   -6676.8671   -751.70649     102002.7      46.7237      46.7237      46.7237 
  227000    128.35513   -7416.3553   -6715.8106      -868.46     102002.7      46.7237      46.7237      46.7237 
  228000    128.54281   -7400.3326   -6698.7635   -847.48104     102002.7      46.7237      46.7237      46.7237 
  229000    131.30768   -7380.1417   -6663.4823   -928.88669     102002.7      46.7237      46.7237      46.7237 
  230000    125.32872   -7377.2879   -6693.2609   -1025.8163     102002.7      46.7237      46.7237      46.7237 
  231000    134.49968   -7381.6698    -6647.589   -747.37531     102002.7      46.7237      46.7237      46.7237 
  232000    132.39123   -7395.5346   -6672.9613    -1016.168     102002.7      46.7237      46.7237      46.7237 
  233000    126.79822    -7395.781   -6703.7337   -1063.6145     102002.7      46.7237      46.7237      46.7237 
  234000      128.859   -7417.6387   -6714.3439   -655.79732     102002.7      46.7237      46.7237      46.7237 
  235000    131.85503   -7400.3853   -6680.7386   -718.54461     102002.7      46.7237      46.7237      46.7237 
  236000    129.40471   -7414.9954   -6708.7222   -677.21507     102002.7      46.7237      46.7237      46.7237 
  237000    130.02085   -7389.4008   -6679.7647   -1001.8184     102002.7      46.7237      46.7237      46.7237 
  238000    130.41198   -7381.8891   -6670.1183   -502.75571     102002.7      46.7237      46.7237      46.7237 
  239000    130.05267   -7390.7572   -6680.9475   -946.38127     102002.7      46.7237      46.7237      46.7237 
  240000     126.5114   -7412.1607   -6721.6788   -704.60417     102002.7      46.7237      46.7237      46.7237 
  241000    130.89206    -7387.526    -6673.135    -653.0165     102002.7      46.7237      46.7237      46.7237 
  242000    128.88572   -7376.7307   -6673.2901   -793.04453     102002.7      46.7237      46.7237      46.7237 
  243000    131.25829   -7400.1873   -6683.7975   -495.72397     102002.7      46.7237      46.7237      46.7237 
  244000    128.46323   -7355.6692   -6654.5345   -749.70721     102002.7      46.7237      46.7237      46.7237 
  245000    128.51878   -7374.3097   -6672.8718   -680.95219     102002.7      46.7237      46.7237      46.7237 
  246000    129.68377   -7399.9422   -6692.1459   -847.46873     102002.7      46.7237      46.7237      46.7237 
  247000    128.99137   -7384.3562    -6680.339    -855.1776     102002.7      46.7237      46.7237      46.7237 
  248000     128.1891   -7406.8116    -6707.173   -1225.2301     102002.7      46.7237      46.7237      46.7237 
  249000    131.38729   -7367.1008   -6650.0069   -896.89074     102002.7      46.7237      46.7237      46.7237 
  250000    127.91137   -7402.4229   -6704.3001   -722.58872     102002.7      46.7237      46.7237      46.7237 
  251000    127.02372   -7422.5542   -6729.2761   -769.91279     102002.7      46.7237      46.7237      46.7237 
  252000    128.60102   -7386.9551   -6685.0683   -1124.6836     102002.7      46.7237      46.7237      46.7237 
  253000    131.51276   -7404.6916   -6686.9129   -678.51321     102002.7      46.7237      46.7237      46.7237 
  254000    126.80274   -7384.4292   -6692.3572   -821.67198     102002.7      46.7237      46.7237      46.7237 
  255000    131.88595    -7407.115   -6687.2995   -706.18151     102002.7      46.7237      46.7237      46.7237 
  256000    132.36827   -7407.9278   -6685.4798   -944.42072     102002.7      46.7237      46.7237      46.7237 
  257000    126.28405   -7407.6745   -6718.4334   -750.34048     102002.7      46.7237      46.7237      46.7237 
  258000    128.43846   -7395.7102   -6694.7106   -470.50746     102002.7      46.7237      46.7237      46.7237 
  259000    129.27284   -7387.1253   -6681.5719    -426.7599     102002.7      46.7237      46.7237      46.7237 
  260000    126.40586   -7392.0556   -6702.1497   -685.97468     102002.7      46.7237      46.7237      46.7237 
  261000    130.27964   -7426.8357   -6715.7872   -281.44123     102002.7      46.7237      46.7237      46.7237 
  262000    129.72663   -7368.1167   -6660.0865   -865.32582     102002.7      46.7237      46.7237      46.7237 
  263000    130.04839    -7394.665   -6684.8787   -655.01291     102002.7      46.7237      46.7237      46.7237 
  264000    130.27333   -7398.8517   -6687.8377   -747.38997     102002.7      46.7237      46.7237      46.7237 
  265000    134.77715   -7393.8644   -6658.2692   -653.23143     102002.7      46.7237      46.7237      46.7237 
  266000    129.34144   -7389.6958   -6683.7679   -903.86143     102002.7      46.7237      46.7237      46.7237 
  267000    125.15477    -7393.448   -6710.3704   -842.05507     102002.7      46.7237      46.7237      46.7237 
  268000    132.34265   -7407.4701    -6685.162   -451.65682     102002.7      46.7237      46.7237      46.7237 
  269000    126.25104   -7394.3042   -6705.2433   -738.17292     102002.7      46.7237      46.7237      46.7237 
  270000    132.61017   -7385.7913   -6662.0231   -1017.2525     102002.7      46.7237      46.7237      46.7237 
  271000    128.83452    -7397.556   -6694.3948   -540.61376     102002.7      46.7237      46.7237      46.7237 
  272000    130.28819    -7392.654   -6681.5589   -556.96212     102002.7      46.7237      46.7237      46.7237 
  273000    132.72711   -7402.1524    -6677.746   -554.66258     102002.7      46.7237      46.7237      46.7237 
  274000    127.43778   -7392.8412   -6697.3033   -571.56556     102002.7      46.7237      46.7237      46.7237 
  275000    135.45673    -7369.093   -6629.7887   -769.11889     102002.7      46.7237      46.7237      46.7237 
  276000    127.97659    -7386.399   -6687.9202   -634.61056     102002.7      46.7237      46.7237      46.7237 
  277000    127.76732   -7391.5782   -6694.2416   -709.41839     102002.7      46.7237      46.7237      46.7237 
  278000    130.11285   -7370.1004   -6659.9622   -935.29302     102002.7      46.7237      46.7237      46.7237 
  279000    130.74644    -7385.411   -6671.8148   -905.62951     102002.7      46.7237      46.7237      46.7237 
  280000    126.71634   -7404.7468   -6713.1464   -778.05718     102002.7      46.7237      46.7237      46.7237 
  281000    130.12556   -7385.4934   -6675.2859   -720.96633     102002.7      46.7237      46.7237      46.7237 
  282000    131.51775   -7388.2296   -6670.4237    -713.5844     102002.7      46.7237      46.7237      46.7237 
  283000    129.08524   -7421.0966    -6716.567    -870.1919     102002.7      46.7237      46.7237      46.7237 
  284000    129.96267   -7405.1764    -6695.858   -665.55827     102002.7      46.7237      46.7237      46.7237 
  285000    131.46706   -7442.0589   -6724.5297   -480.75487     102002.7      46.7237      46.7237      46.7237 
  286000    125.93342   -7397.5146   -6710.1872   -568.80395     102002.7      46.7237      46.7237      46.7237 
  287000    132.40367   -7377.3765   -6654.7354   -601.61342     102002.7      46.7237      46.7237      46.7237 
  288000     131.2541   -7405.1095   -6688.7426   -542.14766     102002.7      46.7237      46.7237      46.7237 
  289000    126.94674     -7373.62   -6680.7621   -562.89778     102002.7      46.7237      46.7237      46.7237 
  290000    130.68108   -7406.9191   -6693.6796   -674.96042     102002.7      46.7237      46.7237      46.7237 
  291000    128.58883   -7412.1347   -6710.3145   -464.08886     102002.7      46.7237      46.7237      46.7237 
  292000    132.25949   -7420.3255   -6698.4714   -814.65316     102002.7      46.7237      46.7237      46.7237 
  293000     132.9855   -7360.3484   -6634.5317   -610.51216     102002.7      46.7237      46.7237      46.7237 
  294000    129.33807   -7398.7667   -6692.8572   -648.24775     102002.7      46.7237      46.7237      46.7237 
  295000     128.6114   -7397.6644    -6695.721   -609.29183     102002.7      46.7237      46.7237      46.7237 
  296000    131.11842   -7389.7474    -6674.121   -604.40411     102002.7      46.7237      46.7237      46.7237 
  297000    130.00989   -7372.3232    -6662.747   -655.11636     102002.7      46.7237      46.7237      46.7237 
  298000    130.52925    -7400.459   -6688.0483   -625.02509     102002.7      46.7237      46.7237      46.7237 
  299000    134.92831    -7377.776   -6641.3557   -490.10232     102002.7      46.7237      46.7237      46.7237 
  300000    132.73797   -7404.7743   -6680.3086   -740.24495     102002.7      46.7237      46.7237      46.7237 
  301000    128.06586   -7395.4713   -6696.5053   -652.63007     102002.7      46.7237      46.7237      46.7237 
  302000    132.36761   -7376.1916   -6653.7473   -908.09003     102002.7      46.7237      46.7237      46.7237 
  303000    128.66396   -7380.4992    -6678.269   -683.69809     102002.7      46.7237      46.7237      46.7237 
  304000    128.09983   -7411.3904   -6712.2391   -738.92356     102002.7      46.7237      46.7237      46.7237 
  305000    130.92846   -7387.6784   -6673.0888   -667.07487     102002.7      46.7237      46.7237      46.7237 
  306000    127.67897    -7378.262   -6681.4077    -624.3761     102002.7      46.7237      46.7237      46.7237 
  307000    129.16456   -7385.6351   -6680.6725   -645.91809     102002.7      46.7237      46.7237      46.7237 
  308000    127.72019   -7382.8977   -6685.8184   -704.53204     102002.7      46.7237      46.7237      46.7237 
  309000    132.72056   -7375.1332   -6650.7625   -620.15385     102002.7      46.7237      46.7237      46.7237 
  310000     131.8522     -7423.28   -6703.6487    -345.1301     102002.7      46.7237      46.7237      46.7237 
  311000    132.65545   -7427.7174   -6703.7021   -365.02568     102002.7      46.7237      46.7237      46.7237 
  312000    131.29195   -7396.9347   -6680.3612   -876.58787     102002.7      46.7237      46.7237      46.7237 
  313000    129.87277   -7406.4367   -6697.6089   -757.07993     102002.7      46.7237      46.7237      46.7237 
  314000    131.58702   -7407.9203   -6689.7363   -778.44852     102002.7      46.7237      46.7237      46.7237 
  315000    132.49176   -7394.1729    -6671.051   -806.35316     102002.7      46.7237      46.7237      46.7237 
  316000    134.31212   -7404.7055   -6671.6483   -880.71396     102002.7      46.7237      46.7237      46.7237 
  317000    124.68844   -7387.4802   -6706.9477   -551.72757     102002.7      46.7237      46.7237      46.7237 
  318000    132.92676   -7390.1174   -6664.6213   -781.78262     102002.7      46.7237      46.7237      46.7237 
  319000    131.48684   -7409.1495   -6691.5123   -598.16689     102002.7      46.7237      46.7237      46.7237 
  320000    129.15345   -7398.4462   -6693.5443   -638.97017     102002.7      46.7237      46.7237      46.7237 
  321000      132.516   -7404.7356   -6681.4814   -715.26941     102002.7      46.7237      46.7237      46.7237 
  322000    129.92219   -7391.9447   -6682.8472   -808.08123     102002.7      46.7237      46.7237      46.7237 
  323000    130.08378   -7429.7697   -6719.7902   -747.78733     102002.7      46.7237      46.7237      46.7237 
  324000     128.0828   -7396.0258   -6696.9674   -510.05216     102002.7      46.7237      46.7237      46.7237 
  325000    129.02083     -7388.06    -6683.882   -781.26733     102002.7      46.7237      46.7237      46.7237 
  326000    129.09065   -7400.3981    -6695.839   -585.20425     102002.7      46.7237      46.7237      46.7237 
  327000    125.36953   -7390.3615   -6706.1118   -646.63746     102002.7      46.7237      46.7237      46.7237 
  328000    131.57162   -7394.4352   -6676.3353   -947.49395     102002.7      46.7237      46.7237      46.7237 
  329000    128.16266   -7413.5165   -6714.0222   -682.36358     102002.7      46.7237      46.7237      46.7237 
  330000    129.21219   -7383.1064   -6677.8839    -906.2277     102002.7      46.7237      46.7237      46.7237 
  331000    129.23355   -7408.2152   -6702.8762   -955.39215     102002.7      46.7237      46.7237      46.7237 
  332000    129.81861    -7369.879   -6661.3468   -831.01581     102002.7      46.7237      46.7237      46.7237 
  333000    130.51508   -7398.3805    -6686.047   -914.64017     102002.7      46.7237      46.7237      46.7237 
  334000    128.00978   -7405.2064   -6706.5465   -894.45539     102002.7      46.7237      46.7237      46.7237 
  335000    130.13616   -7394.4761   -6684.2108   -592.66694     102002.7      46.7237      46.7237      46.7237 
  336000    131.24912   -7363.0859   -6646.7461   -801.81867     102002.7      46.7237      46.7237      46.7237 
  337000    128.43312   -7397.3214    -6696.351   -849.67976     102002.7      46.7237      46.7237      46.7237 
  338000    125.29891   -7396.3487   -6712.4844   -622.81041     102002.7      46.7237      46.7237      46.7237 
  339000    128.91893   -7378.4904   -6674.8685    -695.1748     102002.7      46.7237      46.7237      46.7237 
  340000    129.01192   -7378.8253   -6674.6958   -586.12416     102002.7      46.7237      46.7237      46.7237 
  341000    127.97635   -7381.1478   -6682.6704   -892.29707     102002.7      46.7237      46.7237      46.7237 
  342000    131.52898   -7388.8699   -6671.0027   -850.95939     102002.7      46.7237      46.7237      46.7237 
  343000     129.3988   -7410.9745   -6704.7335   -621.51335     102002.7      46.7237      46.7237      46.7237 
  344000    130.30258   -7414.4128   -6703.2392   -948.67657     102002.7      46.7237      46.7237      46.7237 
  345000    129.21764   -7390.2331    -6684.981   -581.79007     102002.7      46.7237      46.7237      46.7237 
  346000    131.98578   -7375.7854    -6655.425   -773.59255     102002.7      46.7237      46.7237      46.7237 
  347000    129.07451   -7413.2343   -6708.7633   -1029.6876     102002.7      46.7237      46.7237      46.7237 
  348000    129.68106   -7392.5169   -6684.7354   -399.36508     102002.7      46.7237      46.7237      46.7237 
  349000    129.10892   -7415.0049   -6710.3461   -1008.0521     102002.7      46.7237      46.7237      46.7237 
  350000    131.74098   -7388.3025   -6669.2783   -809.36525     102002.7      46.7237      46.7237      46.7237 
  351000    128.19235   -7391.2954   -6691.6391   -701.54906     102002.7      46.7237      46.7237      46.7237 
  352000    134.49879   -7407.6138   -6673.5378   -710.41712     102002.7      46.7237      46.7237      46.7237 
  353000    129.41544   -7383.6739   -6677.3422   -832.70768     102002.7      46.7237      46.7237      46.7237 
  354000    129.98665   -7424.1151   -6714.6657   -451.41888     102002.7      46.7237      46.7237      46.7237 
  355000    131.39394   -7389.4018   -6672.2716   -513.96489     102002.7      46.7237      46.7237      46.7237 
  356000    130.37613    -7381.543   -6669.9679   -601.90313     102002.7      46.7237      46.7237      46.7237 
  357000    125.68787   -7391.3124   -6705.3252   -365.25075     102002.7      46.7237      46.7237      46.7237 
  358000    129.27253   -7377.1221   -6671.5703   -700.63687     102002.7      46.7237      46.7237      46.7237 
  359000    132.57151   -7401.3033   -6677.7461   -692.95796     102002.7      46.7237      46.7237      46.7237 
  360000      130.116   -7385.3404    -6675.185   -547.11497     102002.7      46.7237      46.7237      46.7237 
  361000    126.49896   -7414.0502   -6723.6362   -611.14417     102002.7      46.7237      46.7237      46.7237 
  362000    127.84396   -7395.0094   -6697.2545   -635.44065     102002.7      46.7237      46.7237      46.7237 
  363000    128.30704   -7380.8627   -6680.5805     -631.359     102002.7      46.7237      46.7237      46.7237 
  364000    129.69271   -7371.9643   -6664.1193   -527.29817     102002.7      46.7237      46.7237      46.7237 
  365000    128.35741   -7402.4845   -6701.9273   -509.21535     102002.7      46.7237      46.7237      46.7237 
  366000    129.73247   -7398.9711    -6690.909   -520.29906     102002.7      46.7237      46.7237      46.7237 
  367000    130.98102   -7398.9154    -6684.039   -552.76133     102002.7      46.7237      46.7237      46.7237 
  368000    128.80337   -7394.6238   -6691.6326   -698.24477     102002.7      46.7237      46.7237      46.7237 
  369000    131.36212   -7407.6165     -6690.66   -668.91229     102002.7      46.7237      46.7237      46.7237 
  370000    135.73317   -7381.1779   -6640.3649   -567.89332     102002.7      46.7237      46.7237      46.7237 
  371000    134.25204   -7399.8557   -6667.1265   -298.70999     102002.7      46.7237      46.7237      46.7237 
  372000    131.04661   -7396.2006   -6680.9661   -422.22969     102002.7      46.7237      46.7237      46.7237 
  373000    128.98342    -7380.765   -6676.7911   -621.84357     102002.7      46.7237      46.7237      46.7237 
  374000     128.1892   -7405.5036   -6705.8645   -597.57918     102002.7      46.7237      46.7237      46.7237 
  375000    129.79184   -7400.4768   -6692.0907   -817.71427     102002.7      46.7237      46.7237      46.7237 
  376000    126.35163   -7402.5429   -6712.9329   -388.19822     102002.7      46.7237      46.7237      46.7237 
  377000    130.17645   -7378.0851   -6667.5998   -682.20013     102002.7      46.7237      46.7237      46.7237 
  378000    131.15695   -7401.0281   -6685.1914   -544.05434     102002.7      46.7237      46.7237      46.7237 
  379000    129.79028   -7396.3607   -6687.9831   -687.86128     102002.7      46.7237      46.7237      46.7237 
  380000    131.72789   -7368.6264   -6649.6736   -730.90326     102002.7      46.7237      46.7237      46.7237 
  381000     127.4818   -7390.3877   -6694.6095    -532.0049     102002.7      46.7237      46.7237      46.7237 
  382000    124.95078   -7395.4362    -6713.472   -725.75231     102002.7      46.7237      46.7237      46.7237 
  383000    131.85882   -7395.3214    -6675.654   -415.54881     102002.7      46.7237      46.7237      46.7237 
  384000    130.27621   -7381.1976   -6670.1679   -1292.1763     102002.7      46.7237      46.7237      46.7237 
  385000    127.46847   -7383.8741   -6688.1687   -770.51328     102002.7      46.7237      46.7237      46.7237 
  386000    129.55937   -7376.9307   -6669.8134   -930.74446     102002.7      46.7237      46.7237      46.7237 
  387000    129.03901    -7371.506   -6667.2287    -875.8695     102002.7      46.7237      46.7237      46.7237 
  388000    120.69115   -7429.3728    -6770.657    -513.6453     102002.7      46.7237      46.7237      46.7237 
  389000    131.94527   -7387.6387   -6667.4994     -328.237     102002.7      46.7237      46.7237      46.7237 
  390000    129.38194   -7407.5092   -6701.3603    -493.2824     102002.7      46.7237      46.7237      46.7237 
  391000    130.80176   -7418.6349   -6704.7368   -757.25918     102002.7      46.7237      46.7237      46.7237 
  392000    131.12378   -7391.4326    -6675.777   -670.87801     102002.7      46.7237      46.7237      46.7237 
  393000    124.91952    -7416.617   -6734.8233   -552.15038     102002.7      46.7237      46.7237      46.7237 
  394000    129.47606     -7379.46   -6672.7973   -705.82517     102002.7      46.7237      46.7237      46.7237 
  395000    127.20372   -7398.4657   -6704.2052   -802.25528     102002.7      46.7237      46.7237      46.7237 
  396000    128.21778   -7403.3096   -6703.5145   -669.09461     102002.7      46.7237      46.7237      46.7237 
  397000    124.32004   -7374.6555   -6696.1337   -657.90486     102002.7      46.7237      46.7237      46.7237 
  398000    131.90901   -7383.2454   -6663.3041   -909.72675     102002.7      46.7237      46.7237      46.7237 
  399000    128.34129   -7413.4881   -6713.0189   -783.97018     102002.7      46.7237      46.7237      46.7237 
  400000    128.42566   -7384.5225   -6683.5928   -717.56445     102002.7      46.7237      46.7237      46.7237 
  401000    129.07288    -7405.889   -6701.4269   -745.95549     102002.7      46.7237      46.7237      46.7237 
  402000    130.29654   -7413.4471   -6702.3065    -671.7455     102002.7      46.7237      46.7237      46.7237 
  403000      129.877   -7363.7093   -6654.8584   -854.90547     102002.7      46.7237      46.7237      46.7237 
  404000    131.41425   -7398.6453   -6681.4043   -613.24376     102002.7      46.7237      46.7237      46.7237 
  405000    126.03983   -7401.3908   -6713.4826   -964.97349     102002.7      46.7237      46.7237      46.7237 
  406000    132.69312   -7393.6261   -6669.4052   -611.65482     102002.7      46.7237      46.7237      46.7237 
  407000    131.66413    -7404.324   -6685.7192   -493.42446     102002.7      46.7237      46.7237      46.7237 
  408000    128.76435   -7359.0673   -6656.2891   -785.91046     102002.7      46.7237      46.7237      46.7237 
  409000    128.70551   -7408.7113   -6706.2543   -322.50962     102002.7      46.7237      46.7237      46.7237 
  410000    128.02845    -7391.235   -6692.4733    -587.8725     102002.7      46.7237      46.7237      46.7237 
  411000    130.01075   -7390.2624   -6680.6815   -779.99575     102002.7      46.7237      46.7237      46.7237 
  412000    132.65679    -7403.957   -6679.9344   -662.47893     102002.7      46.7237      46.7237      46.7237 
  413000     126.8297   -7406.7171    -6714.498   -830.92197     102002.7      46.7237      46.7237      46.7237 
  414000    131.99228   -7402.3091   -6681.9133   -908.00568     102002.7      46.7237      46.7237      46.7237 
  415000    123.82015   -7393.9765   -6718.1831    -619.6666     102002.7      46.7237      46.7237      46.7237 
  416000    130.78765   -7397.5383   -6683.7173   -273.40911     102002.7      46.7237      46.7237      46.7237 
  417000    132.40525   -7409.1745   -6686.5248   -790.08732     102002.7      46.7237      46.7237      46.7237 
  418000    129.12148   -7402.8662   -6698.1388   -524.96612     102002.7      46.7237      46.7237      46.7237 
  419000    130.72743   -7382.8705   -6669.3781    -753.0658     102002.7      46.7237      46.7237      46.7237 
  420000    125.51046   -7405.2752   -6720.2563   -1057.1331     102002.7      46.7237      46.7237      46.7237 
  421000    131.04914   -7397.5895   -6682.3412   -556.04952     102002.7      46.7237      46.7237      46.7237 
  422000    130.57177   -7401.8807   -6689.2379   -716.50669     102002.7      46.7237      46.7237      46.7237 
  423000    134.71663   -7422.6926   -6687.4277   -717.61496     102002.7      46.7237      46.7237      46.7237 
  424000    132.08085   -7411.3649   -6690.4858     -726.998     102002.7      46.7237      46.7237      46.7237 
  425000     125.6239   -7409.7653   -6724.1273   -1039.7429     102002.7      46.7237      46.7237      46.7237 
  426000    128.79511   -7398.1101    -6695.164   -931.53622     102002.7      46.7237      46.7237      46.7237 
  427000    128.30129    -7373.679   -6673.4281   -984.11277     102002.7      46.7237      46.7237      46.7237 
  428000    129.41224   -7385.9221   -6679.6077   -914.04499     102002.7      46.7237      46.7237      46.7237 
  429000    130.57121   -7378.2269   -6665.5871   -1012.5441     102002.7      46.7237      46.7237      46.7237 
  430000    128.96956   -7407.3886   -6703.4904    -607.4941     102002.7      46.7237      46.7237      46.7237 
  431000    130.56374   -7373.1573   -6660.5582   -564.16519     102002.7      46.7237      46.7237      46.7237 
  432000      129.543   -7398.6051   -6691.5771   -799.69858     102002.7      46.7237      46.7237      46.7237 
  433000     125.9248   -7398.0677   -6710.7873   -720.77964     102002.7      46.7237      46.7237      46.7237 
  434000    129.55305    -7392.884   -6685.8011   -1069.2083     102002.7      46.7237      46.7237      46.7237 
  435000    129.12912   -7410.9823   -6706.2132   -718.39544     102002.7      46.7237      46.7237      46.7237 
  436000    129.42312   -7388.4697   -6682.0959   -664.78585     102002.7      46.7237      46.7237      46.7237 
  437000    129.63722   -7402.9603   -6695.4181   -635.26418     102002.7      46.7237      46.7237      46.7237 
  438000    127.03929   -7399.9129   -6706.5498   -878.92835     102002.7      46.7237      46.7237      46.7237 
  439000     129.5504    -7402.511   -6695.4427   -547.01929     102002.7      46.7237      46.7237      46.7237 
  440000    130.38488   -7379.9707   -6668.3479   -933.91221     102002.7      46.7237      46.7237      46.7237 
  441000    130.46199   -7420.7917    -6708.748   -553.92762     102002.7      46.7237      46.7237      46.7237 
  442000    130.66761    -7402.927   -6689.7611   -820.46387     102002.7      46.7237      46.7237      46.7237 
  443000    133.24637   -7377.7509   -6650.5104   -863.59545     102002.7      46.7237      46.7237      46.7237 
  444000    130.55066   -7401.1803   -6688.6527   -604.38389     102002.7      46.7237      46.7237      46.7237 
  445000    134.31444   -7411.3658    -6678.296   -543.84558     102002.7      46.7237      46.7237      46.7237 
  446000    126.77379   -7420.8294   -6728.9154   -913.46706     102002.7      46.7237      46.7237      46.7237 
  447000    128.27437   -7393.6888   -6693.5849    -955.5298     102002.7      46.7237      46.7237      46.7237 
  448000    132.76545    -7384.674   -6660.0584   -696.14741     102002.7      46.7237      46.7237      46.7237 
  449000    128.93934   -7409.8376   -6706.1043   -734.90598     102002.7      46.7237      46.7237      46.7237 
  450000    129.57872   -7401.9654   -6694.7425    -708.5053     102002.7      46.7237      46.7237      46.7237 
  451000    128.04673   -7369.8922   -6671.0306   -757.79215     102002.7      46.7237      46.7237      46.7237 
  452000    128.57091   -7391.9912   -6690.2688   -721.85026     102002.7      46.7237      46.7237      46.7237 
  453000    128.95842   -7392.1089   -6688.2715   -711.42699     102002.7      46.7237      46.7237      46.7237 
  454000    131.73297   -7372.7047   -6653.7242   -758.94757     102002.7      46.7237      46.7237      46.7237 
  455000    131.22758   -7405.0632   -6688.8411   -583.08283     102002.7      46.7237      46.7237      46.7237 
  456000    132.03154   -7373.4117   -6652.8016   -626.69664     102002.7      46.7237      46.7237      46.7237 
  457000    128.57616   -7390.4579   -6688.7068   -772.68754     102002.7      46.7237      46.7237      46.7237 
  458000    131.62961   -7382.9232   -6664.5068   -635.01544     102002.7      46.7237      46.7237      46.7237 
  459000    127.75774    -7381.701   -6684.4167   -674.38935     102002.7      46.7237      46.7237      46.7237 
  460000    127.72968   -7364.4978   -6667.3667   -517.13125     102002.7      46.7237      46.7237      46.7237 
  461000    130.80496   -7363.1561   -6649.2406   -570.64061     102002.7      46.7237      46.7237      46.7237 
  462000    128.20465   -7398.9929   -6699.2694   -872.18565     102002.7      46.7237      46.7237      46.7237 
  463000    132.88158   -7378.6387   -6653.3891   -529.15748     102002.7      46.7237      46.7237      46.7237 
  464000    132.29902   -7386.6462   -6664.5763   -739.98734     102002.7      46.7237      46.7237      46.7237 
  465000    131.34805   -7389.6503   -6672.7706   -614.28986     102002.7      46.7237      46.7237      46.7237 
  466000    124.43175   -7373.1524   -6694.0209   -545.37362     102002.7      46.7237      46.7237      46.7237 
  467000    129.45904   -7395.9121   -6689.3424    -757.9527     102002.7      46.7237      46.7237      46.7237 
  468000    131.50424   -7395.4794   -6677.7473   -1044.0133     102002.7      46.7237      46.7237      46.7237 
  469000    132.78689   -7375.8148   -6651.0821   -439.26458     102002.7      46.7237      46.7237      46.7237 
  470000    131.67181   -7406.4435   -6687.7968   -355.48619     102002.7      46.7237      46.7237      46.7237 
  471000    126.48422   -7389.7342   -6699.4007   -809.82077     102002.7      46.7237      46.7237      46.7237 
  472000    128.14168   -7360.8282   -6661.4485   -509.15942     102002.7      46.7237      46.7237      46.7237 
  473000    128.31223   -7386.0649   -6685.7543   -736.20833     102002.7      46.7237      46.7237      46.7237 
  474000     128.9535    -7370.053   -6666.2425   -855.46734     102002.7      46.7237      46.7237      46.7237 
  475000    128.89169   -7407.4385   -6703.9653   -852.24795     102002.7      46.7237      46.7237      46.7237 
  476000    134.83282   -7394.4736   -6658.5745   -941.51079     102002.7      46.7237      46.7237      46.7237 
  477000    128.15007   -7395.9079   -6696.4824   -727.68536     102002.7      46.7237      46.7237      46.7237 
  478000    128.80385   -7413.5192   -6710.5254   -903.87185     102002.7      46.7237      46.7237      46.7237 
  479000    129.90417    -7367.089   -6658.0898   -840.97325     102002.7      46.7237      46.7237      46.7237 
  480000    127.19437   -7390.1276   -6695.9181   -754.90146     102002.7      46.7237      46.7237      46.7237 
  481000     127.5814   -7356.2736   -6659.9518   -601.54472     102002.7      46.7237      46.7237      46.7237 
  482000    130.87455   -7400.2858   -6685.9904   -725.59132     102002.7      46.7237      46.7237      46.7237 
  483000     130.0894   -7390.3208   -6680.3106    -1261.106     102002.7      46.7237      46.7237      46.7237 
  484000    130.72745   -7415.1341   -6701.6416   -692.74783     102002.7      46.7237      46.7237      46.7237 
  485000    125.98633   -7397.0775   -6709.4614   -711.29379     102002.7      46.7237      46.7237      46.7237 
  486000     131.8224   -7406.3728   -6686.9041   -747.91289     102002.7      46.7237      46.7237      46.7237 
  487000    130.90743   -7356.4872   -6642.0124   -584.40589     102002.7      46.7237      46.7237      46.7237 
  488000    125.86466   -7383.5501    -6696.598   -1080.4431     102002.7      46.7237      46.7237      46.7237 
  489000    129.25336    -7369.257   -6663.8098   -751.08955     102002.7      46.7237      46.7237      46.7237 
  490000    127.13537   -7378.1332   -6684.2457   -992.33623     102002.7      46.7237      46.7237      46.7237 
  491000    131.62674   -7405.1812   -6686.7804    -731.9831     102002.7      46.7237      46.7237      46.7237 
  492000    133.99438   -7388.1047   -6656.7817   -775.49317     102002.7      46.7237      46.7237      46.7237 
  493000    128.44594    -7405.863   -6704.8226   -779.77194     102002.7      46.7237      46.7237      46.7237 
  494000    131.92906   -7389.9264   -6669.8756   -550.09783     102002.7      46.7237      46.7237      46.7237 
  495000     131.3434   -7380.6451   -6663.7908    -671.8502     102002.7      46.7237      46.7237      46.7237 
  496000    128.27267   -7389.1266   -6689.0319   -456.43316     102002.7      46.7237      46.7237      46.7237 
  497000    131.71787   -7379.8765   -6660.9784   -608.37115     102002.7      46.7237      46.7237      46.7237 
  498000    130.97474   -7407.9984   -6693.1562   -820.67174     102002.7      46.7237      46.7237      46.7237 
  499000    129.12522   -7388.5753   -6683.8275   -1091.8128     102002.7      46.7237      46.7237      46.7237 
  500000     132.5175   -7378.9692   -6655.7068   -819.02947     102002.7      46.7237      46.7237      46.7237 
  500502    129.65503     -7378.12   -6670.4806   -677.64265     102002.7      46.7237      46.7237      46.7237 
Loop time of 1254.77 on 16 procs for 500000 steps with 1832 atoms

Performance: 34.429 ns/day, 0.697 hours/ns, 398.480 timesteps/s
99.8% CPU use with 16 MPI tasks x no OpenMP threads

MPI task timing breakdown:
Section |  min time  |  avg time  |  max time  |%varavg| %total
---------------------------------------------------------------
Pair    | 594.42     | 714.79     | 845        | 256.9 | 56.97
Bond    | 143.76     | 174.3      | 204.58     | 171.0 | 13.89
Neigh   | 5.8313     | 5.8695     | 5.896      |   0.8 |  0.47
Comm    | 232.54     | 346.14     | 453.43     | 316.3 | 27.59
Output  | 0.020366   | 0.020775   | 0.023977   |   0.6 |  0.00
Modify  | 7.8414     | 8.3399     | 8.8288     |   8.5 |  0.66
Other   |            | 5.307      |            |       |  0.42

Nlocal:    114.5 ave 143 max 83 min
Histogram: 1 0 0 4 4 0 3 1 2 1
Nghost:    2320.25 ave 2360 max 2293 min
Histogram: 2 1 2 2 4 1 3 0 0 1
Neighs:    11458.9 ave 15234 max 7455 min
Histogram: 1 2 2 1 0 2 4 2 0 2

Total # of neighbors = 183342
Ave neighs/atom = 100.078
Ave special neighs/atom = 6.28821
Neighbor list builds = 4495
Dangerous builds = 0
Neighbor list info ...
  update every 1 steps, delay 10 steps, check yes
  max neighbors/atom: 2000, page size: 100000
  master list distance cutoff = 16
  ghost atom cutoff = 16
  binsize = 8, bins = 6 6 6
  3 neighbor lists, perpetual/occasional/extra = 3 0 0
  (1) pair buck6d/coul/gauss/dsf, perpetual, skip from (3)
      attributes: half, newton on
      pair build: skip
      stencil: none
      bin: none
  (2) pair lj/cut, perpetual, skip from (3)
      attributes: half, newton on
      pair build: skip
      stencil: none
      bin: none
  (3) neighbor class addition, perpetual
      attributes: half, newton on
      pair build: half/bin/newton
      stencil: half/bin/3d/newton
      bin: standard
Setting up Verlet run ...
  Unit style    : real
  Current step  : 500502
  Time step     : 1
WARNING: Inconsistent image flags (../domain.cpp:786)
Per MPI rank memory allocation (min/avg/max) = 22.88 | 23.22 | 23.34 Mbytes
Step Time TotEng KinEng PotEng E_mol E_pair Temp Pxx Pyy Pzz Pxy Pxz Pyz Cella Cellb Cellc CellAlpha CellBeta CellGamma Volume Press 
  500502       500000   -6670.4806     707.6394     -7378.12    4407.5839   -11785.704    129.65503   -509.74447   -945.48628   -577.69719   -138.36197     68.70389    44.062552      46.7237      46.7237      46.7237           90           90           90     102002.7   -677.64265 
  501000       500498   -6677.5291     713.6662   -7391.1953     4383.399   -11774.594    130.75927   -625.91471   -525.16037   -1089.5837   -105.34557    130.52756   -13.851889      46.7237      46.7237      46.7237           90           90           90     102002.7   -746.88627 
  502000       501498   -6682.7574    707.12571   -7389.8831    4397.3795   -11787.263    129.56091   -370.67813   -1005.9064   -407.46565    -70.47771    11.770275    109.64717      46.7237      46.7237      46.7237           90           90           90     102002.7   -594.68338 
  503000       502498   -6639.6414     723.9825   -7363.6239    4402.7228   -11766.347    132.64944   -549.24019    -323.9352   -683.53225    104.59648    214.87874   -110.45591      46.7237      46.7237      46.7237           90           90           90     102002.7   -518.90255 
  504000       503498   -6691.8153    710.59143   -7402.4068    4383.1745   -11785.581     130.1959   -247.56328   -975.24883   -293.72937   -110.33392    132.64529    80.717373      46.7237      46.7237      46.7237           90           90           90     102002.7   -505.51382 
  505000       504498   -6706.3894    695.32494   -7401.7143    4358.5804   -11760.295    127.39875   -715.51845    -635.5223   -988.77454   -136.58127   -132.29877    291.10012      46.7237      46.7237      46.7237           90           90           90     102002.7   -779.93843 
  506000       505498   -6694.2084    709.24454    -7403.453    4373.9667    -11777.42    129.94912   -334.13562   -338.09933   -941.48822   -479.84769   -371.89638    -83.93922      46.7237      46.7237      46.7237           90           90           90     102002.7   -537.90772 
  507000       506498   -6666.7185    711.71666   -7378.4351    4405.7103   -11784.145    130.40207   -568.94588   -566.85849   -543.72398   -389.90831    146.75295    127.81297      46.7237      46.7237      46.7237           90           90           90     102002.7   -559.84278 
  508000       507498   -6657.3594    726.51336   -7383.8728    4400.4078   -11784.281    133.11315   -757.67209   -832.95672   -657.05684    67.442401    17.621656    6.9717548      46.7237      46.7237      46.7237           90           90           90     102002.7   -749.22855 
  509000       508498   -6674.5107    708.74207   -7383.2528      4408.25   -11791.503    129.85706   -561.70652   -1006.9164   -470.59809   -72.550886   -227.96327     76.10361      46.7237      46.7237      46.7237           90           90           90     102002.7   -679.74032 
  510000       509498   -6700.2376    710.46491   -7410.7025    4386.7097   -11797.412    130.17272   -1195.6961   -886.08275   -586.39666     -51.2038   -218.31353    246.09668      46.7237      46.7237      46.7237           90           90           90     102002.7   -889.39184 
  511000       510498   -6676.6296    720.11344   -7396.7431    4396.1305   -11792.874    131.94054   -624.61327   -171.35501   -1096.5612    55.354951   -136.86944    46.444604      46.7237      46.7237      46.7237           90           90           90     102002.7   -630.84318 
  512000       511498   -6701.7758    695.17318    -7396.949    4392.4249   -11789.374    127.37094   -1216.4375   -1135.8084   -895.29805    285.21236    20.523036   -30.614114      46.7237      46.7237      46.7237           90           90           90     102002.7   -1082.5146 
  513000       512498   -6699.8677    706.15609   -7406.0238    4375.2104   -11781.234    129.38325   -347.77083   -663.58672   -272.87198   -213.18816    -99.76587    129.20282      46.7237      46.7237      46.7237           90           90           90     102002.7   -428.07651 
  514000       513498   -6678.2392    700.52305   -7378.7623    4398.9893   -11777.752    128.35116     -561.425   -821.76436     -557.125    136.87503    77.925205   -48.284802      46.7237      46.7237      46.7237           90           90           90     102002.7   -646.77145 
  515000       514498   -6698.3649    703.58056   -7401.9455     4391.956   -11793.902    128.91136   -391.49817   -685.38849   -903.43264   -283.28422    174.60901    -64.86301      46.7237      46.7237      46.7237           90           90           90     102002.7   -660.10644 
  516000       515498   -6687.8166     713.4602   -7401.2768    4373.3695   -11774.646    130.72152   -538.84267   -898.20038   -852.04018   -125.29292   -238.32329   -10.680949      46.7237      46.7237      46.7237           90           90           90     102002.7   -763.02775 
  517000       516498   -6681.8525    719.08912   -7400.9416    4384.1657   -11785.107    131.75287   -697.86689   -938.30075    -346.3205   -73.223749   -84.757926    148.78464      46.7237      46.7237      46.7237           90           90           90     102002.7   -660.82938 
  518000       517498   -6680.4899    722.75209    -7403.242    4375.5236   -11778.766      132.424   -531.68788   -471.15472   -983.64718    39.322975   -29.956691   -116.29005      46.7237      46.7237      46.7237           90           90           90     102002.7   -662.16326 
  519000       518498   -6678.1999    712.13169   -7390.3316    4392.5714   -11782.903    130.47811    -841.3283   -1217.0349   -864.92283   -150.52772   -221.90644   -16.735764      46.7237      46.7237      46.7237           90           90           90     102002.7   -974.42869 
  520000       519498   -6671.9375    728.51803   -7400.4555    4378.2111   -11778.667    133.48045   -786.06292   -454.48927   -264.70099    134.19686   -53.713076   -17.419114      46.7237      46.7237      46.7237           90           90           90     102002.7   -501.75106 
  521000       520498   -6714.5653    697.79419   -7412.3595    4375.4256   -11787.785    127.85117   -1019.0687   -825.46367   -566.59841   -85.494238   -117.97018    111.56196      46.7237      46.7237      46.7237           90           90           90     102002.7   -803.71027 
  522000       521498   -6682.0223     706.2082   -7388.2305    4393.6753   -11781.906     129.3928   -945.03208   -799.68939   -716.70073   -111.39592      31.5015   -183.25262      46.7237      46.7237      46.7237           90           90           90     102002.7   -820.47407 
  523000       522498   -6694.6849    699.94409    -7394.629    4401.8573   -11796.486    128.24508   -771.27331   -839.78597   -443.39439   -97.785741    29.699017   -21.495753      46.7237      46.7237      46.7237           90           90           90     102002.7   -684.81789 
  524000       523498   -6686.6538    716.48873   -7403.1425    4379.0001   -11782.143    131.27642   -1020.2961   -976.71086   -563.85112   -218.08911     62.41735    81.551753      46.7237      46.7237      46.7237           90           90           90     102002.7   -853.61937 
  525000       524498   -6653.2089    722.43544   -7375.6444    4413.4549   -11789.099    132.36599   -493.69437   -621.00588   -843.73311   -77.596908     -162.173    47.572036      46.7237      46.7237      46.7237           90           90           90     102002.7   -652.81112 
  526000       525498   -6674.3338    727.14481   -7401.4786    4396.6031   -11798.082    133.22885   -486.76674   -549.71495   -839.68836    -61.55474   -123.16751    151.02262      46.7237      46.7237      46.7237           90           90           90     102002.7   -625.39002 
  527000       526498   -6711.2419    694.57273   -7405.8146    4373.8691   -11779.684    127.26093   -627.28765   -514.91168   -697.26336    178.11964    68.381403   -178.40729      46.7237      46.7237      46.7237           90           90           90     102002.7   -613.15423 
  528000       527498   -6691.3611    712.80424   -7404.1654    4378.2254   -11782.391    130.60134   -825.86658   -739.93019   -589.50676   -82.026425   -29.743948   -224.35121      46.7237      46.7237      46.7237           90           90           90     102002.7   -718.43451 
  529000       528498   -6652.7025    720.14654   -7372.8491    4425.3975   -11798.247    131.94661   -648.27382   -958.04308   -39.964218   -9.8880298    139.38662   -86.691992      46.7237      46.7237      46.7237           90           90           90     102002.7   -548.76037 
  530000       529498   -6678.7605    728.58895   -7407.3495    4370.5481   -11777.898    133.49344   -781.27802   -642.18683   -378.15933   -65.243854    205.39913    46.493803      46.7237      46.7237      46.7237           90           90           90     102002.7   -600.54139 
  531000       530498   -6694.0634    689.94514   -7384.0085    4413.3223   -11797.331    126.41305   -876.44579   -943.50566   -1149.6519    95.285588    22.308034   -66.826114      46.7237      46.7237      46.7237           90           90           90     102002.7   -989.86778 
  532000       531498   -6681.2208    707.38254   -7388.6033    4398.7708   -11787.374    129.60796   -843.41052   -985.22444   -552.04937    36.830546    99.629889     -41.2398      46.7237      46.7237      46.7237           90           90           90     102002.7   -793.56144 
  533000       532498   -6708.0564    704.26288   -7412.3192    4371.5786   -11783.898    129.03637   -685.20172   -1061.2824   -617.71962   -7.7114151    30.400221    3.6181681      46.7237      46.7237      46.7237           90           90           90     102002.7   -788.06791 
  534000       533498   -6684.1056    698.50228   -7382.6078    4409.7819    -11792.39    127.98091     -640.589   -416.53452   -805.97843   -204.82817   -34.825706     -346.893      46.7237      46.7237      46.7237           90           90           90     102002.7   -621.03398 
  535000       534498   -6680.0753    712.96284   -7393.0382    4390.5586   -11783.597     130.6304   -943.79572   -152.84575   -987.72347    10.921196   -149.72054    50.577208      46.7237      46.7237      46.7237           90           90           90     102002.7   -694.78831 
  536000       535498   -6680.2301    720.54342   -7400.7735    4394.0117   -11794.785    132.01933    -376.2973   -605.74157    70.579461   -207.74424    97.974063     133.2618      46.7237      46.7237      46.7237           90           90           90     102002.7    -303.8198 
  537000       536498   -6657.9784     724.0507   -7382.0291    4388.9114   -11770.941    132.66194   -416.76506   -134.23895   -581.66408     -42.4211   -223.03913    65.780771      46.7237      46.7237      46.7237           90           90           90     102002.7   -377.55603 
  538000       537498   -6696.1744    703.64041   -7399.8148    4381.8421   -11781.657    128.92232   -824.51916   -476.72772   -559.65653    284.02458   -22.902652   -91.217342      46.7237      46.7237      46.7237           90           90           90     102002.7   -620.30114 
  539000       538498   -6648.9286    716.32357   -7365.2521    4424.4096   -11789.662    131.24616   -677.66252   -804.28781   -956.29425    31.625722   -90.375326    134.05291      46.7237      46.7237      46.7237           90           90           90     102002.7   -812.74819 
  540000       539498    -6664.462    697.19591   -7361.6579     4409.895   -11771.553    127.74155   -729.01502   -1138.4179   -421.91976   -2.7107855    113.07648    65.818204      46.7237      46.7237      46.7237           90           90           90     102002.7   -763.11757 
  541000       540498   -6700.2836    695.10745    -7395.391    4387.1357   -11782.527     127.3589   -691.70629   -683.38207   -626.94367   -54.866113    107.02931   -18.287989      46.7237      46.7237      46.7237           90           90           90     102002.7   -667.34401 
  542000       541498   -6668.8769    712.61929   -7381.4962    4419.4747   -11800.971    130.56745   -1013.3807   -1019.0411   -409.92227   -100.93316    114.05273   -224.09816      46.7237      46.7237      46.7237           90           90           90     102002.7   -814.11468 
  543000       542498    -6694.688    704.87766   -7399.5657     4384.843   -11784.409    129.14902   -268.39868   -794.76933   -1144.2726   -181.45817    141.72707   -184.11034      46.7237      46.7237      46.7237           90           90           90     102002.7   -735.81355 
  544000       543498   -6663.1063    735.76258   -7398.8688    4398.6469   -11797.516    134.80781   -756.81972   -1261.6707   -739.33053    42.285192    242.40455    -37.58258      46.7237      46.7237      46.7237           90           90           90     102002.7   -919.27365 
  545000       544498    -6691.734    710.96765   -7402.7016    4371.9123   -11774.614    130.26483   -671.72339   -281.92625   -802.05185    148.81767    111.46122    74.808621      46.7237      46.7237      46.7237           90           90           90     102002.7   -585.23383 
  546000       545498   -6687.1517    707.85709   -7395.0088    4401.4116    -11796.42    129.69491   -674.91909   -722.22951   -1122.3549    25.068847   -150.81454    129.87698      46.7237      46.7237      46.7237           90           90           90     102002.7   -839.83451 
  547000       546498   -6673.4928    692.46457   -7365.9574    4408.9329    -11774.89    126.87467   -780.06799   -673.43636   -765.66544   -132.39188    180.88098    114.13236      46.7237      46.7237      46.7237           90           90           90     102002.7   -739.72326 
  548000       547498   -6680.0992    723.11029   -7403.2095    4393.5397   -11796.749    132.48963   -590.34987   -814.57581   -659.96933   -380.28484   -163.35343   -312.17398      46.7237      46.7237      46.7237           90           90           90     102002.7   -688.29834 
  549000       548498   -6666.4687    725.57529    -7392.044     4413.501   -11805.545    132.94127   -800.79973   -1217.8436   -936.58759    292.92799   -292.33269   -32.874184      46.7237      46.7237      46.7237           90           90           90     102002.7   -985.07697 
  550000       549498   -6681.4131    704.97787   -7386.3909    4390.7734   -11777.164    129.16738   -885.02865   -478.85901   -345.05796   -218.30008    198.68936   -161.34345      46.7237      46.7237      46.7237           90           90           90     102002.7   -569.64854 
  551000       550498    -6640.235    732.45802    -7372.693    4415.8509   -11788.544    134.20234   -1025.9405   -664.52124   -813.20585   -295.77589   -144.45492    323.57025      46.7237      46.7237      46.7237           90           90           90     102002.7   -834.55587 
  552000       551498   -6703.8383    702.38301   -7406.2213    4375.5379   -11781.759    128.69194   -672.45936   -699.95885   -565.22674   -107.52724    48.030079    126.61687      46.7237      46.7237      46.7237           90           90           90     102002.7   -645.88165 
  553000       552498   -6716.8737    690.32378   -7407.1975    4382.8551   -11790.053    126.48243   -868.61617   -641.38865   -280.25184     21.13029   -88.384179    68.390057      46.7237      46.7237      46.7237           90           90           90     102002.7   -596.75222 
  554000       553498   -6681.8074    684.93045   -7366.7379    4408.4661   -11775.204    125.49425   -563.14619    -646.8614   -768.61186   -521.61464   -109.48514    24.633264      46.7237      46.7237      46.7237           90           90           90     102002.7   -659.53982 
  555000       554498    -6661.601    743.30755   -7404.9085    4380.5387   -11785.447    136.19021    -731.5792   -1213.9212   -910.14363   -200.82306    64.717505   -139.90814      46.7237      46.7237      46.7237           90           90           90     102002.7   -951.88135 
[...]
  936000       935498   -6686.4433    718.17819   -7404.6215    4370.8918   -11775.513    131.58596   -703.93097   -901.32845    -739.0932    111.97417    155.79731   -146.98255      46.7237      46.7237      46.7237           90           90           90     102002.7   -781.45087 
  937000       936498   -6662.7415    707.34073   -7370.0823    4424.2879    -11794.37     129.6003   -248.41279    -750.9767   -948.61294    77.252041    210.71546    136.70098      46.7237      46.7237      46.7237           90           90           90     102002.7   -649.33414 
  938000       937498   -6708.7069    691.43193   -7400.1389    4399.1872   -11799.326    126.68546   -923.60689   -1023.5625   -889.98731    89.584096    178.59215    23.306457      46.7237      46.7237      46.7237           90           90           90     102002.7   -945.71888 
  939000       938498   -6672.1721    729.62078   -7401.7929    4386.1158   -11787.909     133.6825   -846.39106   -398.55232   -16.246537    335.25014    34.875353   -119.56713      46.7237      46.7237      46.7237           90           90           90     102002.7   -420.39664 
  940000       939498   -6729.6116     684.9676   -7414.5792    4387.3294   -11801.909    125.50106   -614.72539   -455.15896     -1314.39    74.467168     216.9095   -16.819605      46.7237      46.7237      46.7237           90           90           90     102002.7   -794.75813 
  941000       940498   -6682.6523    724.80359   -7407.4559      4368.66   -11776.116    132.79988     -676.761   -1060.5183   -649.66407   -170.54853    242.41673    85.613279      46.7237      46.7237      46.7237           90           90           90     102002.7    -795.6478 
  942000       941498   -6696.7766    703.45705   -7400.2337    4399.8164    -11800.05    128.88873   -106.06763   -350.90124   -600.74285    37.157287   -60.237168    77.572392      46.7237      46.7237      46.7237           90           90           90     102002.7   -352.57057 
  943000       942498   -6714.7808    685.05704   -7399.8379    4402.1002   -11801.938    125.51744   -619.96694   -1098.3271   -878.24515    121.25981   -41.423143   -247.05383      46.7237      46.7237      46.7237           90           90           90     102002.7   -865.51305 
  944000       943498   -6669.1346    721.01296   -7390.1476    4395.3025    -11785.45    132.10536   -425.92622   -766.48771   -720.76668    -190.5112     52.88403   -197.00197      46.7237      46.7237      46.7237           90           90           90     102002.7   -637.72687 
  945000       944498   -6714.1207    690.77066   -7404.8914    4389.3404   -11794.232    126.56431   -81.876465   -750.60686   -492.51033    163.82425   -252.14365    2.6170265      46.7237      46.7237      46.7237           90           90           90     102002.7   -441.66455 
  946000       945498    -6693.283    715.93572   -7409.2188    4380.3326   -11789.551    131.17509   -536.43933    -759.5153   -824.89625   -136.46263   -77.554078   -23.876984      46.7237      46.7237      46.7237           90           90           90     102002.7   -706.95029 
  947000       946498   -6669.3611    732.29158   -7401.6527    4392.8241   -11794.477    134.17185   -597.03094   -503.65704   -429.54893     312.2122   -158.30562    41.513509      46.7237      46.7237      46.7237           90           90           90     102002.7   -510.07897 
  948000       947498   -6674.8983    726.29986   -7401.1982    4380.8577   -11782.056    133.07403    107.21775   -386.78842   -561.03486    96.875727   -58.067579   -411.03473      46.7237      46.7237      46.7237           90           90           90     102002.7   -280.20184 
  949000       948498   -6711.7147    690.62156   -7402.3363    4389.6886   -11792.025    126.53699    -1288.562   -426.25653   -841.55635     36.82047    122.02995    173.74833      46.7237      46.7237      46.7237           90           90           90     102002.7   -852.12497 
  950000       949498   -6701.6138    700.69899   -7402.3128    4386.3774    -11788.69    128.38339   -496.02531   -660.07604   -744.51068    54.479297    119.97902     206.1797      46.7237      46.7237      46.7237           90           90           90     102002.7   -633.53734 
  951000       950498   -6668.4592    726.33101   -7394.7902    4391.4218   -11786.212    133.07974   -763.30247   -767.37924    -473.9544    176.11902   -28.222224   -413.88964      46.7237      46.7237      46.7237           90           90           90     102002.7   -668.21204 
  952000       951498   -6675.5777    710.16945   -7385.7472    4406.9963   -11792.744    130.11859   -435.29413   -531.14445   -951.99326    45.439656    99.940459    68.423139      46.7237      46.7237      46.7237           90           90           90     102002.7   -639.47728 
  953000       952498    -6696.211    718.58037   -7414.7914    4381.6928   -11796.484    131.65965   -647.05634   -726.51682   -764.83718    98.169163    -60.12053    207.47327      46.7237      46.7237      46.7237           90           90           90     102002.7   -712.80345 
  954000       953498   -6655.7001    709.72038   -7365.4204    4428.0962   -11793.517    130.03631   -865.43951   -736.62818     -927.892   -136.56826    260.21057   -52.929433      46.7237      46.7237      46.7237           90           90           90     102002.7   -843.31989 
  955000       954498   -6710.4674    691.56981   -7402.0372    4385.0144   -11787.052    126.71073   -791.13013   -342.41623   -519.47177    4.1895628   -320.90178   -32.609288      46.7237      46.7237      46.7237           90           90           90     102002.7   -551.00604 
  956000       955498   -6710.1625    688.89497   -7399.0575    4377.9306   -11776.988    126.22064   -945.17691   -512.07748   -772.11526   -194.93083    283.72537    -35.64529      46.7237      46.7237      46.7237           90           90           90     102002.7   -743.12322 
  957000       956498   -6677.8529    718.41624   -7396.2692    4390.0337   -11786.303    131.62958    -540.8084   -717.68317   -532.74877    136.85639    17.711603     64.75323      46.7237      46.7237      46.7237           90           90           90     102002.7   -597.08011 
  958000       957498   -6654.1897    725.21813   -7379.4078    4396.1996   -11775.607    132.87583   -999.02035    -1301.803   -541.22219   -49.764343   -48.814346    232.58678      46.7237      46.7237      46.7237           90           90           90     102002.7   -947.34852 
  959000       958498   -6671.5351    724.64919   -7396.1843    4396.0311   -11792.215    132.77159   -738.80228   -444.78504   -777.18862   -86.616947     339.6905   -122.55039      46.7237      46.7237      46.7237           90           90           90     102002.7   -653.59198 
  960000       959498   -6687.9512    714.53956   -7402.4908    4383.4139   -11785.905    130.91929   -1023.0461    -991.4621   -601.14946   -55.632111    10.204529    60.592777      46.7237      46.7237      46.7237           90           90           90     102002.7   -871.88588 
  961000       960498   -6721.5249    696.38373   -7417.9087    4386.0113    -11803.92    127.59274   -955.20597   -637.07423   -773.70368    85.512142    311.26825    335.04017      46.7237      46.7237      46.7237           90           90           90     102002.7   -788.66129 
  962000       961498   -6668.6366     706.6952   -7375.3318    4404.4267   -11779.758    129.48203   -1186.5708   -798.80956   -919.72214    169.20229   -8.4217128   -133.16286      46.7237      46.7237      46.7237           90           90           90     102002.7   -968.36751 
  963000       962498   -6720.4632     697.1988    -7417.662    4378.0114   -11795.673    127.74208    -926.7812   -1024.4093   -647.03095   -242.30509    216.31551    220.71891      46.7237      46.7237      46.7237           90           90           90     102002.7   -866.07382 
  964000       963498   -6674.7047    724.86432    -7399.569     4396.117   -11795.686    132.81101   -459.33957   -854.38921    -619.5705   -345.26014   -5.7778181    158.16742      46.7237      46.7237      46.7237           90           90           90     102002.7   -644.43309 
  965000       964498   -6682.5513    715.62933   -7398.1807    4381.9387   -11780.119    131.11896   -1396.8921   -424.04125   -1129.7246    90.315395   -272.97422   -188.15883      46.7237      46.7237      46.7237           90           90           90     102002.7   -983.55267 
  966000       965498   -6677.4314      738.482   -7415.9134     4366.142   -11782.055    135.30607    -884.9841   -793.04258   -713.02762   -27.694703    27.086516    224.52817      46.7237      46.7237      46.7237           90           90           90     102002.7    -797.0181 
  967000       966498   -6668.7783    723.36618   -7392.1444    4393.8185   -11785.963    132.53652   -672.08792   -925.50454   -907.74455   -201.04997   -248.54997    426.36549      46.7237      46.7237      46.7237           90           90           90     102002.7   -835.11233 
  968000       967498   -6705.1143    698.99038   -7404.1047    4399.1353    -11803.24    128.07034   -685.13493   -628.28861   -1095.4761    220.14473   -127.35954   -147.94746      46.7237      46.7237      46.7237           90           90           90     102002.7   -802.96656 
  969000       968498    -6672.989    699.52583   -7372.5148    4410.0726   -11782.587    128.16844   -781.02846    -956.4216   -656.73435    26.314365    212.84247   -107.15328      46.7237      46.7237      46.7237           90           90           90     102002.7   -798.06147 
  970000       969498    -6702.255    696.06243   -7398.3175    4396.7085   -11795.026    127.53387   -540.47702   -1136.9688   -1264.4706   -151.62284     195.7965    79.550161      46.7237      46.7237      46.7237           90           90           90     102002.7   -980.63879 
  971000       970498   -6676.7306    696.44463   -7373.1752    4410.6243     -11783.8     127.6039   -311.26406   -641.76349   -663.63795    6.8283453    20.439022   -263.77414      46.7237      46.7237      46.7237           90           90           90     102002.7    -538.8885 
  972000       971498   -6709.8559    686.42548   -7396.2814    4399.5544   -11795.836    125.76817   -453.38575   -453.19381   -1012.0342    73.533047   -368.90352   -80.005703      46.7237      46.7237      46.7237           90           90           90     102002.7   -639.53792 
  973000       972498   -6666.5769    708.57582   -7375.1527    4422.8303   -11797.983     129.8266   -477.65962   -1057.4009   -554.87699   -241.11559    58.222587   -65.625116      46.7237      46.7237      46.7237           90           90           90     102002.7   -696.64585 
  974000       973498   -6664.3055    730.81824   -7395.1237    4383.5745   -11778.698     133.9019   -80.370737   -1367.5964   -62.909168   -120.30325    164.62246   -100.90556      46.7237      46.7237      46.7237           90           90           90     102002.7   -503.62543 
  975000       974498   -6679.2186    724.06198   -7403.2806    4386.9593    -11790.24      132.664   -1240.0577    -626.4061   -1380.9675   -108.31311   -322.40521   -69.485664      46.7237      46.7237      46.7237           90           90           90     102002.7   -1082.4771 
  976000       975498   -6683.2207    716.91102   -7400.1317    4376.3767   -11776.508    131.35379   -592.03108   -441.02316   -1117.1992    163.86497   -139.17705   -7.4581156      46.7237      46.7237      46.7237           90           90           90     102002.7   -716.75114 
  977000       976498   -6663.4967    725.67571   -7389.1724     4393.642   -11782.814    132.95967   -836.86254   -1024.2834   -222.10879    176.44344   -12.673329     389.6149      46.7237      46.7237      46.7237           90           90           90     102002.7   -694.41823 
  978000       977498   -6692.8335    700.40649     -7393.24    4374.9187   -11768.159     128.3298    -380.1918   -1088.6991   -757.34557   -86.351221   -27.463277   -134.01274      46.7237      46.7237      46.7237           90           90           90     102002.7   -742.07882 
  979000       978498   -6684.5624    723.30904   -7407.8714    4371.1537   -11779.025    132.52605   -707.78917   -648.50209   -802.03795    129.64813    94.689997   -277.96271      46.7237      46.7237      46.7237           90           90           90     102002.7   -719.44307 
  980000       979498   -6670.7651    720.59869   -7391.3638    4393.9888   -11785.353    132.02945   -819.62754   -321.53386   -970.55501   -158.02214    373.42156     214.2988      46.7237      46.7237      46.7237           90           90           90     102002.7   -703.90547 
  981000       980498   -6687.9497    705.97663   -7393.9264     4384.914    -11778.84    129.35037    -376.5437   -1022.2181     -1120.95   -168.34974   -85.808015   -111.54761      46.7237      46.7237      46.7237           90           90           90     102002.7   -839.90393 
  982000       981498   -6669.5397     725.3695   -7394.9092    4379.3561   -11774.265    132.90357    -213.9445   -344.92175   -549.72031   -275.10394    130.15614   -40.761026      46.7237      46.7237      46.7237           90           90           90     102002.7   -369.52885 
  983000       982498   -6671.9633    726.26951   -7398.2329    4398.3206   -11796.553    133.06847   -709.87147   -949.74694   -508.09531    280.31349   -119.64853    25.795033      46.7237      46.7237      46.7237           90           90           90     102002.7   -722.57124 
  984000       983498   -6685.3393    725.61811   -7410.9574    4372.4412   -11783.399    132.94912   -503.89432   -863.92368   -1009.7284    108.42169   -148.12443   -307.15429      46.7237      46.7237      46.7237           90           90           90     102002.7   -792.51547 
  985000       984498   -6721.1903    710.62844   -7431.8187    4366.0537   -11797.872    130.20269   -35.299175   -752.25364   -307.09611    148.96039   -142.05395   -126.68254      46.7237      46.7237      46.7237           90           90           90     102002.7   -364.88297 
  986000       985498   -6693.2207    701.72338   -7394.9441    4380.9932   -11775.937    128.57108   -772.08232   -816.60762    -448.9203    337.17413   -236.51875    85.010491      46.7237      46.7237      46.7237           90           90           90     102002.7   -679.20341 
  987000       986498   -6664.0647    714.60849   -7378.6732    4428.6468    -11807.32    130.93192   -1350.9632   -700.61625   -613.79348   -100.05853    107.98521    130.84175      46.7237      46.7237      46.7237           90           90           90     102002.7   -888.45763 
  988000       987498   -6717.8275    681.61543    -7399.443    4370.1095   -11769.552    124.88687   -782.01947   -376.24731   -109.94877    57.103125   -70.796335    146.86872      46.7237      46.7237      46.7237           90           90           90     102002.7   -422.73851 
  989000       988498   -6680.3716    737.60434   -7417.9759    4387.2164   -11805.192    135.14526   -1211.9196   -596.11684   -1124.6639    191.59422    76.305338    12.525218      46.7237      46.7237      46.7237           90           90           90     102002.7   -977.56681 
  990000       989498   -6735.1253    681.99494   -7417.1203     4357.359   -11774.479     124.9564   -1022.1487   -1199.9734    -109.0936   -1.0256595   -269.56516    73.041138      46.7237      46.7237      46.7237           90           90           90     102002.7   -777.07192 
  991000       990498   -6684.8494    706.68894   -7391.5384    4405.7031   -11797.241    129.48088    -734.0733    -922.3827    -620.8225   -51.973915   -206.22581    43.090591      46.7237      46.7237      46.7237           90           90           90     102002.7   -759.09283 
  992000       991498   -6680.6527    712.65979   -7393.3125     4390.164   -11783.476    130.57487   -480.64516   -417.44946   -359.75559    18.723488    89.179849   -47.709101      46.7237      46.7237      46.7237           90           90           90     102002.7    -419.2834 
  993000       992498   -6687.2856    695.05219   -7382.3378    4416.9205   -11799.258    127.34877     -402.206   -780.26066   -303.46162   -92.460582   -31.630409     -76.4344      46.7237      46.7237      46.7237           90           90           90     102002.7   -495.30943 
  994000       993498   -6689.3703    712.74518   -7402.1155    4384.1343    -11786.25    130.59052   -499.02342   -315.33583   -116.83636    226.62352   -168.07399    74.205503      46.7237      46.7237      46.7237           90           90           90     102002.7   -310.39854 
  995000       994498   -6718.0624    694.21931   -7412.2817    4390.1047   -11802.386    127.19617    -648.1152   -425.77765   -726.16819  -0.39917675   -64.586539    -43.39948      46.7237      46.7237      46.7237           90           90           90     102002.7   -600.02035 
  996000       995498   -6656.0246     701.3367   -7357.3613    4404.5257   -11761.887    128.50023   -601.48676   -738.93858   -875.37156   -107.66681   -124.82057   -59.116793      46.7237      46.7237      46.7237           90           90           90     102002.7   -738.59897 
  997000       996498   -6669.5667    722.72144   -7392.2882    4406.6142   -11798.902    132.41839   -572.19362   -687.01668   -345.78038    40.248123   -226.00573   -6.1722687      46.7237      46.7237      46.7237           90           90           90     102002.7   -534.99689 
  998000       997498   -6686.1863     694.3787    -7380.565    4414.6349     -11795.2    127.22538   -825.24713   -1032.2957   -1093.3012    144.19476   -33.130181    228.75458      46.7237      46.7237      46.7237           90           90           90     102002.7   -983.61467 
  999000       998498   -6714.5705     698.1908   -7412.7613    4387.1571   -11799.918    127.92384   -31.133388   -1005.0216   -522.16287   -84.245748   -106.45985    57.242018      46.7237      46.7237      46.7237           90           90           90     102002.7    -519.4393 
 1000000       999498   -6711.2516    695.67509   -7406.9267    4389.5878   -11796.514     127.4629   -699.58821   -1049.8907   -797.13739    80.877621    46.409914   -227.47095      46.7237      46.7237      46.7237           90           90           90     102002.7    -848.8721 
 1000502      1000000   -6695.6259     703.7782   -7399.4041     4397.601   -11797.005    128.94757   -748.64197    -339.5288    -547.8745    61.722252    13.219557   -27.061453      46.7237      46.7237      46.7237           90           90           90     102002.7   -545.34842 
Loop time of 1391.1 on 16 procs for 500000 steps with 1832 atoms

Performance: 31.054 ns/day, 0.773 hours/ns, 359.427 timesteps/s
99.9% CPU use with 16 MPI tasks x no OpenMP threads

MPI task timing breakdown:
Section |  min time  |  avg time  |  max time  |%varavg| %total
---------------------------------------------------------------
Pair    | 712.75     | 812.22     | 915.97     | 209.3 | 58.39
Bond    | 141.77     | 183.48     | 226.6      | 266.6 | 13.19
Neigh   | 5.8682     | 5.9151     | 5.9433     |   1.1 |  0.43
Comm    | 220.05     | 361.42     | 496.22     | 358.7 | 25.98
Output  | 0.099323   | 0.10421    | 0.10456    |   0.4 |  0.01
Modify  | 22.063     | 22.708     | 23.504     |   9.6 |  1.63
Other   |            | 5.264      |            |       |  0.38

Nlocal:    114.5 ave 145 max 64 min
Histogram: 1 0 2 3 0 1 1 1 3 4
Nghost:    2334.38 ave 2392 max 2303 min
Histogram: 6 2 0 2 0 1 3 1 0 1
Neighs:    11453.9 ave 13551 max 7685 min
Histogram: 1 0 1 1 2 1 3 1 3 3

Total # of neighbors = 183262
Ave neighs/atom = 100.034
Ave special neighs/atom = 6.28821
Neighbor list builds = 4506
Dangerous builds = 0
Total wall time: 0:44:09
