LAMMPS (30 Mar 2018)
Reading data file ...
  orthogonal box = (0 0 0) to (46.7237 46.7237 46.7237)
  2 by 2 by 4 MPI processor grid
  reading atoms ...
  1743 atoms
  scanning bonds ...
  5 = max bonds/atom
  scanning angles ...
  10 = max angles/atom
  scanning dihedrals ...
  32 = max dihedrals/atom
  scanning impropers ...
  3 = max impropers/atom
  reading bonds ...
  2064 bonds
  reading angles ...
  3696 angles
  reading dihedrals ...
  6240 dihedrals
  reading impropers ...
  1008 impropers
Finding 1-2 1-3 1-4 neighbors ...
  special bond factors lj:   0          0          0         
  special bond factors coul: 0          0          0         
  5 = max # of 1-2 neighbors
  8 = max # of 1-3 neighbors
  20 = max # of 1-4 neighbors
  19 = max # of special neighbors
Finding 1-2 1-3 1-4 neighbors ...
  special bond factors lj:   0          0          1         
  special bond factors coul: 1          1          1         
  5 = max # of 1-2 neighbors
  8 = max # of 1-3 neighbors
  19 = max # of special neighbors
WARNING: Using 'neigh_modify every 1 delay 0 check yes' setting during minimization (../min.cpp:168)
Neighbor list info ...
  update every 1 steps, delay 0 steps, check yes
  max neighbors/atom: 2000, page size: 100000
  master list distance cutoff = 16
  ghost atom cutoff = 16
  binsize = 8, bins = 6 6 6
  3 neighbor lists, perpetual/occasional/extra = 3 0 0
  (1) pair buck6d/coul/gauss/dsf, perpetual, skip from (3)
      attributes: half, newton on
      pair build: skip
      stencil: none
      bin: none
  (2) pair lj/cut, perpetual, skip from (3)
      attributes: half, newton on
      pair build: skip
      stencil: none
      bin: none
  (3) neighbor class addition, perpetual
      attributes: half, newton on
      pair build: half/bin/newton
      stencil: half/bin/3d/newton
      bin: standard
Setting up cg style minimization ...
  Unit style    : real
  Current step  : 0
WARNING: Inconsistent image flags (../domain.cpp:786)
Per MPI rank memory allocation (min/avg/max) = 22.89 | 23.35 | 23.79 Mbytes
Step Temp E_pair E_mol TotEng Press 
       0            0   -11559.202    6482.8914    -5076.311    6266.1669 
     505            0    -11582.37    3737.0128   -7845.3576   -501.50651 
Loop time of 2.90495 on 16 procs for 505 steps with 1743 atoms

99.9% CPU use with 16 MPI tasks x no OpenMP threads

Minimization stats:
  Stopping criterion = max force evaluations
  Energy initial, next-to-last, final = 
        -5076.31098617     -7845.34102259     -7845.35757315
  Force two-norm initial, final = 2576.87 5.87186
  Force max component initial, final = 151.974 0.820386
  Final line search alpha, max atom move = 0.0170254 0.0139674
  Iterations, force evaluations = 505 1001

MPI task timing breakdown:
Section |  min time  |  avg time  |  max time  |%varavg| %total
---------------------------------------------------------------
Pair    | 1.2277     | 1.5794     | 2.0375     |  19.8 | 54.37
Bond    | 0.29786    | 0.36012    | 0.45595    |   7.0 | 12.40
Neigh   | 0.015987   | 0.016066   | 0.016159   |   0.0 |  0.55
Comm    | 0.4008     | 0.90744    | 1.2856     |  27.1 | 31.24
Output  | 0          | 0          | 0          |   0.0 |  0.00
Modify  | 0          | 0          | 0          |   0.0 |  0.00
Other   |            | 0.04194    |            |       |  1.44

Nlocal:    108.938 ave 134 max 94 min
Histogram: 1 5 2 2 2 0 1 2 0 1
Nghost:    2201.81 ave 2215 max 2174 min
Histogram: 1 0 0 3 0 2 1 1 4 4
Neighs:    11438.6 ave 15785 max 7878 min
Histogram: 4 1 1 1 2 2 0 1 2 2

Total # of neighbors = 183017
Ave neighs/atom = 105.001
Ave special neighs/atom = 6.60929
Neighbor list builds = 13
Dangerous builds = 0
Neighbor list info ...
  update every 1 steps, delay 10 steps, check yes
  max neighbors/atom: 2000, page size: 100000
  master list distance cutoff = 16
  ghost atom cutoff = 16
  binsize = 8, bins = 6 6 6
  3 neighbor lists, perpetual/occasional/extra = 3 0 0
  (1) pair buck6d/coul/gauss/dsf, perpetual, skip from (3)
      attributes: half, newton on
      pair build: skip
      stencil: none
      bin: none
  (2) pair lj/cut, perpetual, skip from (3)
      attributes: half, newton on
      pair build: skip
      stencil: none
      bin: none
  (3) neighbor class addition, perpetual
      attributes: half, newton on
      pair build: half/bin/newton
      stencil: half/bin/3d/newton
      bin: standard
Setting up Verlet run ...
  Unit style    : real
  Current step  : 505
  Time step     : 1
WARNING: Inconsistent image flags (../domain.cpp:786)
Per MPI rank memory allocation (min/avg/max) = 22.54 | 22.63 | 22.85 Mbytes
Step Temp PotEng TotEng Press Volume Lx Ly Lz 
     505           91   -7845.3576   -7372.8336   -289.74598     102002.7      46.7237      46.7237      46.7237 
    1000    80.600145   -7428.5667   -7010.0448   -713.64097     102002.7      46.7237      46.7237      46.7237 
    2000     91.64297    -7355.004   -6879.1414   -731.04319     102002.7      46.7237      46.7237      46.7237 
    3000    85.119664   -7338.8536   -6896.8637   -937.88947     102002.7      46.7237      46.7237      46.7237 
    4000    90.107757   -7370.3542   -6902.4632   -623.46131     102002.7      46.7237      46.7237      46.7237 
    5000    89.476219   -7346.7389   -6882.1273    -765.3785     102002.7      46.7237      46.7237      46.7237 
    6000    89.551014   -7382.7431   -6917.7431   -620.08424     102002.7      46.7237      46.7237      46.7237 
    7000    93.645462    -7364.942   -6878.6813   -582.19729     102002.7      46.7237      46.7237      46.7237 
    8000    88.668438   -7370.8928   -6910.4757   -557.50732     102002.7      46.7237      46.7237      46.7237 
    9000    88.842923   -7369.7228   -6908.3996   -595.18007     102002.7      46.7237      46.7237      46.7237 
   10000    92.651866   -7367.0084    -6885.907   -578.77079     102002.7      46.7237      46.7237      46.7237 
   11000    90.568621   -7338.6808   -6868.3968   -664.91004     102002.7      46.7237      46.7237      46.7237 
   12000    90.274553   -7359.6261   -6890.8691   -754.73912     102002.7      46.7237      46.7237      46.7237 
   13000    95.029826   -7375.8046   -6882.3555   -613.25684     102002.7      46.7237      46.7237      46.7237 
   14000     89.24974   -7367.8651   -6904.4295   -837.16614     102002.7      46.7237      46.7237      46.7237 
   15000    90.779528     -7351.66   -6880.2808   -886.38655     102002.7      46.7237      46.7237      46.7237 
   16000     91.56544   -7371.4462   -6895.9861   -600.97715     102002.7      46.7237      46.7237      46.7237 
   17000    89.903201   -7359.1621   -6892.3333   -694.23365     102002.7      46.7237      46.7237      46.7237 
   18000      93.4162   -7356.3388   -6871.2685   -685.68223     102002.7      46.7237      46.7237      46.7237 
   19000     94.00453   -7369.3852     -6881.26   -812.96235     102002.7      46.7237      46.7237      46.7237 
   20000     91.24745    -7366.522   -6892.7132    -755.6355     102002.7      46.7237      46.7237      46.7237 
   21000    94.484667   -7360.8095   -6870.1912   -934.31717     102002.7      46.7237      46.7237      46.7237 
   22000    91.292903   -7369.1073   -6895.0624   -768.71069     102002.7      46.7237      46.7237      46.7237 
   23000    93.127158   -7363.8792   -6880.3098   -844.45358     102002.7      46.7237      46.7237      46.7237 
   24000    91.880584   -7353.8218   -6876.7253   -588.33508     102002.7      46.7237      46.7237      46.7237 
   25000    90.510305   -7370.2237   -6900.2425   -541.10694     102002.7      46.7237      46.7237      46.7237 
   26000    89.169351   -7371.7351   -6908.7169   -508.49537     102002.7      46.7237      46.7237      46.7237 
   27000    94.249982   -7371.6677   -6882.2679   -345.00305     102002.7      46.7237      46.7237      46.7237 
   28000    90.672672   -7361.0632   -6890.2389   -795.11697     102002.7      46.7237      46.7237      46.7237 
   29000    91.434996   -7351.9999   -6877.2172   -791.39224     102002.7      46.7237      46.7237      46.7237 
   30000    92.784389   -7374.6084   -6892.8189   -545.43793     102002.7      46.7237      46.7237      46.7237 
   31000     93.09939   -7358.9549   -6875.5297   -788.13769     102002.7      46.7237      46.7237      46.7237 
   32000    90.143193   -7363.3697   -6895.2948   -619.26823     102002.7      46.7237      46.7237      46.7237 
   33000    89.977432   -7373.1847   -6905.9705   -580.09464     102002.7      46.7237      46.7237      46.7237 
   34000    89.991153    -7351.288   -6884.0025   -826.65956     102002.7      46.7237      46.7237      46.7237 
   35000    90.392116   -7369.4365   -6900.0691   -625.68673     102002.7      46.7237      46.7237      46.7237 
   36000     88.33562   -7333.3998   -6874.7108   -592.31073     102002.7      46.7237      46.7237      46.7237 
   37000    91.312121    -7372.812   -6898.6674   -400.64351     102002.7      46.7237      46.7237      46.7237 
   38000    91.308166   -7351.8772   -6877.7531    -693.6685     102002.7      46.7237      46.7237      46.7237 
   39000    92.800912   -7357.7601   -6875.8848   -601.11036     102002.7      46.7237      46.7237      46.7237 
   40000    88.613934   -7353.1952    -6893.061   -481.59897     102002.7      46.7237      46.7237      46.7237 
   41000    92.613716   -7354.7047   -6873.8013    -662.7245     102002.7      46.7237      46.7237      46.7237 
   42000     93.05172   -7365.0564   -6881.8787   -448.97974     102002.7      46.7237      46.7237      46.7237 
   43000    93.281735   -7363.4659   -6879.0939    -459.6225     102002.7      46.7237      46.7237      46.7237 
   44000     88.85681   -7382.2264   -6920.8311   -356.03048     102002.7      46.7237      46.7237      46.7237 
   45000    88.721267   -7369.6776   -6908.9861    -636.3407     102002.7      46.7237      46.7237      46.7237 
   46000    91.450567   -7355.2946    -6880.431   -585.21429     102002.7      46.7237      46.7237      46.7237 
   47000    90.246503   -7379.8061   -6911.1947   -605.45138     102002.7      46.7237      46.7237      46.7237 
   48000    89.795561   -7368.4386   -6902.1688   -598.38089     102002.7      46.7237      46.7237      46.7237 
   49000    92.974247   -7349.4253   -6866.6499   -743.85489     102002.7      46.7237      46.7237      46.7237 
   50000     89.36008   -7359.7453   -6895.7367   -716.01811     102002.7      46.7237      46.7237      46.7237 
   51000    89.034937   -7350.2693    -6887.949   -585.29177     102002.7      46.7237      46.7237      46.7237 
   52000     92.98332   -7358.6054   -6875.7829   -938.71617     102002.7      46.7237      46.7237      46.7237 
   53000    93.389355   -7377.4634   -6892.5326   -711.47056     102002.7      46.7237      46.7237      46.7237 
   54000    94.295403   -7355.5355   -6865.8999   -578.94158     102002.7      46.7237      46.7237      46.7237 
   55000    88.747632   -7356.4363    -6895.608   -775.68886     102002.7      46.7237      46.7237      46.7237 
   56000    93.506364   -7350.8602   -6865.3217   -772.83502     102002.7      46.7237      46.7237      46.7237 
   57000    90.209484    -7374.039   -6905.6199   -700.32483     102002.7      46.7237      46.7237      46.7237 
   58000    90.902762   -7363.8159   -6891.7969   -793.82483     102002.7      46.7237      46.7237      46.7237 
   59000    92.399993   -7379.0084   -6899.2148   -747.29097     102002.7      46.7237      46.7237      46.7237 
   60000     88.93449   -7358.7195   -6896.9208   -659.80183     102002.7      46.7237      46.7237      46.7237 
   61000    94.043648   -7345.1141   -6856.7858   -830.79883     102002.7      46.7237      46.7237      46.7237 
   62000    91.786075   -7372.3669   -6895.7612   -490.77874     102002.7      46.7237      46.7237      46.7237 
   63000    89.024524   -7365.7022    -6903.436   -680.37789     102002.7      46.7237      46.7237      46.7237 
   64000    90.489293   -7371.8025   -6901.9304   -812.97635     102002.7      46.7237      46.7237      46.7237 
   65000    90.279571   -7347.1412   -6878.3581   -637.51596     102002.7      46.7237      46.7237      46.7237 
   66000     93.44956    -7340.186   -6854.9425   -656.93698     102002.7      46.7237      46.7237      46.7237 
   67000    88.419781   -7355.6776   -6896.5516   -648.81204     102002.7      46.7237      46.7237      46.7237 
   68000    90.556525   -7349.6608   -6879.4396   -350.32426     102002.7      46.7237      46.7237      46.7237 
   69000    93.124649   -7362.3932   -6878.8369   -560.05528     102002.7      46.7237      46.7237      46.7237 
   70000    91.992599   -7374.7133   -6897.0352   -580.16066     102002.7      46.7237      46.7237      46.7237 
   71000    92.422217   -7364.7083   -6884.7994   -739.85966     102002.7      46.7237      46.7237      46.7237 
   72000    88.585605   -7361.5384   -6901.5513   -810.00484     102002.7      46.7237      46.7237      46.7237 
   73000    90.376422   -7362.8368   -6893.5508   -702.84705     102002.7      46.7237      46.7237      46.7237 
   74000    94.463536   -7358.0367   -6867.5281   -823.40826     102002.7      46.7237      46.7237      46.7237 
   75000    90.441226   -7378.7381   -6909.1156   -504.95936     102002.7      46.7237      46.7237      46.7237 
   76000    91.044078   -7363.8296   -6891.0767   -630.52601     102002.7      46.7237      46.7237      46.7237 
   77000    92.381589   -7362.1682   -6882.4702   -376.61918     102002.7      46.7237      46.7237      46.7237 
   78000    94.332954   -7369.0008   -6879.1702   -647.78373     102002.7      46.7237      46.7237      46.7237 
   79000    88.767091   -7368.5914    -6907.662   -927.88415     102002.7      46.7237      46.7237      46.7237 
   80000    90.557261   -7359.1241   -6888.8991   -807.65269     102002.7      46.7237      46.7237      46.7237 
   81000    90.306943   -7347.4792    -6878.554   -891.28526     102002.7      46.7237      46.7237      46.7237 
   82000    91.231663   -7368.1897   -6894.4628   -623.29704     102002.7      46.7237      46.7237      46.7237 
   83000     91.55384   -7357.7044   -6882.3046   -739.57713     102002.7      46.7237      46.7237      46.7237 
   84000    90.491994   -7373.2613   -6903.3752   -644.36875     102002.7      46.7237      46.7237      46.7237 
   85000    90.470005   -7345.0535   -6875.2816   -873.04239     102002.7      46.7237      46.7237      46.7237 
   86000    89.399044   -7350.9161   -6886.7052   -903.10736     102002.7      46.7237      46.7237      46.7237 
   87000      90.3948   -7350.0559   -6880.6745    -665.3135     102002.7      46.7237      46.7237      46.7237 
   88000    91.652962   -7343.4296   -6867.5151   -859.34026     102002.7      46.7237      46.7237      46.7237 
   89000     91.20234   -7365.1568   -6891.5822   -709.20951     102002.7      46.7237      46.7237      46.7237 
   90000    89.677353   -7353.8284   -6888.1724   -737.80898     102002.7      46.7237      46.7237      46.7237 
   91000    89.523461   -7372.6699   -6907.8129   -711.30213     102002.7      46.7237      46.7237      46.7237 
   92000    91.900169   -7363.2173   -6886.0191   -584.96992     102002.7      46.7237      46.7237      46.7237 
   93000    87.155659   -7385.1368   -6932.5748   -849.40744     102002.7      46.7237      46.7237      46.7237 
   94000    91.598548   -7354.8309   -6879.1989   -733.25896     102002.7      46.7237      46.7237      46.7237 
   95000    88.987209   -7364.0544    -6901.982    -908.4102     102002.7      46.7237      46.7237      46.7237 
   96000    91.635361   -7348.9077   -6873.0845   -581.56027     102002.7      46.7237      46.7237      46.7237 
   97000    92.760723   -7361.7144   -6880.0478   -586.17288     102002.7      46.7237      46.7237      46.7237 
   98000    89.935531   -7373.8945   -6906.8979   -654.21929     102002.7      46.7237      46.7237      46.7237 
   99000    90.793409   -7366.8149   -6895.3637   -693.27051     102002.7      46.7237      46.7237      46.7237 
  100000    90.831799   -7367.3929   -6895.7423   -747.79577     102002.7      46.7237      46.7237      46.7237 
  101000    89.284061   -7371.6903   -6908.0765   -793.78017     102002.7      46.7237      46.7237      46.7237 
  102000    90.655137   -7364.9713    -6894.238   -914.47863     102002.7      46.7237      46.7237      46.7237 
  103000    95.189486   -7359.5777   -6865.2995   -705.20857     102002.7      46.7237      46.7237      46.7237 
  104000    89.281819   -7350.8499   -6887.2477   -632.42003     102002.7      46.7237      46.7237      46.7237 
  105000    89.189297   -7373.3553   -6910.2335   -941.41074     102002.7      46.7237      46.7237      46.7237 
  106000     91.02952   -7362.1776   -6889.5003   -829.36516     102002.7      46.7237      46.7237      46.7237 
  107000    88.955474   -7367.8138   -6905.9062   -716.07356     102002.7      46.7237      46.7237      46.7237 
  108000    94.411385   -7376.2483   -6886.0105   -832.60508     102002.7      46.7237      46.7237      46.7237 
  109000    89.173562   -7354.4485   -6891.4085   -559.00887     102002.7      46.7237      46.7237      46.7237 
  110000    92.219833   -7357.9635   -6879.1055   -831.64163     102002.7      46.7237      46.7237      46.7237 
  111000    90.341148    -7358.471   -6889.3682    -452.6775     102002.7      46.7237      46.7237      46.7237 
  112000     91.16664   -7375.5509   -6902.1617   -585.90168     102002.7      46.7237      46.7237      46.7237 
  113000    92.727807   -7375.3998   -6893.9041   -494.34938     102002.7      46.7237      46.7237      46.7237 
  114000    93.283249   -7352.5399   -6868.1599   -404.71262     102002.7      46.7237      46.7237      46.7237 
  115000    91.055334   -7361.9618   -6889.1505   -397.13965     102002.7      46.7237      46.7237      46.7237 
  116000    92.068604   -7362.2395   -6884.1667   -467.04888     102002.7      46.7237      46.7237      46.7237 
  117000    90.756895    -7352.847   -6881.5853   -440.64787     102002.7      46.7237      46.7237      46.7237 
  118000    90.797324   -7379.4404   -6907.9688   -553.51501     102002.7      46.7237      46.7237      46.7237 
  119000    91.165752   -7380.3112   -6906.9266   -454.24464     102002.7      46.7237      46.7237      46.7237 
  120000    93.455926   -7376.9971   -6891.7206    -345.7762     102002.7      46.7237      46.7237      46.7237 
  121000    93.337104   -7365.3489   -6880.6893   -566.16643     102002.7      46.7237      46.7237      46.7237 
  122000    89.200558   -7367.8852   -6904.7049   -657.41423     102002.7      46.7237      46.7237      46.7237 
  123000     88.14648   -7349.6654   -6891.9586   -807.22927     102002.7      46.7237      46.7237      46.7237 
  124000    92.494868   -7388.3276   -6908.0414   -738.21691     102002.7      46.7237      46.7237      46.7237 
  125000    92.081719   -7368.1127   -6889.9719    -384.4477     102002.7      46.7237      46.7237      46.7237 
  126000    90.510557   -7374.8798   -6904.8973   -585.38242     102002.7      46.7237      46.7237      46.7237 
  127000    91.832758   -7361.4194   -6884.5713   -481.32537     102002.7      46.7237      46.7237      46.7237 
  128000    89.228172   -7370.5397   -6907.2161   -448.17438     102002.7      46.7237      46.7237      46.7237 
  129000    92.533211   -7357.8774   -6877.3921   -826.74874     102002.7      46.7237      46.7237      46.7237 
  130000    89.181714   -7358.7347   -6895.6523   -791.46074     102002.7      46.7237      46.7237      46.7237 
  131000    93.882523   -7377.5755   -6890.0838   -284.19617     102002.7      46.7237      46.7237      46.7237 
  132000    93.053861   -7370.8197   -6887.6309   -741.72923     102002.7      46.7237      46.7237      46.7237 
  133000     89.50475   -7361.5339   -6896.7741    -478.8733     102002.7      46.7237      46.7237      46.7237 
  134000    88.474515    -7358.365   -6898.9548    -434.8653     102002.7      46.7237      46.7237      46.7237 
  135000    89.443168    -7367.007    -6902.567   -652.81253     102002.7      46.7237      46.7237      46.7237 
  136000    89.615032   -7348.3229   -6882.9905     -453.624     102002.7      46.7237      46.7237      46.7237 
  137000    88.441698    -7389.781   -6930.5412     -532.948     102002.7      46.7237      46.7237      46.7237 
  138000    93.340675   -7360.5892   -6875.9111    -646.0746     102002.7      46.7237      46.7237      46.7237 
  139000     89.20791   -7372.5159   -6909.2975    -697.3252     102002.7      46.7237      46.7237      46.7237 
  140000    92.787794    -7362.514   -6880.7068   -690.62096     102002.7      46.7237      46.7237      46.7237 
  141000    90.126671   -7382.3786   -6914.3895   -746.11789     102002.7      46.7237      46.7237      46.7237 
  142000    93.662117   -7364.2355   -6877.8883   -649.07561     102002.7      46.7237      46.7237      46.7237 
  143000    90.369857   -7375.9093   -6906.6574   -562.85785     102002.7      46.7237      46.7237      46.7237 
  144000    91.804544   -7366.3401   -6889.6385   -699.44729     102002.7      46.7237      46.7237      46.7237 
  145000    89.439279   -7355.8437   -6891.4239   -873.90973     102002.7      46.7237      46.7237      46.7237 
  146000      88.8324   -7374.6649   -6913.3963   -763.37322     102002.7      46.7237      46.7237      46.7237 
  147000    91.119872   -7373.3245   -6900.1781   -834.89601     102002.7      46.7237      46.7237      46.7237 
  148000    93.826275   -7355.8502   -6868.6506   -820.92371     102002.7      46.7237      46.7237      46.7237 
  149000    90.523514   -7362.8853   -6892.8355   -707.99533     102002.7      46.7237      46.7237      46.7237 
  150000    94.057934   -7379.5854   -6891.1829   -1149.0364     102002.7      46.7237      46.7237      46.7237 
  151000    92.204288   -7359.1373     -6880.36   -801.04888     102002.7      46.7237      46.7237      46.7237 
  152000    89.030926    -7367.523   -6905.2236   -712.15494     102002.7      46.7237      46.7237      46.7237 
  153000    91.257517   -7353.5263   -6879.6652   -791.78077     102002.7      46.7237      46.7237      46.7237 
  154000    91.319196   -7359.5598   -6885.3784   -941.91418     102002.7      46.7237      46.7237      46.7237 
  155000    91.035848    -7368.778   -6896.0679   -926.34337     102002.7      46.7237      46.7237      46.7237 
  156000    89.699818    -7361.429   -6895.6563   -699.81321     102002.7      46.7237      46.7237      46.7237 
  157000    91.815243   -7347.0458   -6870.2887   -665.42431     102002.7      46.7237      46.7237      46.7237 
  158000    91.550169   -7360.2968    -6884.916   -544.17507     102002.7      46.7237      46.7237      46.7237 
  159000    88.852191   -7379.0246   -6917.6533   -565.75673     102002.7      46.7237      46.7237      46.7237 
  160000    89.195034   -7366.6077   -6903.4561   -627.79261     102002.7      46.7237      46.7237      46.7237 
  161000    93.176795   -7365.1086   -6881.2814   -553.00109     102002.7      46.7237      46.7237      46.7237 
  162000    90.992583   -7384.2392   -6911.7537   -735.74377     102002.7      46.7237      46.7237      46.7237 
  163000    89.371637   -7364.9696    -6900.901   -740.52845     102002.7      46.7237      46.7237      46.7237 
  164000    92.450068   -7368.2447   -6888.1912   -776.73718     102002.7      46.7237      46.7237      46.7237 
  165000    87.885132   -7359.3363   -6902.9865   -625.05352     102002.7      46.7237      46.7237      46.7237 
  166000    89.627493   -7386.4631   -6921.0659   -967.18763     102002.7      46.7237      46.7237      46.7237 
  167000     90.74965   -7356.5707   -6885.3467   -719.31167     102002.7      46.7237      46.7237      46.7237 
  168000    91.425442   -7377.7526   -6903.0195   -584.13164     102002.7      46.7237      46.7237      46.7237 
  169000    95.465237   -7371.3644   -6875.6543   -569.15683     102002.7      46.7237      46.7237      46.7237 
  170000    90.075694   -7364.2977   -6896.5732   -1176.6154     102002.7      46.7237      46.7237      46.7237 
  171000    93.814046   -7363.5275   -6876.3914   -809.83269     102002.7      46.7237      46.7237      46.7237 
  172000    90.845527   -7355.9427   -6884.2208   -637.11261     102002.7      46.7237      46.7237      46.7237 
  173000    90.255335   -7376.1769   -6907.5196   -831.57684     102002.7      46.7237      46.7237      46.7237 
  174000    91.095434    -7376.688   -6903.6685   -653.30749     102002.7      46.7237      46.7237      46.7237 
  175000    90.296247    -7358.549   -6889.6793   -785.19802     102002.7      46.7237      46.7237      46.7237 
  176000    92.238616   -7362.1027   -6883.1471   -591.75924     102002.7      46.7237      46.7237      46.7237 
  177000    90.173075   -7360.2986   -6892.0685   -663.29089     102002.7      46.7237      46.7237      46.7237 
  178000    92.557936   -7368.6994   -6888.0857   -739.51579     102002.7      46.7237      46.7237      46.7237 
  179000    89.955584   -7359.4354   -6892.3347   -627.20143     102002.7      46.7237      46.7237      46.7237 
  180000    89.602709   -7376.0774   -6910.8089   -792.72543     102002.7      46.7237      46.7237      46.7237 
  181000    89.712795   -7350.5005   -6884.6604   -1018.1959     102002.7      46.7237      46.7237      46.7237 
  182000    90.468688   -7377.2737   -6907.5086   -312.79175     102002.7      46.7237      46.7237      46.7237 
  183000    92.685447   -7370.8745   -6889.5987   -626.43428     102002.7      46.7237      46.7237      46.7237 
  184000    91.410592   -7375.0235   -6900.3675   -738.84104     102002.7      46.7237      46.7237      46.7237 
  185000    90.596565   -7374.5464   -6904.1173   -737.81276     102002.7      46.7237      46.7237      46.7237 
  186000    87.626915   -7361.7243   -6906.7154   -651.86851     102002.7      46.7237      46.7237      46.7237 
  187000    88.135219   -7356.9533   -6899.3049   -513.70782     102002.7      46.7237      46.7237      46.7237 
  188000    89.690138    -7339.745   -6874.0225   -535.74608     102002.7      46.7237      46.7237      46.7237 
  189000    90.154705   -7363.3464   -6895.2117   -599.65658     102002.7      46.7237      46.7237      46.7237 
  190000    93.401268   -7359.2961   -6874.3034   -587.37616     102002.7      46.7237      46.7237      46.7237 
  191000    91.035379   -7359.5648   -6886.8571   -780.61396     102002.7      46.7237      46.7237      46.7237 
  192000    90.460343   -7365.2747   -6895.5529   -614.75076     102002.7      46.7237      46.7237      46.7237 
  193000    92.141522   -7372.0927   -6893.6413   -899.08399     102002.7      46.7237      46.7237      46.7237 
  194000    91.273085   -7377.7558   -6903.8138   -593.96313     102002.7      46.7237      46.7237      46.7237 
  195000    90.989291   -7367.7448   -6895.2764   -758.04826     102002.7      46.7237      46.7237      46.7237 
  196000    92.669679   -7360.3597   -6879.1658   -481.12152     102002.7      46.7237      46.7237      46.7237 
  197000     91.03809   -7368.1479   -6895.4261   -691.81585     102002.7      46.7237      46.7237      46.7237 
  198000    92.750564   -7353.6269    -6872.013   -610.20017     102002.7      46.7237      46.7237      46.7237 
  199000    90.120508   -7368.3849   -6900.4277   -693.09437     102002.7      46.7237      46.7237      46.7237 
  200000    87.088114   -7367.9618   -6915.7506   -759.08464     102002.7      46.7237      46.7237      46.7237 
  201000    93.727528   -7384.9022   -6898.2154   -695.09048     102002.7      46.7237      46.7237      46.7237 
  202000     88.33806   -7366.5982   -6907.8966   -645.00091     102002.7      46.7237      46.7237      46.7237 
  203000    94.417508   -7359.2838   -6869.0141   -690.42987     102002.7      46.7237      46.7237      46.7237 
  204000    90.928217   -7359.0345   -6886.8833   -762.80894     102002.7      46.7237      46.7237      46.7237 
  205000    91.179914      -7367.6   -6894.1418    -518.5861     102002.7      46.7237      46.7237      46.7237 
  206000    91.263754   -7375.4052   -6901.5117   -989.75223     102002.7      46.7237      46.7237      46.7237 
  207000    90.864232   -7353.0565   -6881.2375   -609.01645     102002.7      46.7237      46.7237      46.7237 
  208000    88.007055   -7381.4735   -6924.4906   -637.52915     102002.7      46.7237      46.7237      46.7237 
  209000    91.855756   -7363.4281   -6886.4605   -706.55678     102002.7      46.7237      46.7237      46.7237 
  210000    89.841657   -7364.3825   -6897.8733   -593.92145     102002.7      46.7237      46.7237      46.7237 
  211000    86.571429   -7355.3821   -6905.8538   -541.08041     102002.7      46.7237      46.7237      46.7237 
  212000    93.366781   -7364.1374   -6879.3237   -784.55428     102002.7      46.7237      46.7237      46.7237 
  213000     90.35057   -7360.3892   -6891.2374   -787.60355     102002.7      46.7237      46.7237      46.7237 
  214000    91.660696   -7367.0425   -6891.0878    -824.8371     102002.7      46.7237      46.7237      46.7237 
  215000     88.75193   -7362.1748   -6901.3241   -482.02159     102002.7      46.7237      46.7237      46.7237 
  216000    89.785381   -7377.4077   -6911.1907   -520.29639     102002.7      46.7237      46.7237      46.7237 
  217000    89.827092   -7359.4017   -6892.9681   -321.00333     102002.7      46.7237      46.7237      46.7237 
  218000    89.200935   -7366.7867   -6903.6045   -783.30118     102002.7      46.7237      46.7237      46.7237 
  219000    93.833761   -7360.0596   -6872.8211   -670.52377     102002.7      46.7237      46.7237      46.7237 
  220000    92.431389   -7361.0767   -6881.1202   -492.09947     102002.7      46.7237      46.7237      46.7237 
  221000    87.345021   -7362.0996   -6908.5544   -859.80235     102002.7      46.7237      46.7237      46.7237 
  222000    91.391141   -7367.2659   -6892.7109   -512.30737     102002.7      46.7237      46.7237      46.7237 
  223000    89.676999   -7338.8111    -6873.157    -761.2995     102002.7      46.7237      46.7237      46.7237 
  224000    91.300369   -7366.9403   -6892.8567   -818.30355     102002.7      46.7237      46.7237      46.7237 
  225000    89.165377   -7367.4556    -6904.458   -545.80817     102002.7      46.7237      46.7237      46.7237 
  226000    91.520308   -7352.8891   -6877.6634    -579.4892     102002.7      46.7237      46.7237      46.7237 
  227000    91.479292   -7365.4767    -6890.464   -638.51305     102002.7      46.7237      46.7237      46.7237 
  228000    88.820674   -7358.0802   -6896.8726   -753.49686     102002.7      46.7237      46.7237      46.7237 
  229000    94.587264   -7368.0931    -6876.942    -565.2956     102002.7      46.7237      46.7237      46.7237 
  230000    89.884083   -7356.3254   -6889.5959   -585.66263     102002.7      46.7237      46.7237      46.7237 
  231000    88.941627   -7365.0501   -6903.2144   -665.15941     102002.7      46.7237      46.7237      46.7237 
  232000     89.25894    -7364.172   -6900.6887   -745.05042     102002.7      46.7237      46.7237      46.7237 
  233000    90.916284   -7361.3108   -6889.2215   -831.62337     102002.7      46.7237      46.7237      46.7237 
  234000    89.924238   -7370.0846   -6903.1466   -662.76784     102002.7      46.7237      46.7237      46.7237 
  235000    92.214707   -7363.6609   -6884.8295   -655.74991     102002.7      46.7237      46.7237      46.7237 
  236000    92.823938   -7367.8762   -6885.8813   -523.72487     102002.7      46.7237      46.7237      46.7237 
  237000    89.779585   -7374.2084   -6908.0216   -553.25443     102002.7      46.7237      46.7237      46.7237 
  238000    95.532606   -7339.2832   -6843.2233   -858.85656     102002.7      46.7237      46.7237      46.7237 
  239000    90.945799   -7366.9286   -6894.6861   -718.80079     102002.7      46.7237      46.7237      46.7237 
  240000    88.357214   -7380.3246   -6921.5235   -575.65754     102002.7      46.7237      46.7237      46.7237 
  241000    89.107935   -7357.6491   -6894.9498   -693.75721     102002.7      46.7237      46.7237      46.7237 
  242000    92.134203   -7368.4448   -6890.0314   -778.45873     102002.7      46.7237      46.7237      46.7237 
  243000    89.186043   -7368.2622   -6905.1573   -895.24224     102002.7      46.7237      46.7237      46.7237 
  244000    93.020995   -7372.6983   -6889.6802    -944.1515     102002.7      46.7237      46.7237      46.7237 
  245000    89.515001    -7349.312    -6884.499   -794.35131     102002.7      46.7237      46.7237      46.7237 
  246000    90.264237   -7368.6809   -6899.9774   -598.66201     102002.7      46.7237      46.7237      46.7237 
  247000    92.187368   -7367.2321   -6888.5426   -619.72701     102002.7      46.7237      46.7237      46.7237 
  248000    87.755189    -7374.453    -6918.778   -786.76473     102002.7      46.7237      46.7237      46.7237 
  249000    93.857445    -7364.828   -6877.4666   -689.69945     102002.7      46.7237      46.7237      46.7237 
  250000    87.678139   -7361.6252   -6906.3502   -895.59967     102002.7      46.7237      46.7237      46.7237 
  251000    92.845909   -7366.3188   -6884.2098   -870.07858     102002.7      46.7237      46.7237      46.7237 
  252000    88.005051   -7372.6271   -6915.6546   -624.79372     102002.7      46.7237      46.7237      46.7237 
  253000    91.089634   -7375.3909   -6902.4015   -545.40549     102002.7      46.7237      46.7237      46.7237 
  254000    91.030646   -7356.6962   -6884.0131   -579.94355     102002.7      46.7237      46.7237      46.7237 
  255000    92.387605   -7369.4556   -6889.7264   -606.46924     102002.7      46.7237      46.7237      46.7237 
  256000     91.79859   -7380.1173   -6903.4466   -779.60948     102002.7      46.7237      46.7237      46.7237 
  257000    89.599376   -7382.4144   -6917.1633     -761.406     102002.7      46.7237      46.7237      46.7237 
  258000     91.89689   -7365.7222   -6888.5411   -642.45637     102002.7      46.7237      46.7237      46.7237 
  259000    88.328354    -7381.925   -6923.2738   -604.30147     102002.7      46.7237      46.7237      46.7237 
  260000    93.393419   -7363.9679    -6879.016   -685.85242     102002.7      46.7237      46.7237      46.7237 
  261000    88.752943    -7368.675   -6907.8191   -754.71359     102002.7      46.7237      46.7237      46.7237 
  262000    95.937228   -7344.4749    -6846.314   -654.38094     102002.7      46.7237      46.7237      46.7237 
  263000    91.073877   -7368.3411   -6895.4336   -554.51199     102002.7      46.7237      46.7237      46.7237 
  264000    92.687517   -7366.8143   -6885.5277   -588.01909     102002.7      46.7237      46.7237      46.7237 
  265000    90.009061   -7360.5522   -6893.1737   -973.69853     102002.7      46.7237      46.7237      46.7237 
  266000    92.339145   -7361.6248   -6882.1472   -632.25986     102002.7      46.7237      46.7237      46.7237 
  267000    91.802747   -7366.8431   -6890.1508   -677.82712     102002.7      46.7237      46.7237      46.7237 
  268000    91.932686   -7374.6213   -6897.2543   -656.39335     102002.7      46.7237      46.7237      46.7237 
  269000    92.676341   -7380.0698   -6898.8413   -817.62513     102002.7      46.7237      46.7237      46.7237 
  270000    92.001112    -7350.427   -6872.7047   -455.11307     102002.7      46.7237      46.7237      46.7237 
  271000    91.944752    -7372.272   -6894.8423   -474.60621     102002.7      46.7237      46.7237      46.7237 
  272000    89.765717   -7346.5146   -6880.3997   -617.80542     102002.7      46.7237      46.7237      46.7237 
  273000    91.810189   -7366.2492   -6889.5182   -631.15102     102002.7      46.7237      46.7237      46.7237 
  274000    88.770221   -7382.4783   -6921.5326   -794.28039     102002.7      46.7237      46.7237      46.7237 
  275000    92.011219   -7360.3641   -6882.5893    -614.0112     102002.7      46.7237      46.7237      46.7237 
  276000    89.522732   -7351.8158   -6886.9627   -699.27468     102002.7      46.7237      46.7237      46.7237 
  277000    90.524335   -7342.6574   -6872.6033   -639.91751     102002.7      46.7237      46.7237      46.7237 
  278000    90.107651   -7362.7579   -6894.8675   -622.09848     102002.7      46.7237      46.7237      46.7237 
  279000    91.480103   -7359.2104   -6884.1934   -709.20149     102002.7      46.7237      46.7237      46.7237 
  280000    89.587554   -7368.3579   -6903.1681   -554.31151     102002.7      46.7237      46.7237      46.7237 
  281000    86.458243   -7354.9186    -6905.978   -807.58137     102002.7      46.7237      46.7237      46.7237 
  282000    90.692035   -7363.0101   -6892.0853   -880.19669     102002.7      46.7237      46.7237      46.7237 
  283000    90.771376   -7347.1426   -6875.8058   -718.22095     102002.7      46.7237      46.7237      46.7237 
  284000    90.041173   -7357.0562    -6889.511   -499.13837     102002.7      46.7237      46.7237      46.7237 
  285000    89.696068   -7345.8517   -6880.0985   -881.09344     102002.7      46.7237      46.7237      46.7237 
  286000    89.671596   -7364.4587   -6898.8325   -535.78302     102002.7      46.7237      46.7237      46.7237 
  287000    90.359563   -7346.9725    -6877.774   -709.50564     102002.7      46.7237      46.7237      46.7237 
  288000    89.474488   -7386.4885   -6921.8859   -766.99956     102002.7      46.7237      46.7237      46.7237 
  289000    91.181368   -7364.0319   -6890.5662   -917.45397     102002.7      46.7237      46.7237      46.7237 
  290000    89.331987   -7375.2947    -6911.432   -624.89612     102002.7      46.7237      46.7237      46.7237 
  291000    89.185509   -7363.2768   -6900.1747   -523.66386     102002.7      46.7237      46.7237      46.7237 
  292000    92.861436    -7366.389   -6884.1994   -712.25637     102002.7      46.7237      46.7237      46.7237 
  293000    90.668091   -7371.2373   -6900.4368   -669.49201     102002.7      46.7237      46.7237      46.7237 
  294000    90.555572   -7380.9675   -6910.7513   -719.03727     102002.7      46.7237      46.7237      46.7237 
  295000     93.98998   -7359.3997     -6871.35   -692.21118     102002.7      46.7237      46.7237      46.7237 
  296000    91.419301   -7380.8583   -6906.1571   -826.30051     102002.7      46.7237      46.7237      46.7237 
  297000    93.703451   -7377.3644   -6890.8026   -926.84438     102002.7      46.7237      46.7237      46.7237 
  298000    89.607474   -7376.5213   -6911.2281   -701.24858     102002.7      46.7237      46.7237      46.7237 
  299000    91.183066   -7356.6151   -6883.1405   -954.26371     102002.7      46.7237      46.7237      46.7237 
  300000    88.322473   -7365.9665   -6907.3458   -917.27471     102002.7      46.7237      46.7237      46.7237 
  301000    88.861698   -7365.9711   -6904.5504   -672.48028     102002.7      46.7237      46.7237      46.7237 
  302000    90.475256   -7351.5883   -6881.7891   -762.31808     102002.7      46.7237      46.7237      46.7237 
  303000    93.935907   -7366.7457   -6878.9768   -612.97009     102002.7      46.7237      46.7237      46.7237 
  304000    87.632109   -7359.6571   -6904.6211   -513.77382     102002.7      46.7237      46.7237      46.7237 
  305000    90.580554   -7356.9491   -6886.6031   -513.98254     102002.7      46.7237      46.7237      46.7237 
  306000    90.545266   -7375.7088   -6905.5461   -733.99148     102002.7      46.7237      46.7237      46.7237 
  307000    93.061001   -7367.8972   -6884.6714   -585.05578     102002.7      46.7237      46.7237      46.7237 
  308000     88.71374    -7362.898   -6902.2456   -924.73636     102002.7      46.7237      46.7237      46.7237 
  309000    91.188533   -7353.2943   -6879.7913   -734.34395     102002.7      46.7237      46.7237      46.7237 
  310000    90.926422   -7369.0523   -6896.9103   -691.08567     102002.7      46.7237      46.7237      46.7237 
  311000    92.431702   -7364.9325   -6884.9743   -794.17685     102002.7      46.7237      46.7237      46.7237 
  312000     87.38224   -7359.3748   -6905.6363   -784.41955     102002.7      46.7237      46.7237      46.7237 
  313000    97.029767   -7360.8935   -6857.0595   -785.85104     102002.7      46.7237      46.7237      46.7237 
  314000    93.313195   -7383.3294    -6898.794   -605.25046     102002.7      46.7237      46.7237      46.7237 
  315000    95.347932   -7366.4101   -6871.3092   -690.14525     102002.7      46.7237      46.7237      46.7237 
  316000    91.197799   -7353.9044   -6880.3533   -1012.6634     102002.7      46.7237      46.7237      46.7237 
  317000    84.367358   -7375.7012   -6937.6177   -626.85525     102002.7      46.7237      46.7237      46.7237 
  318000    92.051488   -7368.7496   -6890.7657    -656.5602     102002.7      46.7237      46.7237      46.7237 
  319000    90.576097   -7383.8542   -6913.5313   -550.89566     102002.7      46.7237      46.7237      46.7237 
  320000    89.761985   -7359.7503   -6893.6549   -509.81579     102002.7      46.7237      46.7237      46.7237 
  321000    92.168723   -7359.8959   -6881.3033    -722.6364     102002.7      46.7237      46.7237      46.7237 
  322000    91.702195   -7354.4439   -6878.2737   -899.84986     102002.7      46.7237      46.7237      46.7237 
  323000    92.293442   -7368.5909   -6889.3507   -571.72373     102002.7      46.7237      46.7237      46.7237 
  324000    85.656758   -7370.8258   -6926.0469   -826.83604     102002.7      46.7237      46.7237      46.7237 
  325000    94.083228   -7361.2576   -6872.7238    -638.0377     102002.7      46.7237      46.7237      46.7237 
  326000    90.026647   -7362.2902   -6894.8205   -707.02404     102002.7      46.7237      46.7237      46.7237 
  327000    90.424127   -7369.6186   -6900.0849    -800.0529     102002.7      46.7237      46.7237      46.7237 
  328000    91.540276   -7359.3369   -6884.0075   -885.03379     102002.7      46.7237      46.7237      46.7237 
  329000    89.376971   -7348.7273    -6884.631    -607.8335     102002.7      46.7237      46.7237      46.7237 
  330000    91.660249   -7358.3027   -6882.3504   -708.01137     102002.7      46.7237      46.7237      46.7237 
  331000    92.009945   -7360.4761   -6882.7079    -592.9094     102002.7      46.7237      46.7237      46.7237 
  332000    90.229415   -7351.4298   -6882.9071   -590.23958     102002.7      46.7237      46.7237      46.7237 
  333000    90.257082   -7361.9322   -6893.2659   -663.53469     102002.7      46.7237      46.7237      46.7237 
  334000    89.532574   -7370.0479   -6905.1437   -683.55407     102002.7      46.7237      46.7237      46.7237 
  335000    91.988582   -7358.6982    -6881.041   -707.48848     102002.7      46.7237      46.7237      46.7237 
  336000    90.350558   -7358.5894   -6889.4377   -747.82159     102002.7      46.7237      46.7237      46.7237 
  337000    89.527437   -7371.4289   -6906.5513   -516.76971     102002.7      46.7237      46.7237      46.7237 
  338000    89.743113     -7379.38   -6913.3825    -880.3099     102002.7      46.7237      46.7237      46.7237 
  339000    91.716593   -7362.9953   -6886.7504   -466.46899     102002.7      46.7237      46.7237      46.7237 
  340000     89.79783   -7356.4258   -6890.1442    -741.6352     102002.7      46.7237      46.7237      46.7237 
  341000    89.777655   -7379.6877   -6913.5109   -610.36505     102002.7      46.7237      46.7237      46.7237 
  342000    92.167539   -7361.6424   -6883.0559   -468.66917     102002.7      46.7237      46.7237      46.7237 
  343000    92.194419   -7368.3554   -6889.6293   -512.10584     102002.7      46.7237      46.7237      46.7237 
  344000    88.171227    -7370.239   -6912.4036    -754.2753     102002.7      46.7237      46.7237      46.7237 
  345000    89.773671   -7359.2026   -6893.0464   -909.76639     102002.7      46.7237      46.7237      46.7237 
  346000    94.609659   -7363.7014    -6872.434   -971.14852     102002.7      46.7237      46.7237      46.7237 
  347000    90.366453   -7364.9072    -6895.673   -751.37103     102002.7      46.7237      46.7237      46.7237 
  348000    89.016988   -7359.4482   -6897.2212   -992.61878     102002.7      46.7237      46.7237      46.7237 
  349000     91.24638   -7363.3533     -6889.55   -835.31676     102002.7      46.7237      46.7237      46.7237 
  350000    89.099827   -7361.4648   -6898.8076   -577.24409     102002.7      46.7237      46.7237      46.7237 
  351000    88.677378   -7368.6776    -6908.214   -800.66361     102002.7      46.7237      46.7237      46.7237 
  352000    94.120476   -7376.3225   -6887.5953   -525.35237     102002.7      46.7237      46.7237      46.7237 
  353000     90.92439   -7370.7287   -6898.5973   -695.63362     102002.7      46.7237      46.7237      46.7237 
  354000    90.315814   -7354.0324   -6885.0611   -578.46601     102002.7      46.7237      46.7237      46.7237 
  355000    89.546173   -7353.4715   -6888.4966   -469.68441     102002.7      46.7237      46.7237      46.7237 
  356000    87.743753   -7378.4548   -6922.8392   -624.97325     102002.7      46.7237      46.7237      46.7237 
  357000    87.100308   -7369.6875    -6917.413   -589.90689     102002.7      46.7237      46.7237      46.7237 
  358000     90.81013   -7357.3803   -6885.8422   -549.07786     102002.7      46.7237      46.7237      46.7237 
  359000    87.218684   -7368.2838   -6915.3946   -476.80914     102002.7      46.7237      46.7237      46.7237 
  360000    91.033144   -7370.7532   -6898.0572   -773.28168     102002.7      46.7237      46.7237      46.7237 
  361000    91.806343   -7364.2778   -6887.5668   -428.96254     102002.7      46.7237      46.7237      46.7237 
  362000    89.870672   -7370.8474   -6904.1876   -814.41201     102002.7      46.7237      46.7237      46.7237 
  363000    90.996661   -7362.3297   -6889.8231    -605.1521     102002.7      46.7237      46.7237      46.7237 
  364000    91.362489   -7381.5526   -6907.1464   -532.72931     102002.7      46.7237      46.7237      46.7237 
  365000    89.671565   -7365.5022   -6899.8762   -755.72048     102002.7      46.7237      46.7237      46.7237 
  366000    92.375736   -7351.4966    -6871.829   -731.38924     102002.7      46.7237      46.7237      46.7237 
  367000    93.455405   -7380.0821   -6894.8082   -725.18786     102002.7      46.7237      46.7237      46.7237 
  368000    89.469192   -7366.0824   -6901.5072   -591.92442     102002.7      46.7237      46.7237      46.7237 
  369000    93.418458   -7359.3283   -6874.2464   -870.10726     102002.7      46.7237      46.7237      46.7237 
  370000    91.255865   -7360.9915   -6887.1389    -661.1386     102002.7      46.7237      46.7237      46.7237 
  371000    91.757812   -7377.7611   -6901.3021   -678.87044     102002.7      46.7237      46.7237      46.7237 
  372000    92.531939   -7378.1032   -6897.6245   -782.21439     102002.7      46.7237      46.7237      46.7237 
  373000    95.086407   -7339.5786   -6845.8356   -502.27565     102002.7      46.7237      46.7237      46.7237 
  374000    92.064205   -7367.5451   -6889.4952   -986.43047     102002.7      46.7237      46.7237      46.7237 
  375000    90.517261   -7365.1376   -6895.1203   -507.13483     102002.7      46.7237      46.7237      46.7237 
  376000      91.2727    -7352.188   -6878.2481   -549.14073     102002.7      46.7237      46.7237      46.7237 
  377000     90.65996   -7366.7378   -6895.9795   -710.72779     102002.7      46.7237      46.7237      46.7237 
  378000     93.56052   -7372.3222   -6886.5025   -548.00711     102002.7      46.7237      46.7237      46.7237 
  379000    92.429036   -7366.1478   -6886.2035    -614.4567     102002.7      46.7237      46.7237      46.7237 
  380000    89.122484   -7361.7485   -6898.9736   -750.95542     102002.7      46.7237      46.7237      46.7237 
  381000    93.074151    -7363.515   -6880.2208    -665.9139     102002.7      46.7237      46.7237      46.7237 
  382000    90.091181   -7351.3174   -6883.5125   -636.57233     102002.7      46.7237      46.7237      46.7237 
  383000    89.363909   -7369.2638   -6905.2354   -633.57833     102002.7      46.7237      46.7237      46.7237 
  384000     93.66946   -7368.5567   -6882.1713    -911.1832     102002.7      46.7237      46.7237      46.7237 
  385000    91.685419   -7366.2339   -6890.1508     -719.463     102002.7      46.7237      46.7237      46.7237 
  386000    89.966893   -7362.1106   -6894.9511   -596.82898     102002.7      46.7237      46.7237      46.7237 
  387000    92.779272   -7374.6291   -6892.8661   -627.87371     102002.7      46.7237      46.7237      46.7237 
  388000    93.484494   -7389.5123   -6904.0874   -455.62412     102002.7      46.7237      46.7237      46.7237 
  389000    91.805684   -7361.5763   -6884.8688    -578.2294     102002.7      46.7237      46.7237      46.7237 
  390000    93.280513   -7365.9732   -6881.6075   -769.35328     102002.7      46.7237      46.7237      46.7237 
  391000    90.080569   -7362.8269   -6895.0771   -723.82128     102002.7      46.7237      46.7237      46.7237 
  392000     90.48381   -7355.0212   -6885.1776   -956.24431     102002.7      46.7237      46.7237      46.7237 
  393000    90.656537   -7375.9819   -6905.2414   -823.24557     102002.7      46.7237      46.7237      46.7237 
  394000     89.46711   -7362.0879   -6897.5236    -649.9875     102002.7      46.7237      46.7237      46.7237 
  395000    93.108817   -7363.5428   -6880.0687   -786.57252     102002.7      46.7237      46.7237      46.7237 
  396000    90.929787   -7367.9784    -6895.819   -790.89192     102002.7      46.7237      46.7237      46.7237 
  397000    95.156265   -7359.7422   -6865.6365   -706.11243     102002.7      46.7237      46.7237      46.7237 
  398000    90.945126   -7365.5432   -6893.3042   -838.33446     102002.7      46.7237      46.7237      46.7237 
  399000    93.633067   -7352.0413   -6865.8449   -694.45497     102002.7      46.7237      46.7237      46.7237 
  400000    91.072442   -7364.0828   -6891.1827   -469.79975     102002.7      46.7237      46.7237      46.7237 
  401000    90.211373   -7365.7325   -6897.3036   -683.79102     102002.7      46.7237      46.7237      46.7237 
  402000    91.760015   -7355.8644    -6879.394   -564.84759     102002.7      46.7237      46.7237      46.7237 
  403000    90.688398   -7376.5007   -6905.5948   -876.73676     102002.7      46.7237      46.7237      46.7237 
  404000    92.979716   -7365.1643   -6882.3605   -686.84051     102002.7      46.7237      46.7237      46.7237 
  405000    92.496698   -7369.7821   -6889.4864   -627.14104     102002.7      46.7237      46.7237      46.7237 
  406000    88.819861   -7370.2102   -6909.0067   -708.75177     102002.7      46.7237      46.7237      46.7237 
  407000    91.160867    -7359.209   -6885.8498   -492.59144     102002.7      46.7237      46.7237      46.7237 
  408000    92.231497   -7379.7673   -6900.8487   -629.77591     102002.7      46.7237      46.7237      46.7237 
  409000    89.399689    -7356.099   -6891.8848   -787.33193     102002.7      46.7237      46.7237      46.7237 
  410000    89.970838   -7363.2324   -6896.0524    -603.9857     102002.7      46.7237      46.7237      46.7237 
  411000    92.037085   -7346.8679   -6868.9588   -707.06716     102002.7      46.7237      46.7237      46.7237 
  412000     88.59037    -7365.785   -6905.7732   -761.98017     102002.7      46.7237      46.7237      46.7237 
  413000    88.588763   -7357.9646   -6897.9612   -704.80118     102002.7      46.7237      46.7237      46.7237 
  414000    92.212585   -7364.2854    -6885.465   -858.77145     102002.7      46.7237      46.7237      46.7237 
  415000    90.357012   -7373.7731   -6904.5879    -851.3665     102002.7      46.7237      46.7237      46.7237 
  416000    90.969536   -7363.4953   -6891.1295   -720.67852     102002.7      46.7237      46.7237      46.7237 
  417000     92.06888   -7343.9157   -6865.8415   -755.59841     102002.7      46.7237      46.7237      46.7237 
  418000    91.394811   -7359.6265   -6885.0524   -499.85296     102002.7      46.7237      46.7237      46.7237 
  419000    89.932599   -7363.2393   -6896.2579   -785.58541     102002.7      46.7237      46.7237      46.7237 
  420000     90.99359   -7369.1541   -6896.6634   -551.89476     102002.7      46.7237      46.7237      46.7237 
  421000    90.356046   -7378.7299   -6909.5498   -513.33743     102002.7      46.7237      46.7237      46.7237 
  422000    93.298488   -7370.6399   -6886.1808   -668.75836     102002.7      46.7237      46.7237      46.7237 
  423000    91.963666   -7374.5885   -6897.0607   -604.17528     102002.7      46.7237      46.7237      46.7237 
  424000     87.31718   -7372.5957    -6919.195   -668.29597     102002.7      46.7237      46.7237      46.7237 
  425000     93.11408    -7370.285   -6886.7836   -692.42767     102002.7      46.7237      46.7237      46.7237 
  426000    89.708831   -7361.2395   -6895.4201   -590.74374     102002.7      46.7237      46.7237      46.7237 
  427000    93.464734   -7372.2123     -6886.89   -484.97444     102002.7      46.7237      46.7237      46.7237 
  428000    91.513285   -7357.1167   -6881.9274   -740.91498     102002.7      46.7237      46.7237      46.7237 
  429000    89.350966   -7368.4249   -6904.4636   -635.23819     102002.7      46.7237      46.7237      46.7237 
  430000    90.908187   -7359.1179   -6887.0707   -873.83819     102002.7      46.7237      46.7237      46.7237 
  431000    89.900118   -7344.7154   -6877.9027   -728.58395     102002.7      46.7237      46.7237      46.7237 
  432000    91.037915   -7350.1071   -6877.3862   -1098.8386     102002.7      46.7237      46.7237      46.7237 
  433000    89.077944   -7359.4294   -6896.8858   -1065.1747     102002.7      46.7237      46.7237      46.7237 
  434000    92.437798   -7380.3978    -6900.408   -1037.1373     102002.7      46.7237      46.7237      46.7237 
  435000    93.765419   -7340.6548   -6853.7712   -889.07108     102002.7      46.7237      46.7237      46.7237 
  436000    91.003705   -7374.1666   -6901.6234   -801.96213     102002.7      46.7237      46.7237      46.7237 
  437000    92.081647   -7357.9338   -6879.7933   -1009.2369     102002.7      46.7237      46.7237      46.7237 
  438000    89.519482   -7356.4691   -6891.6328   -901.20159     102002.7      46.7237      46.7237      46.7237 
  439000    89.393709   -7367.5997   -6903.4165   -600.50381     102002.7      46.7237      46.7237      46.7237 
  440000    94.774852   -7371.6031   -6879.4779    -957.3122     102002.7      46.7237      46.7237      46.7237 
  441000    89.219539   -7378.2372   -6914.9584   -446.73322     102002.7      46.7237      46.7237      46.7237 
  442000    87.243602   -7362.0109   -6908.9923   -635.67148     102002.7      46.7237      46.7237      46.7237 
  443000    93.216019   -7343.3599   -6859.3291   -569.78109     102002.7      46.7237      46.7237      46.7237 
  444000    89.765365   -7375.2996   -6909.1865   -592.94518     102002.7      46.7237      46.7237      46.7237 
  445000    87.768958   -7358.3793   -6902.6327   -764.69524     102002.7      46.7237      46.7237      46.7237 
  446000    91.700055   -7356.8777   -6880.7187   -719.53107     102002.7      46.7237      46.7237      46.7237 
  447000    92.196746    -7365.702   -6886.9639    -798.9781     102002.7      46.7237      46.7237      46.7237 
  448000    91.012346   -7367.0056   -6894.4175    -829.7083     102002.7      46.7237      46.7237      46.7237 
  449000    88.792164   -7369.2076    -6908.148   -553.68284     102002.7      46.7237      46.7237      46.7237 
  450000    91.724366   -7368.6995   -6892.4142   -710.91566     102002.7      46.7237      46.7237      46.7237 
  451000     90.59463   -7376.1218   -6905.7028   -499.07398     102002.7      46.7237      46.7237      46.7237 
  452000    88.805354   -7360.3847   -6899.2566    -561.9871     102002.7      46.7237      46.7237      46.7237 
  453000    92.505751   -7355.8321   -6875.4894   -610.45513     102002.7      46.7237      46.7237      46.7237 
  454000     89.56389   -7371.7825   -6906.7156    -386.9063     102002.7      46.7237      46.7237      46.7237 
  455000    90.361939   -7357.7102   -6888.4995   -699.65836     102002.7      46.7237      46.7237      46.7237 
  456000     91.58652   -7380.7006   -6905.1311   -685.76919     102002.7      46.7237      46.7237      46.7237 
  457000    90.706332   -7373.0484   -6902.0494   -914.81067     102002.7      46.7237      46.7237      46.7237 
  458000    90.984788    -7359.273    -6886.828   -962.65085     102002.7      46.7237      46.7237      46.7237 
  459000    85.857601   -7346.3501   -6900.5284   -664.87748     102002.7      46.7237      46.7237      46.7237 
  460000    90.124166    -7369.732   -6901.7558   -920.63743     102002.7      46.7237      46.7237      46.7237 
  461000    91.706943   -7345.9978    -6869.803   -768.06317     102002.7      46.7237      46.7237      46.7237 
  462000    89.944206   -7360.8092   -6893.7675   -827.49063     102002.7      46.7237      46.7237      46.7237 
  463000     89.50816   -7372.9796   -6908.2021   -783.84952     102002.7      46.7237      46.7237      46.7237 
  464000     93.67316   -7368.8767   -6882.4722   -648.27937     102002.7      46.7237      46.7237      46.7237 
  465000    88.952016   -7368.9818   -6907.0921   -652.96202     102002.7      46.7237      46.7237      46.7237 
  466000    91.202445   -7360.2025   -6886.6273   -636.35433     102002.7      46.7237      46.7237      46.7237 
  467000     91.87372   -7368.4556   -6891.3948   -783.25392     102002.7      46.7237      46.7237      46.7237 
  468000    93.579273   -7348.8852   -6862.9682   -502.91278     102002.7      46.7237      46.7237      46.7237 
  469000    87.717052   -7350.8834   -6895.4064   -940.93525     102002.7      46.7237      46.7237      46.7237 
  470000    89.832655    -7362.499   -6896.0366   -488.78733     102002.7      46.7237      46.7237      46.7237 
  471000    92.469831   -7367.2929   -6887.1367   -757.21236     102002.7      46.7237      46.7237      46.7237 
  472000    92.035954   -7364.9887   -6887.0854    -703.1491     102002.7      46.7237      46.7237      46.7237 
  473000     87.63262   -7362.2763   -6907.2377   -832.31127     102002.7      46.7237      46.7237      46.7237 
  474000    91.976689    -7353.458   -6875.8625   -547.89215     102002.7      46.7237      46.7237      46.7237 
  475000    90.767066   -7381.5015   -6910.1871   -648.84312     102002.7      46.7237      46.7237      46.7237 
  476000    92.612398   -7358.0147   -6877.1183   -1050.5449     102002.7      46.7237      46.7237      46.7237 
  477000    89.684569   -7361.7751   -6896.0816   -799.37247     102002.7      46.7237      46.7237      46.7237 
  478000    92.811752   -7368.7305   -6886.7989   -981.52044     102002.7      46.7237      46.7237      46.7237 
  479000    89.378787   -7356.3336   -6892.2278   -679.80335     102002.7      46.7237      46.7237      46.7237 
  480000    89.921783   -7363.6437   -6896.7185   -872.34819     102002.7      46.7237      46.7237      46.7237 
  481000    90.029695   -7342.9382   -6875.4526   -806.93016     102002.7      46.7237      46.7237      46.7237 
  482000    91.235264   -7382.0947   -6908.3491   -583.14948     102002.7      46.7237      46.7237      46.7237 
  483000    87.483153   -7372.8178   -6918.5553    -779.7171     102002.7      46.7237      46.7237      46.7237 
  484000    91.732401   -7367.7302   -6891.4032   -613.64554     102002.7      46.7237      46.7237      46.7237 
  485000    85.362474   -7367.0501   -6923.7994   -682.96894     102002.7      46.7237      46.7237      46.7237 
  486000    91.222778   -7366.3915   -6892.7107   -914.37052     102002.7      46.7237      46.7237      46.7237 
  487000    90.707431   -7345.4683   -6874.4635   -695.94121     102002.7      46.7237      46.7237      46.7237 
  488000    88.680263   -7359.2965   -6898.8179   -522.14715     102002.7      46.7237      46.7237      46.7237 
  489000    91.407244   -7366.4357   -6891.7971   -682.11094     102002.7      46.7237      46.7237      46.7237 
  490000    92.318376   -7370.5544   -6891.1847   -724.03752     102002.7      46.7237      46.7237      46.7237 
  491000     91.12033   -7354.6396   -6881.4908   -558.00659     102002.7      46.7237      46.7237      46.7237 
  492000    89.686656   -7369.7557   -6904.0514   -902.20718     102002.7      46.7237      46.7237      46.7237 
  493000    91.813305   -7376.4012   -6899.6541   -625.91783     102002.7      46.7237      46.7237      46.7237 
  494000    97.855956   -7354.6282   -6846.5042   -1130.1954     102002.7      46.7237      46.7237      46.7237 
  495000    89.552638    -7370.665   -6905.6565   -676.94858     102002.7      46.7237      46.7237      46.7237 
  496000     93.65473    -7379.892   -6893.5831   -816.26212     102002.7      46.7237      46.7237      46.7237 
  497000    91.464792   -7353.7051   -6878.7676   -988.45183     102002.7      46.7237      46.7237      46.7237 
  498000    90.130146   -7358.1006   -6890.0934   -622.98277     102002.7      46.7237      46.7237      46.7237 
  499000    92.923851   -7377.6615   -6895.1478   -989.39477     102002.7      46.7237      46.7237      46.7237 
  500000    88.271532   -7384.5083   -6926.1521   -1140.9335     102002.7      46.7237      46.7237      46.7237 
  500505    91.762256   -7370.0711   -6893.5891   -603.81161     102002.7      46.7237      46.7237      46.7237 
Loop time of 1283.14 on 16 procs for 500000 steps with 1743 atoms

Performance: 33.667 ns/day, 0.713 hours/ns, 389.670 timesteps/s
99.8% CPU use with 16 MPI tasks x no OpenMP threads

MPI task timing breakdown:
Section |  min time  |  avg time  |  max time  |%varavg| %total
---------------------------------------------------------------
Pair    | 528.43     | 685.38     | 894.17     | 440.0 | 53.41
Bond    | 162.84     | 173.93     | 186.3      |  48.0 | 13.55
Neigh   | 3.4513     | 3.4672     | 3.4835     |   0.6 |  0.27
Comm    | 187.78     | 406.5      | 564.9      | 577.6 | 31.68
Output  | 0.020426   | 0.020846   | 0.023873   |   0.5 |  0.00
Modify  | 7.0767     | 8.3854     | 9.4975     |  29.8 |  0.65
Other   |            | 5.462      |            |       |  0.43

Nlocal:    108.938 ave 137 max 80 min
Histogram: 1 2 2 1 2 1 2 1 3 1
Nghost:    2210.31 ave 2241 max 2177 min
Histogram: 1 1 2 0 5 0 2 2 2 1
Neighs:    11457.5 ave 15903 max 6927 min
Histogram: 1 2 3 1 1 1 2 1 1 3

Total # of neighbors = 183320
Ave neighs/atom = 105.175
Ave special neighs/atom = 6.60929
Neighbor list builds = 2983
Dangerous builds = 0
Neighbor list info ...
  update every 1 steps, delay 10 steps, check yes
  max neighbors/atom: 2000, page size: 100000
  master list distance cutoff = 16
  ghost atom cutoff = 16
  binsize = 8, bins = 6 6 6
  3 neighbor lists, perpetual/occasional/extra = 3 0 0
  (1) pair buck6d/coul/gauss/dsf, perpetual, skip from (3)
      attributes: half, newton on
      pair build: skip
      stencil: none
      bin: none
  (2) pair lj/cut, perpetual, skip from (3)
      attributes: half, newton on
      pair build: skip
      stencil: none
      bin: none
  (3) neighbor class addition, perpetual
      attributes: half, newton on
      pair build: half/bin/newton
      stencil: half/bin/3d/newton
      bin: standard
Setting up Verlet run ...
  Unit style    : real
  Current step  : 500505
  Time step     : 1
WARNING: Inconsistent image flags (../domain.cpp:786)
Per MPI rank memory allocation (min/avg/max) = 22.88 | 23.29 | 23.34 Mbytes
Step Time TotEng KinEng PotEng E_mol E_pair Temp Pxx Pyy Pzz Pxy Pxz Pyz Cella Cellb Cellc CellAlpha CellBeta CellGamma Volume Press 
  500505       500000   -6893.5891    476.48204   -7370.0711    4190.9574   -11561.029    91.762256   -605.82088   -604.79742   -600.81652    136.05439   -276.11698   -134.08664      46.7237      46.7237      46.7237           90           90           90     102002.7   -603.81161 
  501000       500495   -6888.5317    483.37226   -7371.9039    4200.1353   -11572.039    93.089194   -833.68082   -868.45973   -651.25451  -0.49535529   -246.53236    -119.4676      46.7237      46.7237      46.7237           90           90           90     102002.7   -784.46502 
  502000       501495   -6886.1029    468.76433   -7354.8672    4217.1314   -11571.999    90.275958    -826.0185   -1113.5402   -981.68463   -177.45124    90.478425   -183.41978      46.7237      46.7237      46.7237           90           90           90     102002.7   -973.74779 
  503000       502495   -6889.1085    485.62528   -7374.7338    4207.7404   -11582.474    93.523086   -1032.0974   -659.79533   -667.71385    -10.64527   -171.59136    41.756675      46.7237      46.7237      46.7237           90           90           90     102002.7   -786.53553 
  504000       503495   -6874.5717    478.16664   -7352.7383    4231.0398   -11583.778    92.086682   -612.65975    -888.4702   -625.85564   -76.985727   -51.439306   -34.306911      46.7237      46.7237      46.7237           90           90           90     102002.7    -708.9952 
  505000       504495   -6892.0801    465.97559   -7358.0557    4202.6833   -11560.739    89.738893    -767.3134   -389.88558   -892.34308    82.749586    61.170224   -109.76888      46.7237      46.7237      46.7237           90           90           90     102002.7   -683.18069 
  506000       505495   -6895.9672    487.75879    -7383.726    4209.4798   -11593.206    93.933965   -73.763517   -494.29805   -417.92466   -22.381808     151.9266   -37.748705      46.7237      46.7237      46.7237           90           90           90     102002.7   -328.66207 
  507000       506495   -6900.2897    465.49255   -7365.7823    4202.9034   -11568.686    89.645869   -575.71754   -625.08578   -454.52841    166.65203   -108.80581   -215.69424      46.7237      46.7237      46.7237           90           90           90     102002.7   -551.77724 
  508000       507495   -6877.8204    487.91514   -7365.7355    4204.6633   -11570.399    93.964074   -691.62271   -578.26968    -257.2201    43.491724    60.514414   -109.16894      46.7237      46.7237      46.7237           90           90           90     102002.7    -509.0375 
  509000       508495   -6911.7003    458.81044   -7370.5107     4198.701   -11569.212    88.359009   -291.13143   -371.86355   -212.47868   -81.824381    125.84812    139.38621      46.7237      46.7237      46.7237           90           90           90     102002.7   -291.82456 
  510000       509495     -6885.62    490.40101    -7376.021    4202.9779   -11578.999     94.44281   -492.64095   -688.94692   -44.139553    136.45617    6.9558813   -92.145053      46.7237      46.7237      46.7237           90           90           90     102002.7   -408.57581 
  511000       510495   -6903.2118    467.36911   -7370.5809    4205.4224   -11576.003    90.007263   -594.94765   -401.33824   -703.35145    54.908369   -8.0248607     232.5498      46.7237      46.7237      46.7237           90           90           90     102002.7   -566.54578 
  512000       511495   -6865.0704    494.23504   -7359.3055    4215.3249    -11574.63     95.18118   -309.09555   -829.82978   -713.26862   -195.24109     56.94544    82.522398      46.7237      46.7237      46.7237           90           90           90     102002.7   -617.39799 
  513000       512495   -6901.9279    464.59658   -7366.5245    4211.5544   -11578.079    89.473321   -727.11372   -708.66191   -550.24614   -223.38363    75.117479     161.1071      46.7237      46.7237      46.7237           90           90           90     102002.7   -662.00725 
  514000       513495   -6897.5929    472.05722   -7369.6501    4213.9868   -11583.637    90.910111   -563.66019   -384.34007   -1077.9418    6.4713187    -8.700031   -92.693251      46.7237      46.7237      46.7237           90           90           90     102002.7   -675.31403 
  515000       514495   -6876.6949    473.50213   -7350.1971    4223.9916   -11574.189    91.188376   -261.64153   -1000.1775   -564.42742   -67.924755   -34.745439    37.254372      46.7237      46.7237      46.7237           90           90           90     102002.7   -608.74881 
  516000       515495   -6898.3606    481.33087   -7379.6915     4207.751   -11587.443    92.696058   -800.95126   -486.37801   -649.06255    61.230727   -129.15382    148.46477      46.7237      46.7237      46.7237           90           90           90     102002.7   -645.46394 
  517000       516495   -6883.0914     474.6724   -7357.7638    4225.2154   -11582.979    91.413751     -759.135   -542.96607   -701.59165   -79.871351    -108.4589    152.96759      46.7237      46.7237      46.7237           90           90           90     102002.7   -667.89757 
  518000       517495   -6879.0203    469.91872    -7348.939    4235.3724   -11584.311    90.498274   -835.74691    -970.4715   -627.81188    3.7118286   -109.49461   -231.31461      46.7237      46.7237      46.7237           90           90           90     102002.7   -811.34343 
  519000       518495   -6886.2761    468.08728   -7354.3634    4224.1249   -11578.488    90.145569   -1103.3052   -1024.6927   -300.87833   -113.18548    39.086677   -32.022417      46.7237      46.7237      46.7237           90           90           90     102002.7   -809.62544 
  520000       519495   -6898.3261    485.68733   -7384.0135       4199.5   -11583.513    93.535037    -850.2509    -834.7258   -638.54365    49.385195     114.8829   -46.590189      46.7237      46.7237      46.7237           90           90           90     102002.7   -774.50679 
  521000       520495   -6883.3479     478.1989   -7361.5468    4220.6214   -11582.168    92.092893   -1023.9954   -891.29055   -741.66563   -72.616281    1.4489789    30.743874      46.7237      46.7237      46.7237           90           90           90     102002.7   -885.65053 
  522000       521495     -6888.54    474.73121   -7363.2712    4218.9605   -11582.232    91.425076   -327.05085   -992.85804   -179.83157   -21.108295    45.741853    107.19681      46.7237      46.7237      46.7237           90           90           90     102002.7   -499.91349 
  523000       522495   -6924.7318    452.07924    -7376.811    4205.4229   -11582.234    87.062697   -605.64588   -1025.3736   -694.58073    86.186067   -105.10191   -88.526603      46.7237      46.7237      46.7237           90           90           90     102002.7   -775.20007 
  524000       523495   -6890.2556    472.36595   -7362.6216    4214.0801   -11576.702    90.969568   -589.27818   -544.08696   -519.56896   -13.349173   -69.851255     257.8889      46.7237      46.7237      46.7237           90           90           90     102002.7   -550.97803 
  525000       524495   -6904.4791    465.98991    -7370.469    4205.0795   -11575.549    89.741653   -840.01115   -733.71132   -577.04899    62.650809   -154.07344    72.086035      46.7237      46.7237      46.7237           90           90           90     102002.7   -716.92382 
  526000       525495   -6905.9793     459.4415   -7365.4208    4221.8236   -11587.244     88.48054   -801.39473   -786.20816   -1094.2224    182.90781    70.893417    154.33972      46.7237      46.7237      46.7237           90           90           90     102002.7   -893.94175 
  527000       526495   -6887.2394    476.56501   -7363.8044     4221.973   -11585.777    91.778235   -392.21919   -851.16622   -740.77302    92.442522     117.1634   -91.652307      46.7237      46.7237      46.7237           90           90           90     102002.7   -661.38614 
  528000       527495   -6883.7407    476.62618   -7360.3669     4221.221   -11581.588    91.790015   -1144.1924   -988.38608    -807.3006   -55.106138   -125.24682   -209.40522      46.7237      46.7237      46.7237           90           90           90     102002.7   -979.95969 
  529000       528495   -6899.3222    483.12347   -7382.4457    4193.5107   -11575.956    93.041282   -550.39255   -582.12742   -811.11095    -172.9396    26.163008     21.73316      46.7237      46.7237      46.7237           90           90           90     102002.7   -647.87697 
  530000       529495   -6882.0542    476.43881   -7358.4931    4224.5194   -11583.012     91.75393   -154.46739   -825.43917   -920.94785     165.5453    187.03388    82.698535      46.7237      46.7237      46.7237           90           90           90     102002.7   -633.61814 
  531000       530495   -6891.1298    474.81359   -7365.9434    4208.6191   -11574.563    91.440942   -376.36002   -591.92117    -558.6485    26.189221    -41.52985    139.41375      46.7237      46.7237      46.7237           90           90           90     102002.7   -508.97656 
  532000       531495   -6916.3875    461.35687   -7377.7443    4186.6733   -11564.418    88.849408    -500.9886   -615.96523   -1185.4679    198.50768   -57.860396    59.709219      46.7237      46.7237      46.7237           90           90           90     102002.7   -767.47391 
  533000       532495   -6890.2057    469.94229    -7360.148    4234.4175   -11594.566    90.502812   -779.36603    -672.9017   -679.58431   -305.22929   -100.91428    35.892786      46.7237      46.7237      46.7237           90           90           90     102002.7   -710.61735 
  534000       533495   -6873.5184    477.05599   -7350.5744    4233.3339   -11583.908     91.87279   -926.32573   -822.18502   -540.41945   -195.16264   -155.82889    93.112762      46.7237      46.7237      46.7237           90           90           90     102002.7   -762.97673 
  535000       534495   -6893.0569    476.74364   -7369.8006    4212.3287   -11582.129    91.812636   -1112.9561   -748.43968   -227.59292    55.637256   -85.047152   -35.741353      46.7237      46.7237      46.7237           90           90           90     102002.7   -696.32958 
  536000       535495    -6873.771    482.31414   -7356.0851    4227.1049    -11583.19    92.885419   -412.52482   -939.62386   -450.08509   -147.01493    121.31097   -165.70557      46.7237      46.7237      46.7237           90           90           90     102002.7   -600.74459 
  537000       536495   -6888.7282    470.95485   -7359.6831    4219.1423   -11578.825    90.697815   -928.18036   -581.65649   -527.77321   -30.402812    96.808769   -4.3721935      46.7237      46.7237      46.7237           90           90           90     102002.7   -679.20335 
  538000       537495   -6909.2755    467.71133   -7376.9869    4205.4033    -11582.39    90.073167   -1256.2959   -812.41258   -431.91023    281.85659   -48.605947     118.7477      46.7237      46.7237      46.7237           90           90           90     102002.7   -833.53958 
  539000       538495   -6883.9655    469.69843   -7353.6639    4221.6782   -11575.342     90.45585   -474.83909   -722.25717   -807.72658    4.5179734   -107.40654    -83.93509      46.7237      46.7237      46.7237           90           90           90     102002.7   -668.27428 
  540000       539495   -6900.8266      460.832   -7361.6585    4223.7614    -11585.42    88.748326   -833.14987   -1138.8432   -757.31805    143.47653    174.43243    28.519924      46.7237      46.7237      46.7237           90           90           90     102002.7   -909.77039 
  541000       540495   -6879.2293    478.80071   -7358.0301    4210.4552   -11568.485    92.208793   -537.43453   -605.72107   -462.23245   -47.123857    83.905849    79.291333      46.7237      46.7237      46.7237           90           90           90     102002.7   -535.12935 
  542000       541495   -6917.8847    465.01258   -7382.8973    4191.2425    -11574.14    89.553435   -858.21467   -697.56102    -685.4551     215.2335    -10.45863   -317.82086      46.7237      46.7237      46.7237           90           90           90     102002.7   -747.07693 
  543000       542495    -6886.537    481.20858   -7367.7455    4221.7976   -11589.543    92.672506   -755.52189   -761.94789   -688.09063   -7.6210456    85.598261    30.092278      46.7237      46.7237      46.7237           90           90           90     102002.7    -735.1868 
  544000       543495   -6869.9869    492.31863   -7362.3055    4227.4511   -11589.757    94.812112   -774.59539   -758.21631   -455.63262   -23.795048   -17.984656   -163.94358      46.7237      46.7237      46.7237           90           90           90     102002.7   -662.81477 
  545000       544495   -6900.3776    467.00298   -7367.3805    4208.9471   -11576.328    89.936753   -1048.8083   -979.93858   -805.06668   -174.95244   -110.36625    72.437085      46.7237      46.7237      46.7237           90           90           90     102002.7   -944.60452 
  546000       545495   -6914.8206    463.34037    -7378.161    4200.3404   -11578.501    89.231397   -374.93826   -596.23426   -352.10919    30.761108   -144.74741    210.51233      46.7237      46.7237      46.7237           90           90           90     102002.7    -441.0939 
  547000       546495   -6882.1775    478.16237   -7360.3399    4223.7421   -11584.082     92.08586   -541.38187   -945.83496   -925.27688   -328.79996    164.29774    56.049848      46.7237      46.7237      46.7237           90           90           90     102002.7   -804.16457 
  548000       547495   -6905.6515    460.97583   -7366.6273    4215.9589   -11582.586    88.776026   -504.18908   -469.12486   -800.07613     37.71687   -125.19384    63.653468      46.7237      46.7237      46.7237           90           90           90     102002.7   -591.13002 
  549000       548495   -6900.7407    486.29194   -7387.0327    4186.9132   -11573.946    93.651474   -303.48463   -841.28529   -389.72624    98.542331   -9.6296464    234.79064      46.7237      46.7237      46.7237           90           90           90     102002.7   -511.49872 
  550000       549495   -6897.0771    464.73354   -7361.8106    4210.0622   -11571.873    89.499697   -599.75096    -724.0406   -705.26027    134.63842    69.170499   -29.360358      46.7237      46.7237      46.7237           90           90           90     102002.7   -676.35061 
  551000       550495   -6885.8457    486.47193   -7372.3176     4212.025   -11584.343    93.686137   -530.94033   -461.47173   -468.30141    11.586526   -203.03547    225.82032      46.7237      46.7237      46.7237           90           90           90     102002.7   -486.90449 
  552000       551495   -6890.8084    488.58787   -7379.3963    4210.8113   -11590.208     94.09363   -876.97573   -686.62323   -577.03777    175.02236   -104.79395   -9.5588596      46.7237      46.7237      46.7237           90           90           90     102002.7   -713.54558 
  553000       552495   -6902.0035    472.03112   -7374.0346    4181.3773   -11555.412    90.905086   -465.73346   -398.74604    -418.5908    222.95492   -7.8590647   -113.88219      46.7237      46.7237      46.7237           90           90           90     102002.7    -427.6901 
  554000       553495   -6882.5789    474.70369   -7357.2826    4216.4584   -11573.741    91.419776    -754.8762   -415.00082   -381.67529   -369.94202    26.161859   -10.266053      46.7237      46.7237      46.7237           90           90           90     102002.7    -517.1841 
  555000       554495    -6909.978    467.34796   -7377.3259    4214.1026   -11591.429    90.003189   -765.74194   -658.52754   -582.21457    110.97825    122.77788   0.35866206      46.7237      46.7237      46.7237           90           90           90     102002.7   -668.82802 
[...]
  936000       935495   -6888.8054    474.36519   -7363.1706    4219.2211   -11582.392    91.354587   -943.49529   -1077.7878   -866.95295    -127.4438    63.936993   -209.71224      46.7237      46.7237      46.7237           90           90           90     102002.7   -962.74533 
  937000       936495   -6900.1938    462.25615   -7362.4499    4212.5044   -11574.954    89.022594   -419.91934   -1036.9516   -570.09736   -218.36087    23.080073    232.02826      46.7237      46.7237      46.7237           90           90           90     102002.7   -675.65611 
  938000       937495   -6900.7921    463.91095    -7364.703    4215.5609   -11580.264     89.34128   -558.99973   -905.58383   -524.94077    173.67821   -2.7118375    65.107676      46.7237      46.7237      46.7237           90           90           90     102002.7   -663.17478 
  939000       938495   -6875.5385    471.27224   -7346.8108    4221.8545   -11568.665    90.758939   -792.24951   -739.66986   -870.87417     353.5407   -145.70297   -183.81707      46.7237      46.7237      46.7237           90           90           90     102002.7   -800.93118 
  940000       939495   -6887.0094    475.69612   -7362.7055    4209.7598   -11572.465    91.610901   -701.22907   -1054.7873   -919.81144   -56.414826    45.959861   -145.52155      46.7237      46.7237      46.7237           90           90           90     102002.7   -891.94259 
  941000       940495   -6875.4213    486.68099   -7362.1023     4210.206   -11572.308    93.726399    -351.4359   -591.67046   -444.40038    182.92756   -158.22646   -57.548402      46.7237      46.7237      46.7237           90           90           90     102002.7   -462.50225 
  942000       941495   -6900.6946    468.69893   -7369.3935    4191.5003   -11560.894    90.263362   -645.66113   -840.02893   -928.95987   -47.795445   -223.75917     230.0354      46.7237      46.7237      46.7237           90           90           90     102002.7   -804.88331 
  943000       942495   -6894.4587    476.19542   -7370.6541    4199.5126   -11570.167    91.707057   -641.80131   -545.48786   -274.43788   -58.419299   -11.454525      306.319      46.7237      46.7237      46.7237           90           90           90     102002.7   -487.24235 
  944000       943495   -6887.9481    472.29453   -7360.2427    4215.8807   -11576.123    90.955813   -454.38542   -764.54863    -910.5812    187.30509    38.872823    17.505161      46.7237      46.7237      46.7237           90           90           90     102002.7   -709.83842 
  945000       944495    -6906.834    472.96351   -7379.7975    4187.5262   -11567.324    91.084649   -703.57519   -639.10963   -681.78537    27.821655    253.19182   -101.96096      46.7237      46.7237      46.7237           90           90           90     102002.7    -674.8234 
  946000       945495   -6905.8774    449.11603   -7354.9935    4211.3987   -11566.392    86.492033   -659.61938   -728.42688   -962.37885   -32.448825   -146.97179    85.293476      46.7237      46.7237      46.7237           90           90           90     102002.7   -783.47504 
  947000       946495   -6890.5003     455.8214   -7346.3217    4226.3216   -11572.643    87.783371   -550.78534   -1215.4386   -728.54904   -10.180309   -41.500465   -49.030672      46.7237      46.7237      46.7237           90           90           90     102002.7     -831.591 
  948000       947495   -6924.8657    451.74587   -7376.6116     4197.629   -11574.241    86.998495   -881.12749   -792.15542   -664.90772   -16.448576    79.563376   -71.002929      46.7237      46.7237      46.7237           90           90           90     102002.7   -779.39688 
  949000       948495   -6887.2995    473.16527   -7360.4648    4209.0025   -11569.467    91.123503   -800.63798   -341.16419   -915.69332     36.37519    114.45009    49.924168      46.7237      46.7237      46.7237           90           90           90     102002.7   -685.83183 
  950000       949495   -6872.4553    485.29289   -7357.7482    4210.9812   -11568.729    93.459075   -424.97994   -562.13495   -677.19159   -88.879576    43.837278   -145.28843      46.7237      46.7237      46.7237           90           90           90     102002.7   -554.76882 
  951000       950495   -6904.3123    459.28226   -7363.5945    4215.6701   -11579.265    88.449873   -1154.3266   -584.18636   -611.35498    66.223144     195.2114   -129.62471      46.7237      46.7237      46.7237           90           90           90     102002.7   -783.28932 
  952000       951495   -6878.8743    479.03315   -7357.9074    4197.3764   -11555.284    92.253556   -314.47719   -473.26985   -540.83103   -52.885173   -126.97283   -125.83056      46.7237      46.7237      46.7237           90           90           90     102002.7   -442.85936 
  953000       952495   -6859.0451    482.26071   -7341.3058    4239.7554   -11581.061     92.87513   -563.69719   -668.03901   -365.68451   -69.984011    -115.7676    191.01966      46.7237      46.7237      46.7237           90           90           90     102002.7   -532.47357 
  954000       953495   -6905.2498    467.40756   -7372.6574    4196.9946   -11569.652    90.014667   -920.96701   -450.51713   -551.90955    -52.47737   -8.3335419   -372.47811      46.7237      46.7237      46.7237           90           90           90     102002.7   -641.13123 
  955000       954495    -6890.082    471.12234   -7361.2044    4217.6696   -11578.874    90.730071   -226.61324   -720.85871   -366.84184     76.60986    -71.77057    42.855777      46.7237      46.7237      46.7237           90           90           90     102002.7    -438.1046 
  956000       955495   -6914.7503    465.29295   -7380.0432     4193.129   -11573.172    89.607429   -312.21213   -825.62385    -469.9931    163.51839   -76.727956    225.77671      46.7237      46.7237      46.7237           90           90           90     102002.7   -535.94303 
  957000       956495   -6894.3531    464.99937   -7359.3524    4198.4709   -11557.823     89.55089   -694.69817   -782.30233   -731.78847   -49.902524   -228.75902   -116.05664      46.7237      46.7237      46.7237           90           90           90     102002.7   -736.26299 
  958000       957495   -6899.1241    473.61737   -7372.7415    4193.2393   -11565.981    91.210569   -693.71294   -648.51232   -647.73362   -221.64252   -212.12671    27.037667      46.7237      46.7237      46.7237           90           90           90     102002.7   -663.31962 
  959000       958495   -6929.4953    456.87587   -7386.3712     4186.707   -11573.078    87.986444   -446.61747   -602.85721   -460.58128    263.61369    135.06477   -155.87631      46.7237      46.7237      46.7237           90           90           90     102002.7   -503.35199 
  960000       959495   -6886.9528     473.0241   -7359.9769    4215.7001   -11575.677    91.096315   -450.01694   -627.08768   -603.18519   -14.263877   -87.392707    216.71298      46.7237      46.7237      46.7237           90           90           90     102002.7    -560.0966 
  961000       960495   -6907.4068    469.31161   -7376.7184    4195.1105   -11571.829    90.381355   -473.51593   -685.88719   -730.59872   -162.71111    28.495347   -68.846717      46.7237      46.7237      46.7237           90           90           90     102002.7   -630.00062 
  962000       961495   -6896.7544    461.82863    -7358.583    4227.4629   -11586.046     88.94026   -468.41382   -911.02656   -523.63886   -192.99188   -77.161334    181.30514      46.7237      46.7237      46.7237           90           90           90     102002.7   -634.35975 
  963000       962495   -6882.4469    485.97193   -7368.4188    4205.5345   -11573.953    93.589846     -556.935   -318.93028   -653.03669     -54.9454    110.82767    20.278562      46.7237      46.7237      46.7237           90           90           90     102002.7   -509.63399 
  964000       963495   -6900.7501    471.21166   -7371.9618    4219.8748   -11591.837    90.747271   -629.44384   -1272.0514   -1021.5913   -29.710007     109.5095   -41.523912      46.7237      46.7237      46.7237           90           90           90     102002.7   -974.36217 
  965000       964495   -6890.9968    480.09504   -7371.0919    4211.3232   -11582.415    92.458058   -808.62622   -958.56317   -287.87167   -207.20823   -97.625292     35.96279      46.7237      46.7237      46.7237           90           90           90     102002.7   -685.02035 
  966000       965495   -6893.3256    467.07403   -7360.3996    4217.0908    -11577.49    89.950435   -190.84566   -509.75284    -664.8744   -7.1388248    153.03897   -93.864953      46.7237      46.7237      46.7237           90           90           90     102002.7   -455.15763 
  967000       966495   -6891.9969    464.98547   -7356.9823    4205.6311   -11562.613    89.548214   -327.92388   -454.78096   -212.78244    41.063539    163.95871   -18.268717      46.7237      46.7237      46.7237           90           90           90     102002.7   -331.82909 
  968000       967495   -6914.4398    460.66529   -7375.1051    4187.5051    -11562.61    88.716222   -656.70096   -322.72547   -245.52335   -30.199814    -194.1111    -21.51316      46.7237      46.7237      46.7237           90           90           90     102002.7   -408.31659 
  969000       968495   -6897.6095    475.34396   -7372.9535    4201.6108   -11574.564    91.543082   -786.69426   -966.88107   -755.77505   -70.704234  -0.82185214    264.69412      46.7237      46.7237      46.7237           90           90           90     102002.7   -836.45013 
  970000       969495   -6888.8504    463.51697   -7352.3674     4204.839   -11557.206    89.265406   -449.28844   -934.34537    -658.8998    30.142664   -1.2933553    83.288721      46.7237      46.7237      46.7237           90           90           90     102002.7   -680.84454 
  971000       970495   -6890.0561    478.63169   -7368.6878    4206.8829   -11575.571    92.176243   -808.15565    -814.0908   -631.20351   -1.3166037   -101.97135   -28.380278      46.7237      46.7237      46.7237           90           90           90     102002.7   -751.14998 
  972000       971495   -6863.6625     480.7777   -7344.4402    4210.3826   -11554.823    92.589527   -404.45529   -1015.7589   -543.73023      101.627   -196.52063    18.082867      46.7237      46.7237      46.7237           90           90           90     102002.7   -654.64812 
  973000       972495   -6901.4739    463.07165   -7364.5456    4196.9838   -11561.529    89.179646   -467.35442    -847.1389   -268.77016   -67.032479    35.377911   -97.007279      46.7237      46.7237      46.7237           90           90           90     102002.7   -527.75449 
  974000       973495   -6879.2447    472.59502   -7351.8397    4218.3248   -11570.164    91.013684   -688.68326   -693.54728   -614.59597   -177.68148   -41.247868    3.8801316      46.7237      46.7237      46.7237           90           90           90     102002.7   -665.60884 
  975000       974495   -6901.4206    458.95153   -7360.3721    4203.5232   -11563.895    88.386181   -422.25331   -634.68162    -77.45591    144.01522   -241.49874   -104.93582      46.7237      46.7237      46.7237           90           90           90     102002.7   -378.13028 
  976000       975495   -6909.4876     457.7403   -7367.2279    4210.9823    -11578.21    88.152918   -302.34515   -923.58708   -396.14137   -171.45324    54.977066    130.24312      46.7237      46.7237      46.7237           90           90           90     102002.7    -540.6912 
  977000       976495   -6884.7309    476.61837   -7361.3493    4200.7988   -11562.148    91.788511    -957.0765   -550.41725   -609.07873   -54.793508   -104.38986    100.78217      46.7237      46.7237      46.7237           90           90           90     102002.7   -705.52416 
  978000       977495   -6900.5319    471.85311    -7372.385    4210.6009   -11582.986    90.870803   -785.16937    -318.2545   -679.02754   -13.451747    35.552306    160.43836      46.7237      46.7237      46.7237           90           90           90     102002.7   -594.15047 
  979000       978495   -6886.8561    468.91233   -7355.7685    4215.2282   -11570.997    90.304461   -673.71248   -667.94158   -599.88135    401.48552    17.470858   -75.576657      46.7237      46.7237      46.7237           90           90           90     102002.7   -647.17847 
  980000       979495   -6914.6409    451.52003   -7366.1609     4207.277   -11573.438    86.955002   -901.63574   -861.72076   -877.80392   -171.48133    119.42981   -50.671102      46.7237      46.7237      46.7237           90           90           90     102002.7    -880.3868 
  981000       980495   -6890.4609    476.00032   -7366.4612    4198.7697   -11565.231    91.669484   -441.08789   -1090.2747    -798.9681   -160.95582    397.04398    37.763378      46.7237      46.7237      46.7237           90           90           90     102002.7    -776.7769 
  982000       981495   -6892.6774    470.84071   -7363.5181    4209.9223    -11573.44    90.675833   -700.66644   -1140.4564   -989.50398   -114.42651    68.403326    46.444393      46.7237      46.7237      46.7237           90           90           90     102002.7   -943.54227 
  983000       982495   -6874.7869    477.78954   -7352.5764    4227.8725   -11580.449    92.014059   -899.65685   -845.28985   -871.97527   -19.765397    80.215717   -120.78685      46.7237      46.7237      46.7237           90           90           90     102002.7   -872.30732 
  984000       983495   -6895.3275    463.44405   -7358.7715      4200.56   -11559.331    89.251363   -597.04239   -355.38748   -239.25303    19.778504    47.492322    -84.97248      46.7237      46.7237      46.7237           90           90           90     102002.7   -397.22763 
  985000       984495   -6910.7496    455.85648    -7366.606    4205.5873   -11572.193    87.790128     -513.884   -896.77506   -664.69377    108.00301    116.44498   -72.834567      46.7237      46.7237      46.7237           90           90           90     102002.7   -691.78427 
  986000       985495   -6906.9644     470.0771   -7377.0415    4194.4988    -11571.54    90.528774   -41.087221   -652.95902   -199.71115    52.048207    26.567715   -56.657281      46.7237      46.7237      46.7237           90           90           90     102002.7   -297.91913 
  987000       986495   -6887.1604    473.92453    -7361.085    4222.0751    -11583.16    91.269723   -539.56236   -263.12237   -369.70873   -33.611511   -50.629303   -45.316383      46.7237      46.7237      46.7237           90           90           90     102002.7   -390.79782 
  988000       987495   -6856.5572    488.11072   -7344.6679    4227.8353   -11572.503     94.00174   -763.82819   -519.00336   -575.85467    35.448296    43.835028   -16.853302      46.7237      46.7237      46.7237           90           90           90     102002.7   -619.56207 
  989000       988495   -6893.9454    480.82049   -7374.7658     4195.898   -11570.664    92.597766   -434.09853   -573.17318   -524.46344   -123.42318   -54.476491    55.633917      46.7237      46.7237      46.7237           90           90           90     102002.7   -510.57838 
  990000       989495   -6903.8078    465.78721    -7369.595    4208.6015   -11578.197    89.702615    -697.8984    -631.1246   -941.47641   -69.371178   -114.40928   -15.434565      46.7237      46.7237      46.7237           90           90           90     102002.7   -756.83314 
  991000       990495   -6883.2542    477.08525   -7360.3395     4218.476   -11578.815    91.878424   -778.55677   -963.11812   -273.67469    59.147706    5.7741064  -0.42749839      46.7237      46.7237      46.7237           90           90           90     102002.7   -671.78319 
  992000       991495   -6909.7139    474.33323   -7384.0471     4189.547   -11573.594    91.348432    -683.1549   -331.16403    -77.69356    42.522602    65.784129    90.461112      46.7237      46.7237      46.7237           90           90           90     102002.7   -364.00416 
  993000       992495   -6878.6134    479.97732   -7358.5907    4209.9336   -11568.524    92.435387   -744.82805   -643.08159   -518.91189     59.00826    95.544605    217.79227      46.7237      46.7237      46.7237           90           90           90     102002.7   -635.60718 
  994000       993495   -6880.7652    475.23993   -7356.0051    4223.0848    -11579.09    91.523047   -739.24883   -899.18865   -887.54505    261.18193    119.93014    132.68843      46.7237      46.7237      46.7237           90           90           90     102002.7   -841.99418 
  995000       994495   -6921.5986     469.6882   -7391.2868    4172.9505   -11564.237    90.453879    -1024.759   -650.94958   -790.18291    164.42064   -125.14988   -75.762019      46.7237      46.7237      46.7237           90           90           90     102002.7   -821.96382 
  996000       995495   -6892.6703    468.92165   -7361.5919      4197.58   -11559.172    90.306254   -1083.3219   -943.27826   -1158.8337   -35.754173   -66.567603    174.82607      46.7237      46.7237      46.7237           90           90           90     102002.7   -1061.8113 
  997000       996495   -6887.8519    471.47066   -7359.3226    4221.6671    -11580.99    90.797151   -887.04835   -541.37866   -620.99008     22.55605    93.870515   -1.6977883      46.7237      46.7237      46.7237           90           90           90     102002.7   -683.13903 
  998000       997495   -6905.5842    472.33165   -7377.9159    4189.4474   -11567.363    90.962962   -697.42915   -1171.0289    -542.2038    -320.4744    5.2243219    101.96566      46.7237      46.7237      46.7237           90           90           90     102002.7   -803.55397 
  999000       998495   -6885.0947    481.82274   -7366.9175    4206.1449   -11573.062    92.790784    -764.7539   -489.70102   -710.45422   -176.04434   -282.14115    229.25676      46.7237      46.7237      46.7237           90           90           90     102002.7   -654.96971 
 1000000       999495   -6906.1365    464.83434   -7370.9709    4198.7486   -11569.719     89.51911    -48.95356   -1021.8384    -767.5895   -81.977637   -232.20343   -162.52514      46.7237      46.7237      46.7237           90           90           90     102002.7   -612.79383 
 1000505      1000000    -6884.032    478.45204   -7362.4841    4214.0849   -11576.569    92.141644   -709.13918   -574.32183   -603.48405    180.14282    166.43072      262.918      46.7237      46.7237      46.7237           90           90           90     102002.7   -628.98169 
Loop time of 1422.35 on 16 procs for 500000 steps with 1743 atoms

Performance: 30.372 ns/day, 0.790 hours/ns, 351.531 timesteps/s
99.8% CPU use with 16 MPI tasks x no OpenMP threads

MPI task timing breakdown:
Section |  min time  |  avg time  |  max time  |%varavg| %total
---------------------------------------------------------------
Pair    | 574.31     | 771.25     | 981.35     | 479.3 | 54.22
Bond    | 172.06     | 183.21     | 188.78     |  31.1 | 12.88
Neigh   | 3.3962     | 3.4121     | 3.4281     |   0.6 |  0.24
Comm    | 219.8      | 436.58     | 632.52     | 649.5 | 30.69
Output  | 0.096046   | 0.10074    | 0.10113    |   0.4 |  0.01
Modify  | 21.232     | 22.466     | 23.585     |  17.6 |  1.58
Other   |            | 5.324      |            |       |  0.37

Nlocal:    108.938 ave 128 max 84 min
Histogram: 1 0 0 5 0 0 4 3 2 1
Nghost:    2205.94 ave 2233 max 2183 min
Histogram: 2 0 1 4 1 3 3 1 0 1
Neighs:    11451.6 ave 15243 max 7567 min
Histogram: 2 1 2 3 1 1 1 0 0 5

Total # of neighbors = 183225
Ave neighs/atom = 105.12
Ave special neighs/atom = 6.60929
Neighbor list builds = 2949
Dangerous builds = 0
Total wall time: 0:45:08
