LAMMPS (30 Mar 2018)
Reading data file ...
  orthogonal box = (0 0 0) to (46.7237 46.7237 46.7237)
  2 by 2 by 4 MPI processor grid
  reading atoms ...
  1757 atoms
  scanning bonds ...
  5 = max bonds/atom
  scanning angles ...
  10 = max angles/atom
  scanning dihedrals ...
  32 = max dihedrals/atom
  scanning impropers ...
  3 = max impropers/atom
  reading bonds ...
  2064 bonds
  reading angles ...
  3696 angles
  reading dihedrals ...
  6240 dihedrals
  reading impropers ...
  1008 impropers
Finding 1-2 1-3 1-4 neighbors ...
  special bond factors lj:   0          0          0         
  special bond factors coul: 0          0          0         
  5 = max # of 1-2 neighbors
  8 = max # of 1-3 neighbors
  20 = max # of 1-4 neighbors
  19 = max # of special neighbors
Finding 1-2 1-3 1-4 neighbors ...
  special bond factors lj:   0          0          1         
  special bond factors coul: 1          1          1         
  5 = max # of 1-2 neighbors
  8 = max # of 1-3 neighbors
  19 = max # of special neighbors
WARNING: Using 'neigh_modify every 1 delay 0 check yes' setting during minimization (../min.cpp:168)
Neighbor list info ...
  update every 1 steps, delay 0 steps, check yes
  max neighbors/atom: 2000, page size: 100000
  master list distance cutoff = 16
  ghost atom cutoff = 16
  binsize = 8, bins = 6 6 6
  3 neighbor lists, perpetual/occasional/extra = 3 0 0
  (1) pair buck6d/coul/gauss/dsf, perpetual, skip from (3)
      attributes: half, newton on
      pair build: skip
      stencil: none
      bin: none
  (2) pair lj/cut, perpetual, skip from (3)
      attributes: half, newton on
      pair build: skip
      stencil: none
      bin: none
  (3) neighbor class addition, perpetual
      attributes: half, newton on
      pair build: half/bin/newton
      stencil: half/bin/3d/newton
      bin: standard
Setting up cg style minimization ...
  Unit style    : real
  Current step  : 0
WARNING: Inconsistent image flags (../domain.cpp:786)
Per MPI rank memory allocation (min/avg/max) = 22.89 | 23.35 | 23.79 Mbytes
Step Temp E_pair E_mol TotEng Press 
       0            0   -11589.524    6482.8914   -5106.6328    6246.6583 
     505            0   -11613.245    3731.7156   -7881.5291   -485.29584 
Loop time of 2.78607 on 16 procs for 505 steps with 1757 atoms

99.9% CPU use with 16 MPI tasks x no OpenMP threads

Minimization stats:
  Stopping criterion = max force evaluations
  Energy initial, next-to-last, final = 
        -5106.63284026     -7881.51467759     -7881.52905383
  Force two-norm initial, final = 2576.86 5.55117
  Force max component initial, final = 152.022 0.674595
  Final line search alpha, max atom move = 0.00775109 0.00522884
  Iterations, force evaluations = 505 1001

MPI task timing breakdown:
Section |  min time  |  avg time  |  max time  |%varavg| %total
---------------------------------------------------------------
Pair    | 1.2015     | 1.5867     | 2.0768     |  20.6 | 56.95
Bond    | 0.2925     | 0.36108    | 0.44905    |   6.1 | 12.96
Neigh   | 0.018566   | 0.01867    | 0.018771   |   0.0 |  0.67
Comm    | 0.27418    | 0.78076    | 1.2217     |  29.8 | 28.02
Output  | 0          | 0          | 0          |   0.0 |  0.00
Modify  | 0          | 0          | 0          |   0.0 |  0.00
Other   |            | 0.03883    |            |       |  1.39

Nlocal:    109.812 ave 122 max 92 min
Histogram: 1 1 0 1 3 1 3 2 2 2
Nghost:    2214.06 ave 2231 max 2202 min
Histogram: 3 0 3 3 1 1 3 0 0 2
Neighs:    11447.8 ave 15684 max 7781 min
Histogram: 3 2 1 1 1 2 1 2 1 2

Total # of neighbors = 183164
Ave neighs/atom = 104.248
Ave special neighs/atom = 6.55663
Neighbor list builds = 15
Dangerous builds = 0
Neighbor list info ...
  update every 1 steps, delay 10 steps, check yes
  max neighbors/atom: 2000, page size: 100000
  master list distance cutoff = 16
  ghost atom cutoff = 16
  binsize = 8, bins = 6 6 6
  3 neighbor lists, perpetual/occasional/extra = 3 0 0
  (1) pair buck6d/coul/gauss/dsf, perpetual, skip from (3)
      attributes: half, newton on
      pair build: skip
      stencil: none
      bin: none
  (2) pair lj/cut, perpetual, skip from (3)
      attributes: half, newton on
      pair build: skip
      stencil: none
      bin: none
  (3) neighbor class addition, perpetual
      attributes: half, newton on
      pair build: half/bin/newton
      stencil: half/bin/3d/newton
      bin: standard
Setting up Verlet run ...
  Unit style    : real
  Current step  : 505
  Time step     : 1
WARNING: Inconsistent image flags (../domain.cpp:786)
Per MPI rank memory allocation (min/avg/max) = 22.54 | 22.62 | 22.73 Mbytes
Step Temp PotEng TotEng Press Volume Lx Ly Lz 
     505          130   -7881.5291   -7201.0697   -180.34956     102002.7      46.7237      46.7237      46.7237 
    1000    115.48667   -7283.2359   -6678.7437   -798.45742     102002.7      46.7237      46.7237      46.7237 
    2000    124.37557   -7139.2518   -6488.2325   -684.58778     102002.7      46.7237      46.7237      46.7237 
    3000    124.36269   -7176.6777   -6525.7258   -819.03027     102002.7      46.7237      46.7237      46.7237 
    4000    130.91598   -7192.4377   -6507.1838   -329.17554     102002.7      46.7237      46.7237      46.7237 
    5000    131.98663     -7194.86   -6504.0021   -860.17651     102002.7      46.7237      46.7237      46.7237 
    6000    127.86728   -7212.7564   -6543.4604   -587.55191     102002.7      46.7237      46.7237      46.7237 
    7000    129.85372    -7193.947   -6514.2533   -538.08658     102002.7      46.7237      46.7237      46.7237 
    8000     131.0208   -7184.2934   -6498.4909   -700.92978     102002.7      46.7237      46.7237      46.7237 
    9000    132.22648    -7199.056   -6506.9427   -731.51838     102002.7      46.7237      46.7237      46.7237 
   10000    128.03185   -7194.9036   -6524.7461   -883.81904     102002.7      46.7237      46.7237      46.7237 
   11000    132.45334   -7184.1342   -6490.8334   -817.73105     102002.7      46.7237      46.7237      46.7237 
   12000    126.88024   -7184.3522   -6520.2226     -627.607     102002.7      46.7237      46.7237      46.7237 
   13000    133.95308   -7203.7599   -6502.6089   -798.17431     102002.7      46.7237      46.7237      46.7237 
   14000    136.28602   -7191.7137   -6478.3514   -782.67798     102002.7      46.7237      46.7237      46.7237 
   15000    128.33456   -7196.3922   -6524.6503    -719.5218     102002.7      46.7237      46.7237      46.7237 
   16000    131.88096   -7194.4831   -6504.1783   -617.26975     102002.7      46.7237      46.7237      46.7237 
   17000    124.33233   -7177.3712   -6526.5782   -634.56485     102002.7      46.7237      46.7237      46.7237 
   18000    132.24676   -7196.6715    -6504.452   -617.78892     102002.7      46.7237      46.7237      46.7237 
   19000    134.12025   -7188.7634   -6486.7375   -585.47314     102002.7      46.7237      46.7237      46.7237 
   20000    126.16998      -7190.1   -6529.6882   -773.81754     102002.7      46.7237      46.7237      46.7237 
   21000    130.29123   -7196.9521   -6514.9684   -472.50722     102002.7      46.7237      46.7237      46.7237 
   22000    129.07139   -7192.7623   -6517.1636   -828.96348     102002.7      46.7237      46.7237      46.7237 
   23000    125.67211   -7191.1593   -6533.3535   -718.73459     102002.7      46.7237      46.7237      46.7237 
   24000    131.17638    -7199.767   -6513.1502   -577.71801     102002.7      46.7237      46.7237      46.7237 
   25000    134.41148   -7166.1977   -6462.6474   -1094.8313     102002.7      46.7237      46.7237      46.7237 
   26000    130.93868   -7203.7214   -6518.3487    -733.4327     102002.7      46.7237      46.7237      46.7237 
   27000    125.74603   -7205.5427     -6547.35   -746.96438     102002.7      46.7237      46.7237      46.7237 
   28000    132.69888   -7206.4992   -6511.9131   -960.55973     102002.7      46.7237      46.7237      46.7237 
   29000    127.25672   -7195.9027   -6529.8026    -1058.198     102002.7      46.7237      46.7237      46.7237 
   30000    126.49037    -7209.722   -6547.6332   -1032.2514     102002.7      46.7237      46.7237      46.7237 
   31000    126.57274   -7168.4896   -6505.9696   -833.30322     102002.7      46.7237      46.7237      46.7237 
   32000    129.48062   -7213.9023   -6536.1615   -657.28903     102002.7      46.7237      46.7237      46.7237 
   33000    131.73401   -7212.1184   -6522.5827    -794.0456     102002.7      46.7237      46.7237      46.7237 
   34000    129.18085   -7170.6018   -6494.4301   -782.73357     102002.7      46.7237      46.7237      46.7237 
   35000    131.03217   -7195.1688   -6509.3068   -898.07953     102002.7      46.7237      46.7237      46.7237 
   36000    130.12423    -7194.635   -6513.5254    -625.7937     102002.7      46.7237      46.7237      46.7237 
   37000    128.02148   -7201.1435   -6531.0404   -629.54835     102002.7      46.7237      46.7237      46.7237 
   38000    130.64931   -7188.4371   -6504.5792   -817.02072     102002.7      46.7237      46.7237      46.7237 
   39000    131.02451   -7199.2818   -6513.4598   -630.82654     102002.7      46.7237      46.7237      46.7237 
   40000    132.03185   -7199.7356    -6508.641    -574.2502     102002.7      46.7237      46.7237      46.7237 
   41000    128.52982   -7187.6884   -6514.9245   -687.70612     102002.7      46.7237      46.7237      46.7237 
   42000     128.8971   -7191.3151   -6516.6287   -703.58916     102002.7      46.7237      46.7237      46.7237 
   43000    132.57546   -7184.1815   -6490.2414   -530.97633     102002.7      46.7237      46.7237      46.7237 
   44000    129.85213   -7201.6716   -6521.9863    -636.3278     102002.7      46.7237      46.7237      46.7237 
   45000     129.3884   -7187.0968   -6509.8388   -349.35467     102002.7      46.7237      46.7237      46.7237 
   46000    130.35046   -7195.5529   -6513.2591   -1052.4179     102002.7      46.7237      46.7237      46.7237 
   47000    127.63659   -7183.9053   -6515.8168   -683.76067     102002.7      46.7237      46.7237      46.7237 
   48000    130.25905   -7173.7882   -6491.9729   -665.05644     102002.7      46.7237      46.7237      46.7237 
   49000    129.78237   -7213.3729   -6534.0527   -654.95798     102002.7      46.7237      46.7237      46.7237 
   50000    125.96859   -7192.9494   -6533.5917   -618.84538     102002.7      46.7237      46.7237      46.7237 
   51000    129.77778   -7191.8775   -6512.5814   -503.41441     102002.7      46.7237      46.7237      46.7237 
   52000    128.28612   -7177.6301   -6506.1418   -862.56847     102002.7      46.7237      46.7237      46.7237 
   53000    132.84222   -7185.9083   -6490.5719   -727.39766     102002.7      46.7237      46.7237      46.7237 
   54000    129.27951   -7204.4354   -6527.7473   -655.05734     102002.7      46.7237      46.7237      46.7237 
   55000    128.53885   -7168.7771   -6495.9659   -837.00147     102002.7      46.7237      46.7237      46.7237 
   56000    130.57106   -7214.2513   -6530.8029   -620.95002     102002.7      46.7237      46.7237      46.7237 
   57000     129.4438    -7181.232   -6503.6839   -671.19209     102002.7      46.7237      46.7237      46.7237 
   58000    127.65022    -7179.263   -6511.1031   -690.78422     102002.7      46.7237      46.7237      46.7237 
   59000    129.47559   -7197.2335   -6519.5191   -799.31273     102002.7      46.7237      46.7237      46.7237 
   60000     130.5844   -7189.8864   -6506.3682   -752.78652     102002.7      46.7237      46.7237      46.7237 
   61000    131.59788   -7193.9797   -6505.1566   -753.97961     102002.7      46.7237      46.7237      46.7237 
   62000    126.07038   -7194.2952   -6534.4047   -785.30211     102002.7      46.7237      46.7237      46.7237 
   63000    133.97824   -7198.9494   -6497.6668   -595.56563     102002.7      46.7237      46.7237      46.7237 
   64000    130.70605   -7159.2864   -6475.1314   -726.48175     102002.7      46.7237      46.7237      46.7237 
   65000    131.86393   -7206.8431   -6516.6274   -521.24918     102002.7      46.7237      46.7237      46.7237 
   66000    133.40013   -7219.8133   -6521.5567   -848.83447     102002.7      46.7237      46.7237      46.7237 
   67000    133.57166   -7216.5995    -6517.445   -743.44742     102002.7      46.7237      46.7237      46.7237 
   68000    136.91948   -7197.1695   -6480.4915   -931.48147     102002.7      46.7237      46.7237      46.7237 
   69000    129.33058   -7175.4208   -6498.4655    -619.4272     102002.7      46.7237      46.7237      46.7237 
   70000    126.12919   -7203.2635   -6543.0652   -721.41629     102002.7      46.7237      46.7237      46.7237 
   71000    131.59893   -7207.9219   -6519.0934   -690.65702     102002.7      46.7237      46.7237      46.7237 
   72000    128.01599   -7188.1602   -6518.0858   -365.18673     102002.7      46.7237      46.7237      46.7237 
   73000    133.24841   -7166.6688   -6469.2063    -514.3181     102002.7      46.7237      46.7237      46.7237 
   74000    129.30736   -7197.8077   -6520.9739   -938.86039     102002.7      46.7237      46.7237      46.7237 
   75000    134.62659   -7195.7337   -6491.0574    -803.7091     102002.7      46.7237      46.7237      46.7237 
   76000    128.16369   -7204.0651   -6533.2176   -993.99758     102002.7      46.7237      46.7237      46.7237 
   77000    130.84139   -7195.9986   -6511.1352   -805.95101     102002.7      46.7237      46.7237      46.7237 
   78000    130.88687   -7182.3948   -6497.2934     -755.872     102002.7      46.7237      46.7237      46.7237 
   79000    130.51153    -7180.505   -6497.3682   -825.98149     102002.7      46.7237      46.7237      46.7237 
   80000     128.8642   -7217.1167   -6542.6025   -328.47492     102002.7      46.7237      46.7237      46.7237 
   81000    129.83261   -7176.8151   -6497.2319   -535.81282     102002.7      46.7237      46.7237      46.7237 
   82000    130.31423   -7178.5964   -6496.4923   -642.23639     102002.7      46.7237      46.7237      46.7237 
   83000    125.58508   -7217.7235   -6560.3732   -714.41104     102002.7      46.7237      46.7237      46.7237 
   84000    131.54096   -7200.4831    -6511.958   -572.43392     102002.7      46.7237      46.7237      46.7237 
   85000    131.07124   -7185.9716   -6499.9051   -971.57203     102002.7      46.7237      46.7237      46.7237 
   86000    129.82473   -7216.0046   -6536.4627   -664.34098     102002.7      46.7237      46.7237      46.7237 
   87000     128.6907   -7199.0074   -6525.4014    -314.3003     102002.7      46.7237      46.7237      46.7237 
   88000    132.68967   -7213.2358   -6518.6979   -546.65523     102002.7      46.7237      46.7237      46.7237 
   89000    129.80991   -7221.6043     -6542.14    -857.5416     102002.7      46.7237      46.7237      46.7237 
   90000    131.00498   -7186.3229   -6500.6032   -591.65611     102002.7      46.7237      46.7237      46.7237 
   91000     130.0881   -7184.3731   -6503.4526   -738.56593     102002.7      46.7237      46.7237      46.7237 
   92000    129.05655   -7200.0261   -6524.5051   -977.28979     102002.7      46.7237      46.7237      46.7237 
   93000    129.32813   -7182.7602   -6505.8176   -637.09911     102002.7      46.7237      46.7237      46.7237 
   94000    133.31801   -7186.2684   -6488.4417   -783.88773     102002.7      46.7237      46.7237      46.7237 
   95000    133.38902   -7216.8191   -6518.6206   -947.03484     102002.7      46.7237      46.7237      46.7237 
   96000    130.45767   -7179.5905   -6496.7356    -777.1389     102002.7      46.7237      46.7237      46.7237 
   97000    131.01319   -7196.1625   -6510.3998   -690.53354     102002.7      46.7237      46.7237      46.7237 
   98000    128.32953   -7206.3499   -6534.6343   -855.73644     102002.7      46.7237      46.7237      46.7237 
   99000    133.11548   -7191.6703   -6494.9036   -727.56132     102002.7      46.7237      46.7237      46.7237 
  100000    125.02766   -7177.3906    -6522.958   -753.15713     102002.7      46.7237      46.7237      46.7237 
  101000    131.58088   -7198.1551    -6509.421    -532.7817     102002.7      46.7237      46.7237      46.7237 
  102000     133.7046   -7189.7916   -6489.9413    -671.7736     102002.7      46.7237      46.7237      46.7237 
  103000    130.34525   -7204.5101   -6522.2436   -794.17569     102002.7      46.7237      46.7237      46.7237 
  104000     131.9709   -7199.2042   -6508.4286   -730.73955     102002.7      46.7237      46.7237      46.7237 
  105000    131.50927   -7183.5508   -6495.1915   -634.16605     102002.7      46.7237      46.7237      46.7237 
  106000    127.27239   -7233.6004   -6567.4182   -424.09328     102002.7      46.7237      46.7237      46.7237 
  107000    127.92002    -7179.454    -6509.882   -669.50908     102002.7      46.7237      46.7237      46.7237 
  108000    128.75422    -7193.679   -6519.7404   -564.15101     102002.7      46.7237      46.7237      46.7237 
  109000    132.49598   -7184.4261   -6490.9021   -749.42836     102002.7      46.7237      46.7237      46.7237 
  110000    128.19808   -7201.3589   -6530.3314   -672.96958     102002.7      46.7237      46.7237      46.7237 
  111000    129.99657   -7202.4527   -6522.0113    -508.0224     102002.7      46.7237      46.7237      46.7237 
  112000    127.34308   -7187.5726   -6521.0204   -715.46531     102002.7      46.7237      46.7237      46.7237 
  113000    130.55232   -7209.5099   -6526.1596   -568.62482     102002.7      46.7237      46.7237      46.7237 
  114000    132.62114   -7178.8753   -6484.6961    -701.9206     102002.7      46.7237      46.7237      46.7237 
  115000    131.24353   -7195.0772   -6508.1089    -577.7375     102002.7      46.7237      46.7237      46.7237 
  116000    126.44123   -7181.9317      -6520.1   -904.78831     102002.7      46.7237      46.7237      46.7237 
  117000    127.02836   -7212.8394   -6547.9345    -601.0309     102002.7      46.7237      46.7237      46.7237 
  118000    132.77576   -7189.3744   -6494.3859   -468.48449     102002.7      46.7237      46.7237      46.7237 
  119000    124.74907    -7206.289   -6553.3146   -639.67258     102002.7      46.7237      46.7237      46.7237 
  120000    129.96062    -7173.761   -6493.5078    -390.6685     102002.7      46.7237      46.7237      46.7237 
  121000    131.12469   -7162.3944   -6476.0482   -487.99267     102002.7      46.7237      46.7237      46.7237 
  122000    123.02197   -7164.6871   -6520.7529   -464.36282     102002.7      46.7237      46.7237      46.7237 
  123000    133.28167   -7174.0126    -6476.376   -635.27761     102002.7      46.7237      46.7237      46.7237 
  124000    129.24139   -7212.0222   -6535.5337   -440.94861     102002.7      46.7237      46.7237      46.7237 
  125000    128.90736   -7182.6951    -6507.955   -726.00503     102002.7      46.7237      46.7237      46.7237 
  126000    127.04621   -7224.1839   -6559.1856   -832.73072     102002.7      46.7237      46.7237      46.7237 
  127000    126.74843   -7183.8915   -6520.4518   -715.40181     102002.7      46.7237      46.7237      46.7237 
  128000    129.63016    -7201.148   -6522.6246   -856.23119     102002.7      46.7237      46.7237      46.7237 
  129000    129.14632   -7187.9901   -6511.9992   -614.26085     102002.7      46.7237      46.7237      46.7237 
  130000    129.11473   -7192.1484   -6516.3229   -987.78847     102002.7      46.7237      46.7237      46.7237 
  131000     128.4442   -7202.2359   -6529.9201   -839.38268     102002.7      46.7237      46.7237      46.7237 
  132000    131.32742   -7198.5322   -6511.1247   -588.78526     102002.7      46.7237      46.7237      46.7237 
  133000    128.21169   -7202.8493   -6531.7505   -786.28142     102002.7      46.7237      46.7237      46.7237 
  134000    129.02387   -7198.4345   -6523.0845   -675.16338     102002.7      46.7237      46.7237      46.7237 
  135000    130.60563   -7184.0419   -6500.4125   -657.19038     102002.7      46.7237      46.7237      46.7237 
  136000    131.85184   -7207.7296   -6517.5772   -754.06373     102002.7      46.7237      46.7237      46.7237 
  137000    131.67123   -7186.7537   -6497.5467   -561.83202     102002.7      46.7237      46.7237      46.7237 
  138000    128.73344   -7203.1038   -6529.2741   -781.96777     102002.7      46.7237      46.7237      46.7237 
  139000    128.84821   -7181.6164   -6507.1859   -738.23908     102002.7      46.7237      46.7237      46.7237 
  140000    129.23062   -7214.1556   -6537.7234   -1023.5459     102002.7      46.7237      46.7237      46.7237 
  141000    135.68175   -7214.4487   -6504.2494   -818.31391     102002.7      46.7237      46.7237      46.7237 
  142000    127.76636   -7218.1452   -6549.3774    -483.7655     102002.7      46.7237      46.7237      46.7237 
  143000    127.30524   -7193.0921   -6526.7379    -858.1823     102002.7      46.7237      46.7237      46.7237 
  144000    130.63021   -7213.6248   -6529.8668   -367.36287     102002.7      46.7237      46.7237      46.7237 
  145000    126.04569   -7193.0716   -6533.3104    -610.1276     102002.7      46.7237      46.7237      46.7237 
  146000     130.0469   -7187.5948     -6506.89   -795.77797     102002.7      46.7237      46.7237      46.7237 
  147000    127.83823   -7170.9073   -6501.7634    -970.5425     102002.7      46.7237      46.7237      46.7237 
  148000     129.1121   -7194.2928    -6518.481   -864.00303     102002.7      46.7237      46.7237      46.7237 
  149000    130.25231    -7214.502    -6532.722   -952.02285     102002.7      46.7237      46.7237      46.7237 
  150000    128.73792   -7177.6973   -6503.8441   -831.45829     102002.7      46.7237      46.7237      46.7237 
  151000    133.55753    -7188.825   -6489.7445   -963.02865     102002.7      46.7237      46.7237      46.7237 
  152000    129.45956   -7199.3697   -6521.7392    -1061.091     102002.7      46.7237      46.7237      46.7237 
  153000    126.04557   -7186.6818   -6526.9212    -912.8142     102002.7      46.7237      46.7237      46.7237 
  154000    134.06714   -7185.1977   -6483.4498   -722.38294     102002.7      46.7237      46.7237      46.7237 
  155000    130.50603   -7204.2281     -6521.12   -666.81917     102002.7      46.7237      46.7237      46.7237 
  156000     129.9603   -7190.0339   -6509.7824   -908.42185     102002.7      46.7237      46.7237      46.7237 
  157000    127.45621   -7192.3619   -6525.2176   -783.80833     102002.7      46.7237      46.7237      46.7237 
  158000    131.91496   -7197.4937   -6507.0109   -877.30938     102002.7      46.7237      46.7237      46.7237 
  159000    133.13409   -7204.6582    -6507.794   -920.24714     102002.7      46.7237      46.7237      46.7237 
  160000    130.00999   -7180.3626    -6499.851   -647.05611     102002.7      46.7237      46.7237      46.7237 
  161000    128.19444   -7200.3798   -6529.3714   -858.63497     102002.7      46.7237      46.7237      46.7237 
  162000       131.02   -7185.5305   -6499.7321   -712.90664     102002.7      46.7237      46.7237      46.7237 
  163000    129.92053   -7227.2508   -6547.2074   -859.38247     102002.7      46.7237      46.7237      46.7237 
  164000    127.08972     -7196.33    -6531.104   -800.71627     102002.7      46.7237      46.7237      46.7237 
  165000    131.09786   -7179.5584   -6493.3526   -845.59812     102002.7      46.7237      46.7237      46.7237 
  166000    128.66044   -7206.7887   -6533.3411   -744.69331     102002.7      46.7237      46.7237      46.7237 
  167000    130.20892    -7201.214   -6519.6612    -551.3425     102002.7      46.7237      46.7237      46.7237 
  168000    125.68137   -7179.5703    -6521.716   -540.53675     102002.7      46.7237      46.7237      46.7237 
  169000    132.16072   -7203.6343   -6511.8652   -590.78657     102002.7      46.7237      46.7237      46.7237 
  170000    130.06043   -7189.3437   -6508.5681    -777.7493     102002.7      46.7237      46.7237      46.7237 
  171000    131.90932    -7216.288   -6525.8347   -761.23223     102002.7      46.7237      46.7237      46.7237 
  172000      131.092   -7185.2779   -6499.1027   -677.37971     102002.7      46.7237      46.7237      46.7237 
  173000    129.06557   -7187.9973   -6512.4291   -631.45068     102002.7      46.7237      46.7237      46.7237 
  174000      131.535   -7183.8202   -6495.3262   -487.69485     102002.7      46.7237      46.7237      46.7237 
  175000      131.906   -7199.7686   -6509.3327   -633.59575     102002.7      46.7237      46.7237      46.7237 
  176000    125.57816    -7195.409    -6538.095   -736.92405     102002.7      46.7237      46.7237      46.7237 
  177000    129.76273   -7179.9118   -6500.6944   -681.11879     102002.7      46.7237      46.7237      46.7237 
  178000    128.87776   -7190.4804   -6515.8952   -648.07686     102002.7      46.7237      46.7237      46.7237 
  179000    131.03515   -7202.3871   -6516.5095   -876.60793     102002.7      46.7237      46.7237      46.7237 
  180000    134.20548   -7202.6393   -6500.1672   -600.52484     102002.7      46.7237      46.7237      46.7237 
  181000    131.91562   -7171.9548   -6481.4685     -912.609     102002.7      46.7237      46.7237      46.7237 
  182000    128.94211    -7190.254    -6515.332   -618.39024     102002.7      46.7237      46.7237      46.7237 
  183000     133.9562   -7197.7152   -6496.5479     -442.538     102002.7      46.7237      46.7237      46.7237 
  184000    129.89679   -7191.1232   -6511.2041   -634.28102     102002.7      46.7237      46.7237      46.7237 
  185000    131.98966   -7187.2735   -6496.3997   -497.95717     102002.7      46.7237      46.7237      46.7237 
  186000    131.49689   -7164.7979   -6476.5034   -737.95778     102002.7      46.7237      46.7237      46.7237 
  187000    128.60807   -7182.6564   -6509.4829    -1130.603     102002.7      46.7237      46.7237      46.7237 
  188000    133.77637    -7191.037   -6490.8111    -558.8242     102002.7      46.7237      46.7237      46.7237 
  189000    132.21138    -7212.759   -6520.7246    -840.1116     102002.7      46.7237      46.7237      46.7237 
  190000    129.47612   -7188.3527   -6510.6356    -366.7173     102002.7      46.7237      46.7237      46.7237 
  191000    130.53808   -7188.0163   -6504.7405   -485.87661     102002.7      46.7237      46.7237      46.7237 
  192000    129.61014   -7211.4244   -6533.0057   -676.86525     102002.7      46.7237      46.7237      46.7237 
  193000    134.96536   -7199.0267   -6492.5772    -604.2942     102002.7      46.7237      46.7237      46.7237 
  194000    130.96173   -7202.7481   -6517.2548   -893.90754     102002.7      46.7237      46.7237      46.7237 
  195000    131.12454   -7181.5603   -6495.2148   -636.39766     102002.7      46.7237      46.7237      46.7237 
  196000    127.33155   -7213.5361   -6547.0442   -710.45811     102002.7      46.7237      46.7237      46.7237 
  197000    130.17976   -7177.1006   -6495.7004   -763.19982     102002.7      46.7237      46.7237      46.7237 
  198000    129.97941   -7166.0266   -6485.6751   -704.21258     102002.7      46.7237      46.7237      46.7237 
  199000    124.61908   -7201.7844   -6549.4904   -584.84662     102002.7      46.7237      46.7237      46.7237 
  200000    132.59282    -7181.511     -6487.48   -718.21506     102002.7      46.7237      46.7237      46.7237 
  201000     131.9374    -7196.172   -6505.5717   -829.57386     102002.7      46.7237      46.7237      46.7237 
  202000    129.07941   -7193.2059   -6517.5653   -614.04479     102002.7      46.7237      46.7237      46.7237 
  203000    126.29658   -7193.5464   -6532.4719   -477.61643     102002.7      46.7237      46.7237      46.7237 
  204000     129.0661   -7178.5056   -6502.9346    -734.0331     102002.7      46.7237      46.7237      46.7237 
  205000    127.60422   -7204.5973   -6536.6782   -736.86967     102002.7      46.7237      46.7237      46.7237 
  206000    132.74726   -7209.3458   -6514.5065   -258.58382     102002.7      46.7237      46.7237      46.7237 
  207000    128.70035   -7178.0398   -6504.3833   -582.14068     102002.7      46.7237      46.7237      46.7237 
  208000    128.28501   -7193.1574   -6521.6749   -521.29552     102002.7      46.7237      46.7237      46.7237 
  209000    131.91232   -7222.0535   -6531.5846   -540.01838     102002.7      46.7237      46.7237      46.7237 
  210000    131.09286   -7172.8383   -6486.6587   -845.49968     102002.7      46.7237      46.7237      46.7237 
  211000    129.85179   -7181.8001   -6502.1165   -635.89312     102002.7      46.7237      46.7237      46.7237 
  212000    133.32048     -7177.91   -6480.0703   -657.40487     102002.7      46.7237      46.7237      46.7237 
  213000    129.36874   -7201.7269   -6524.5718   -575.55899     102002.7      46.7237      46.7237      46.7237 
  214000    129.55027    -7176.901   -6498.7957   -785.63088     102002.7      46.7237      46.7237      46.7237 
  215000    127.08041   -7201.1808   -6536.0035   -872.93202     102002.7      46.7237      46.7237      46.7237 
  216000    130.73512   -7177.9824   -6493.6752   -725.93202     102002.7      46.7237      46.7237      46.7237 
  217000    128.06337   -7199.1098   -6528.7874   -1047.4498     102002.7      46.7237      46.7237      46.7237 
  218000     133.0477   -7188.4377   -6492.0258   -602.99026     102002.7      46.7237      46.7237      46.7237 
  219000    131.11785   -7179.7771   -6493.4666   -787.17708     102002.7      46.7237      46.7237      46.7237 
  220000    130.49238    -7209.616   -6526.5794   -546.71239     102002.7      46.7237      46.7237      46.7237 
  221000    130.15069    -7205.551   -6524.3029   -596.11243     102002.7      46.7237      46.7237      46.7237 
  222000    130.43621   -7196.2984   -6513.5559   -624.53826     102002.7      46.7237      46.7237      46.7237 
  223000     126.4867    -7199.593   -6537.5233    -861.4696     102002.7      46.7237      46.7237      46.7237 
  224000    129.15878   -7178.4542   -6502.3981   -826.67308     102002.7      46.7237      46.7237      46.7237 
  225000    131.74455   -7183.4534   -6493.8625   -861.15641     102002.7      46.7237      46.7237      46.7237 
  226000    126.73046   -7180.5287   -6517.1831   -819.23548     102002.7      46.7237      46.7237      46.7237 
  227000    129.63782   -7167.9679   -6489.4043   -933.54904     102002.7      46.7237      46.7237      46.7237 
  228000     128.6456   -7172.1509    -6498.781   -746.95543     102002.7      46.7237      46.7237      46.7237 
  229000    131.09034   -7207.2377   -6521.0712   -942.84576     102002.7      46.7237      46.7237      46.7237 
  230000    129.02856   -7215.5387   -6540.1642    -639.3111     102002.7      46.7237      46.7237      46.7237 
  231000    130.51848    -7190.801   -6507.6278   -688.33382     102002.7      46.7237      46.7237      46.7237 
  232000    127.82163   -7206.8352   -6537.7781   -677.55528     102002.7      46.7237      46.7237      46.7237 
  233000      128.555    -7187.754   -6514.8583   -587.56124     102002.7      46.7237      46.7237      46.7237 
  234000    131.71244   -7177.0005   -6487.5777   -669.13328     102002.7      46.7237      46.7237      46.7237 
  235000    131.82283   -7217.3984   -6527.3978    -771.9758     102002.7      46.7237      46.7237      46.7237 
  236000    132.74631   -7190.0395   -6495.2052   -552.30802     102002.7      46.7237      46.7237      46.7237 
  237000    127.49467    -7191.869   -6524.5233   -620.60994     102002.7      46.7237      46.7237      46.7237 
  238000    130.38303   -7187.5358   -6505.0716   -927.53317     102002.7      46.7237      46.7237      46.7237 
  239000    123.60029   -7190.0224   -6543.0612   -740.76597     102002.7      46.7237      46.7237      46.7237 
  240000    129.61051   -7172.4334   -6494.0128   -964.57232     102002.7      46.7237      46.7237      46.7237 
  241000    131.99283   -7177.9608   -6487.0703   -937.70044     102002.7      46.7237      46.7237      46.7237 
  242000     127.2154   -7176.8142   -6510.9303   -988.33539     102002.7      46.7237      46.7237      46.7237 
  243000    131.19107   -7158.4731   -6471.7793   -914.44903     102002.7      46.7237      46.7237      46.7237 
  244000    126.32276   -7186.4068   -6525.1952   -740.19441     102002.7      46.7237      46.7237      46.7237 
  245000    130.50483   -7175.8642   -6492.7625   -861.07039     102002.7      46.7237      46.7237      46.7237 
  246000    125.44701   -7202.5527   -6545.9251   -1078.9795     102002.7      46.7237      46.7237      46.7237 
  247000    130.01052   -7180.6579   -6500.1435   -668.83808     102002.7      46.7237      46.7237      46.7237 
  248000    127.36714   -7200.0756   -6533.3975   -1050.5896     102002.7      46.7237      46.7237      46.7237 
  249000    130.87185   -7187.2963   -6502.2734   -866.89052     102002.7      46.7237      46.7237      46.7237 
  250000    126.31099   -7180.6866   -6519.5367   -985.67784     102002.7      46.7237      46.7237      46.7237 
  251000    132.39765   -7191.8664   -6498.8571   -811.87788     102002.7      46.7237      46.7237      46.7237 
  252000    127.80925   -7210.2381   -6541.2459   -994.51021     102002.7      46.7237      46.7237      46.7237 
  253000     131.1843   -7223.4234   -6536.7651   -936.42868     102002.7      46.7237      46.7237      46.7237 
  254000    130.46705   -7195.1211   -6512.2171   -831.15435     102002.7      46.7237      46.7237      46.7237 
  255000    132.89462   -7221.9517    -6526.341   -1026.0672     102002.7      46.7237      46.7237      46.7237 
  256000    134.25792   -7206.9108   -6504.1643   -784.67937     102002.7      46.7237      46.7237      46.7237 
  257000     132.6152   -7176.7396   -6482.5915   -789.63743     102002.7      46.7237      46.7237      46.7237 
  258000    130.96243   -7184.5069   -6499.0099   -611.16738     102002.7      46.7237      46.7237      46.7237 
  259000    130.70199   -7201.8238   -6517.6901   -757.79204     102002.7      46.7237      46.7237      46.7237 
  260000    129.26003   -7201.6574   -6525.0713   -658.36244     102002.7      46.7237      46.7237      46.7237 
  261000    130.30242    -7167.828   -6485.7857   -782.99485     102002.7      46.7237      46.7237      46.7237 
  262000     131.8748   -7196.8766    -6506.604   -926.61156     102002.7      46.7237      46.7237      46.7237 
  263000    125.71991   -7210.9359   -6552.8799   -793.53186     102002.7      46.7237      46.7237      46.7237 
  264000    129.74142   -7181.4476   -6502.3418   -870.14172     102002.7      46.7237      46.7237      46.7237 
  265000     127.2369   -7211.1524    -6545.156    -587.6704     102002.7      46.7237      46.7237      46.7237 
  266000     128.2312   -7177.8159   -6506.6151   -1100.9986     102002.7      46.7237      46.7237      46.7237 
  267000    128.68206   -7187.6312   -6514.0704   -757.34838     102002.7      46.7237      46.7237      46.7237 
  268000    133.96264   -7188.3293   -6487.1283   -887.63611     102002.7      46.7237      46.7237      46.7237 
  269000    131.74812   -7176.9753   -6487.3658   -730.95932     102002.7      46.7237      46.7237      46.7237 
  270000    129.72462   -7210.2011   -6531.1832   -885.42563     102002.7      46.7237      46.7237      46.7237 
  271000    128.87685   -7185.3625   -6510.7821   -807.23083     102002.7      46.7237      46.7237      46.7237 
  272000    128.39264   -7201.0262   -6528.9803   -776.80597     102002.7      46.7237      46.7237      46.7237 
  273000     128.2911   -7194.3657   -6522.8512   -702.46689     102002.7      46.7237      46.7237      46.7237 
  274000     131.8155   -7214.9514   -6524.9892   -668.04908     102002.7      46.7237      46.7237      46.7237 
  275000     132.1118   -7199.7987   -6508.2856   -803.60792     102002.7      46.7237      46.7237      46.7237 
  276000     125.8231    -7195.041   -6536.4449   -537.53868     102002.7      46.7237      46.7237      46.7237 
  277000    126.39429   -7196.0579   -6534.4719   -965.57368     102002.7      46.7237      46.7237      46.7237 
  278000    131.97846   -7210.3457   -6519.5305   -731.46336     102002.7      46.7237      46.7237      46.7237 
  279000    127.34465   -7207.0429   -6540.4825   -871.52884     102002.7      46.7237      46.7237      46.7237 
  280000    126.27535   -7189.3713   -6528.4079     -1102.75     102002.7      46.7237      46.7237      46.7237 
  281000    130.96997   -7181.3752   -6495.8387   -1030.9572     102002.7      46.7237      46.7237      46.7237 
  282000    124.71652    -7179.001    -6526.197    -945.8341     102002.7      46.7237      46.7237      46.7237 
  283000    130.39661     -7193.91   -6511.3747   -789.82577     102002.7      46.7237      46.7237      46.7237 
  284000    128.04902   -7215.5282   -6545.2809   -778.61806     102002.7      46.7237      46.7237      46.7237 
  285000    129.39405   -7192.7446    -6515.457   -896.97138     102002.7      46.7237      46.7237      46.7237 
  286000    131.76445   -7198.3513   -6508.6563   -780.17659     102002.7      46.7237      46.7237      46.7237 
  287000    134.87243   -7198.6598   -6492.6967   -643.36747     102002.7      46.7237      46.7237      46.7237 
  288000    128.85172   -7202.3749    -6527.926   -448.83799     102002.7      46.7237      46.7237      46.7237 
  289000    129.88483   -7179.6193   -6499.7628   -803.60042     102002.7      46.7237      46.7237      46.7237 
  290000    128.30423   -7204.0628   -6532.4796   -540.03482     102002.7      46.7237      46.7237      46.7237 
  291000    132.76667    -7202.214   -6507.2731    -513.9658     102002.7      46.7237      46.7237      46.7237 
  292000    131.42037   -7209.3204   -6521.4264   -527.88875     102002.7      46.7237      46.7237      46.7237 
  293000    133.39782   -7178.3337   -6480.0892    -670.3894     102002.7      46.7237      46.7237      46.7237 
  294000    127.61513   -7178.3459   -6510.3698   -890.68692     102002.7      46.7237      46.7237      46.7237 
  295000    128.61538   -7196.3458    -6523.134   -552.37345     102002.7      46.7237      46.7237      46.7237 
  296000    127.84456   -7178.7367   -6509.5596   -806.67469     102002.7      46.7237      46.7237      46.7237 
  297000    129.39499   -7207.5754   -6530.2828   -318.82783     102002.7      46.7237      46.7237      46.7237 
  298000    131.24147   -7196.2266    -6509.269   -725.70731     102002.7      46.7237      46.7237      46.7237 
  299000    128.45206   -7177.9748   -6505.6179   -786.24999     102002.7      46.7237      46.7237      46.7237 
  300000    125.14539    -7214.242   -6559.1931   -680.28509     102002.7      46.7237      46.7237      46.7237 
  301000    134.63335   -7199.4069   -6494.6952   -641.36732     102002.7      46.7237      46.7237      46.7237 
  302000    125.75981   -7183.3732   -6525.1083    -890.5579     102002.7      46.7237      46.7237      46.7237 
  303000    133.25945   -7190.1658   -6492.6455   -897.57668     102002.7      46.7237      46.7237      46.7237 
  304000    125.86634   -7193.1828   -6534.3603   -791.77756     102002.7      46.7237      46.7237      46.7237 
  305000    131.51562   -7186.2707   -6497.8782   -809.79213     102002.7      46.7237      46.7237      46.7237 
  306000    126.24146   -7175.0254   -6514.2394     -869.401     102002.7      46.7237      46.7237      46.7237 
  307000    130.25789   -7182.6925   -6500.8833   -802.49912     102002.7      46.7237      46.7237      46.7237 
  308000    124.74108   -7190.4588   -6537.5263    -965.2713     102002.7      46.7237      46.7237      46.7237 
  309000    131.95065   -7194.3121   -6503.6425   -676.31628     102002.7      46.7237      46.7237      46.7237 
  310000    134.37588   -7198.9961   -6495.6321   -788.18395     102002.7      46.7237      46.7237      46.7237 
  311000    127.47241   -7184.3034   -6517.0743   -553.36552     102002.7      46.7237      46.7237      46.7237 
  312000     132.0126   -7185.0906   -6494.0967   -663.97957     102002.7      46.7237      46.7237      46.7237 
  313000    130.78307   -7232.6974   -6548.1392   -505.02083     102002.7      46.7237      46.7237      46.7237 
  314000    128.17051   -7194.5029   -6523.6197   -409.93923     102002.7      46.7237      46.7237      46.7237 
  315000    129.68847   -7216.8399   -6538.0112   -860.68449     102002.7      46.7237      46.7237      46.7237 
  316000    129.21762   -7192.9316   -6516.5674   -807.05336     102002.7      46.7237      46.7237      46.7237 
  317000     127.9777   -7192.9454   -6523.0714   -346.54287     102002.7      46.7237      46.7237      46.7237 
  318000    132.93015   -7209.0258   -6513.2292   -514.76073     102002.7      46.7237      46.7237      46.7237 
  319000    128.21286   -7185.7805   -6514.6756   -665.40567     102002.7      46.7237      46.7237      46.7237 
  320000    134.22956   -7191.6231    -6489.025   -831.70001     102002.7      46.7237      46.7237      46.7237 
  321000    131.39941   -7212.7112    -6524.927   -792.07269     102002.7      46.7237      46.7237      46.7237 
  322000     130.3181   -7180.5896   -6498.4652   -929.50962     102002.7      46.7237      46.7237      46.7237 
  323000    130.49093   -7177.2938   -6494.2648   -885.34271     102002.7      46.7237      46.7237      46.7237 
  324000    135.49747   -7198.1103   -6488.8756   -809.57859     102002.7      46.7237      46.7237      46.7237 
  325000    130.33669   -7211.7622   -6529.5406   -618.23727     102002.7      46.7237      46.7237      46.7237 
  326000    135.98674   -7196.7516   -6484.9558   -728.00602     102002.7      46.7237      46.7237      46.7237 
  327000    129.98523   -7196.4099   -6516.0279   -598.12206     102002.7      46.7237      46.7237      46.7237 
  328000    125.54384    -7178.878   -6521.7436   -738.09905     102002.7      46.7237      46.7237      46.7237 
  329000    128.30333   -7180.6182   -6509.0398   -844.25427     102002.7      46.7237      46.7237      46.7237 
  330000     126.4949   -7170.5252   -6508.4126   -908.25072     102002.7      46.7237      46.7237      46.7237 
  331000    124.69955    -7190.709   -6537.9938   -852.01737     102002.7      46.7237      46.7237      46.7237 
  332000    132.49114   -7191.9795   -6498.4808   -446.50368     102002.7      46.7237      46.7237      46.7237 
  333000    132.57814   -7184.5625   -6490.6084   -569.85526     102002.7      46.7237      46.7237      46.7237 
  334000    129.35418   -7196.6936   -6519.6147   -540.10167     102002.7      46.7237      46.7237      46.7237 
  335000    132.85265   -7194.0187   -6498.6277   -584.54415     102002.7      46.7237      46.7237      46.7237 
  336000    127.23783   -7198.2714   -6532.2701   -460.92447     102002.7      46.7237      46.7237      46.7237 
  337000    130.39025   -7181.9123   -6499.4102   -766.25494     102002.7      46.7237      46.7237      46.7237 
  338000    125.33632   -7218.7801   -6562.7318   -673.65437     102002.7      46.7237      46.7237      46.7237 
  339000    130.83397   -7184.7563   -6499.9317   -355.21384     102002.7      46.7237      46.7237      46.7237 
  340000    126.98045   -7180.7444   -6516.0903    -849.0313     102002.7      46.7237      46.7237      46.7237 
  341000    127.91799   -7195.0647   -6525.5033   -499.07388     102002.7      46.7237      46.7237      46.7237 
  342000    134.86682   -7183.8136   -6477.8799   -410.35785     102002.7      46.7237      46.7237      46.7237 
  343000    130.40417   -7192.7322   -6510.1573   -617.08175     102002.7      46.7237      46.7237      46.7237 
  344000    132.29229   -7183.4625   -6491.0046   -807.64713     102002.7      46.7237      46.7237      46.7237 
  345000     125.4084   -7179.2894   -6522.8639   -465.13936     102002.7      46.7237      46.7237      46.7237 
  346000    126.58434   -7202.4856   -6539.9049   -495.92187     102002.7      46.7237      46.7237      46.7237 
  347000    127.98128    -7180.082   -6510.1893   -846.67073     102002.7      46.7237      46.7237      46.7237 
  348000    129.42498   -7188.3179   -6510.8684   -638.20433     102002.7      46.7237      46.7237      46.7237 
  349000    129.13539   -7173.7305   -6497.7968   -522.66454     102002.7      46.7237      46.7237      46.7237 
  350000    131.48994   -7199.0724   -6510.8143   -634.43424     102002.7      46.7237      46.7237      46.7237 
  351000    127.72731     -7185.58   -6517.0166   -613.89954     102002.7      46.7237      46.7237      46.7237 
  352000    125.88813   -7196.9627   -6538.0261   -881.46637     102002.7      46.7237      46.7237      46.7237 
  353000     129.2207   -7182.4679   -6506.0877   -541.71031     102002.7      46.7237      46.7237      46.7237 
  354000    137.16753   -7200.7139   -6482.7376   -810.24253     102002.7      46.7237      46.7237      46.7237 
  355000    126.55374    -7176.956   -6514.5355   -801.31771     102002.7      46.7237      46.7237      46.7237 
  356000    132.61866   -7178.2328   -6484.0667    -669.4505     102002.7      46.7237      46.7237      46.7237 
  357000    127.52424   -7182.4989   -6514.9984   -962.21779     102002.7      46.7237      46.7237      46.7237 
  358000    129.03088   -7188.7234   -6513.3368   -635.59092     102002.7      46.7237      46.7237      46.7237 
  359000     125.5047    -7180.931   -6524.0015   -715.55442     102002.7      46.7237      46.7237      46.7237 
  360000    129.00154   -7165.9179   -6490.6848   -651.35907     102002.7      46.7237      46.7237      46.7237 
  361000    128.05586   -7193.9024   -6523.6194   -679.07727     102002.7      46.7237      46.7237      46.7237 
  362000    131.84879   -7206.4997   -6516.3633   -471.95257     102002.7      46.7237      46.7237      46.7237 
  363000    134.31802   -7222.6382   -6519.5771   -589.30411     102002.7      46.7237      46.7237      46.7237 
  364000    128.90625   -7191.0524   -6516.3181   -310.02798     102002.7      46.7237      46.7237      46.7237 
  365000      131.439   -7175.8537   -6487.8622   -623.92116     102002.7      46.7237      46.7237      46.7237 
  366000    131.40627   -7212.8173   -6524.9972   -686.13198     102002.7      46.7237      46.7237      46.7237 
  367000    129.77749   -7226.4456    -6547.151   -811.14545     102002.7      46.7237      46.7237      46.7237 
  368000    133.90503   -7198.7927   -6497.8932   -862.64836     102002.7      46.7237      46.7237      46.7237 
  369000    127.84129   -7211.9998   -6542.8399   -651.22214     102002.7      46.7237      46.7237      46.7237 
  370000    126.32773    -7190.035   -6528.7974    -884.9389     102002.7      46.7237      46.7237      46.7237 
  371000    128.19948   -7152.1583   -6481.1234    -898.9632     102002.7      46.7237      46.7237      46.7237 
  372000    131.99406   -7185.2418   -6494.3449   -722.88122     102002.7      46.7237      46.7237      46.7237 
  373000    128.98377   -7217.7133   -6542.5732   -858.47962     102002.7      46.7237      46.7237      46.7237 
  374000    128.79554    -7199.442   -6525.2872   -636.06974     102002.7      46.7237      46.7237      46.7237 
  375000    128.40158   -7192.5922   -6520.4995    -547.8118     102002.7      46.7237      46.7237      46.7237 
  376000    130.06206     -7211.73   -6530.9458   -511.76995     102002.7      46.7237      46.7237      46.7237 
  377000    128.53645   -7171.3234   -6498.5248    -651.5514     102002.7      46.7237      46.7237      46.7237 
  378000    129.49769    -7204.639    -6526.809   -330.70583     102002.7      46.7237      46.7237      46.7237 
  379000    131.82367   -7199.3628   -6509.3578   -359.74835     102002.7      46.7237      46.7237      46.7237 
  380000    130.14566   -7216.4354   -6535.2137   -692.52555     102002.7      46.7237      46.7237      46.7237 
  381000     130.2682   -7189.8082   -6507.9451   -492.62446     102002.7      46.7237      46.7237      46.7237 
  382000     132.6484   -7165.5122   -6471.1903   -712.71482     102002.7      46.7237      46.7237      46.7237 
  383000     129.0859   -7163.4667   -6487.7921   -719.61415     102002.7      46.7237      46.7237      46.7237 
  384000    134.05839   -7207.9572    -6506.255   -563.20018     102002.7      46.7237      46.7237      46.7237 
  385000     133.5596   -7200.2259   -6501.1346   -687.09111     102002.7      46.7237      46.7237      46.7237 
  386000    128.77148   -7182.7803   -6508.7514   -956.33185     102002.7      46.7237      46.7237      46.7237 
  387000     127.4965   -7201.6593   -6534.3041   -614.18303     102002.7      46.7237      46.7237      46.7237 
  388000    127.37067   -7208.0466     -6541.35   -853.18387     102002.7      46.7237      46.7237      46.7237 
  389000    131.38257   -7194.9987   -6507.3026   -680.20679     102002.7      46.7237      46.7237      46.7237 
  390000    133.92829   -7208.9146   -6507.8934   -922.39158     102002.7      46.7237      46.7237      46.7237 
  391000    127.34827   -7199.0301   -6532.4507   -608.49113     102002.7      46.7237      46.7237      46.7237 
  392000    132.57435   -7190.5688   -6496.6345   -547.08393     102002.7      46.7237      46.7237      46.7237 
  393000    123.70411   -7194.7065   -6547.2017   -747.95184     102002.7      46.7237      46.7237      46.7237 
  394000    129.36756   -7192.6211   -6515.4722   -849.80039     102002.7      46.7237      46.7237      46.7237 
  395000    130.89516   -7195.1415   -6509.9966   -1122.6586     102002.7      46.7237      46.7237      46.7237 
  396000    134.00904   -7188.8781   -6487.4342   -1069.3662     102002.7      46.7237      46.7237      46.7237 
  397000    127.98456   -7178.4492   -6508.5394   -987.99179     102002.7      46.7237      46.7237      46.7237 
  398000     134.1706   -7213.0028   -6510.7133   -689.97137     102002.7      46.7237      46.7237      46.7237 
  399000    128.76008   -7204.5336   -6530.5644   -656.63174     102002.7      46.7237      46.7237      46.7237 
  400000     132.3852   -7198.9027   -6505.9585   -628.96609     102002.7      46.7237      46.7237      46.7237 
  401000    127.94508   -7185.4281   -6515.7249   -541.25654     102002.7      46.7237      46.7237      46.7237 
  402000    129.64484   -7192.3961   -6513.7958   -1012.8761     102002.7      46.7237      46.7237      46.7237 
  403000    128.69895   -7198.4493   -6524.8001   -683.54811     102002.7      46.7237      46.7237      46.7237 
  404000    135.78547   -7178.5374   -6467.7952   -742.86092     102002.7      46.7237      46.7237      46.7237 
  405000    127.11284   -7193.6328   -6528.2858   -870.39113     102002.7      46.7237      46.7237      46.7237 
  406000      127.558   -7181.2731    -6513.596   -625.71179     102002.7      46.7237      46.7237      46.7237 
  407000    123.10805   -7184.6344   -6540.2496   -885.34014     102002.7      46.7237      46.7237      46.7237 
  408000    131.79457   -7209.2828   -6519.4302   -789.42763     102002.7      46.7237      46.7237      46.7237 
  409000     131.9673   -7194.9878    -6504.231   -586.21026     102002.7      46.7237      46.7237      46.7237 
  410000    131.97833   -7180.0976   -6489.2831   -533.18816     102002.7      46.7237      46.7237      46.7237 
  411000    131.73254   -7204.8359   -6515.3079   -742.73749     102002.7      46.7237      46.7237      46.7237 
  412000    125.87655   -7198.8582   -6539.9822   -902.37506     102002.7      46.7237      46.7237      46.7237 
  413000    130.31855   -7187.4263   -6505.2996   -650.31415     102002.7      46.7237      46.7237      46.7237 
  414000    129.13296   -7189.5724   -6513.6514   -1334.3185     102002.7      46.7237      46.7237      46.7237 
  415000    133.92756    -7218.183   -6517.1657   -767.11098     102002.7      46.7237      46.7237      46.7237 
  416000    127.70569   -7193.4181   -6524.9679   -807.71765     102002.7      46.7237      46.7237      46.7237 
  417000    124.51629   -7210.3872   -6558.6313   -830.28042     102002.7      46.7237      46.7237      46.7237 
  418000    132.25009   -7203.1937   -6510.9568   -558.38058     102002.7      46.7237      46.7237      46.7237 
  419000    134.30548   -7202.0917   -6499.0961   -818.74481     102002.7      46.7237      46.7237      46.7237 
  420000     129.1925   -7201.4364   -6525.2038   -453.50066     102002.7      46.7237      46.7237      46.7237 
  421000    127.17243    -7172.837    -6507.178   -557.09028     102002.7      46.7237      46.7237      46.7237 
  422000    128.79627   -7212.4432   -6538.2845   -665.97404     102002.7      46.7237      46.7237      46.7237 
  423000    128.68453   -7196.4725   -6522.8987   -722.01956     102002.7      46.7237      46.7237      46.7237 
  424000    134.36433   -7195.2522   -6491.9487   -773.60197     102002.7      46.7237      46.7237      46.7237 
  425000    128.70347   -7184.2573   -6510.5844   -662.75804     102002.7      46.7237      46.7237      46.7237 
  426000    128.91968    -7188.856   -6514.0514   -498.74357     102002.7      46.7237      46.7237      46.7237 
  427000     132.2747   -7220.9022   -6528.5364   -786.29621     102002.7      46.7237      46.7237      46.7237 
  428000    129.09555   -7178.5944   -6502.8693   -959.88174     102002.7      46.7237      46.7237      46.7237 
  429000    126.04224   -7199.8825   -6540.1393   -772.66387     102002.7      46.7237      46.7237      46.7237 
  430000    129.98963   -7186.3801   -6505.9751   -621.23023     102002.7      46.7237      46.7237      46.7237 
  431000      134.071    -7189.594   -6487.8258   -600.76548     102002.7      46.7237      46.7237      46.7237 
  432000    127.65713   -7204.3457   -6536.1497   -788.24353     102002.7      46.7237      46.7237      46.7237 
  433000      132.885   -7224.3269   -6528.7666    -521.8111     102002.7      46.7237      46.7237      46.7237 
  434000    133.39282   -7189.2427   -6491.0243   -618.93901     102002.7      46.7237      46.7237      46.7237 
  435000    131.93539   -7204.6536   -6514.0639   -811.95253     102002.7      46.7237      46.7237      46.7237 
  436000    132.53895   -7198.9075   -6505.1585    -613.9438     102002.7      46.7237      46.7237      46.7237 
  437000    126.64537   -7198.3347   -6535.4345   -703.58755     102002.7      46.7237      46.7237      46.7237 
  438000    128.41557   -7201.8233   -6529.6574   -808.47674     102002.7      46.7237      46.7237      46.7237 
  439000    130.65355   -7190.1756   -6506.2954   -1005.8824     102002.7      46.7237      46.7237      46.7237 
  440000    126.76859   -7237.3988   -6573.8537   -609.14571     102002.7      46.7237      46.7237      46.7237 
  441000    130.63549   -7173.6806   -6489.8949   -1026.2478     102002.7      46.7237      46.7237      46.7237 
  442000    127.59187   -7205.8711   -6538.0166   -645.07332     102002.7      46.7237      46.7237      46.7237 
  443000    130.49262   -7181.4804   -6498.4425   -801.62714     102002.7      46.7237      46.7237      46.7237 
  444000    130.02372   -7195.6408   -6515.0573   -992.40012     102002.7      46.7237      46.7237      46.7237 
  445000    132.59197   -7157.0037   -6462.9772   -1119.1366     102002.7      46.7237      46.7237      46.7237 
  446000    126.98964    -7190.073   -6525.3708   -525.63103     102002.7      46.7237      46.7237      46.7237 
  447000    127.35235   -7210.0128   -6543.4121    -747.9924     102002.7      46.7237      46.7237      46.7237 
  448000    130.18862   -7187.4791   -6506.0325   -753.29777     102002.7      46.7237      46.7237      46.7237 
  449000    131.45181   -7209.6973   -6521.6388    -884.8498     102002.7      46.7237      46.7237      46.7237 
  450000    130.35514   -7228.3399   -6546.0217    -525.5211     102002.7      46.7237      46.7237      46.7237 
  451000    133.81047   -7193.8219   -6493.4174   -655.37319     102002.7      46.7237      46.7237      46.7237 
  452000    129.17538   -7175.6903   -6499.5473   -725.83735     102002.7      46.7237      46.7237      46.7237 
  453000     127.8246   -7207.9995   -6538.9268   -863.36036     102002.7      46.7237      46.7237      46.7237 
  454000    130.26948    -7179.855   -6497.9851   -873.25774     102002.7      46.7237      46.7237      46.7237 
  455000    128.00458   -7183.7948   -6513.7801   -761.72197     102002.7      46.7237      46.7237      46.7237 
  456000    129.98484   -7197.7051   -6517.3251   -950.27887     102002.7      46.7237      46.7237      46.7237 
  457000    130.64401   -7184.4862   -6500.6559   -1006.9996     102002.7      46.7237      46.7237      46.7237 
  458000    132.02358   -7210.2247   -6519.1733   -962.90544     102002.7      46.7237      46.7237      46.7237 
  459000    130.36217   -7198.4198   -6516.0648   -805.62606     102002.7      46.7237      46.7237      46.7237 
  460000    130.31373   -7206.4859   -6524.3844   -709.83196     102002.7      46.7237      46.7237      46.7237 
  461000    127.55949   -7191.6814   -6523.9964   -920.79766     102002.7      46.7237      46.7237      46.7237 
  462000    133.69296   -7197.8117   -6498.0224   -616.44859     102002.7      46.7237      46.7237      46.7237 
  463000     128.8676   -7189.4357   -6514.9037    -481.6782     102002.7      46.7237      46.7237      46.7237 
  464000    128.01254   -7207.4977   -6537.4413   -711.72733     102002.7      46.7237      46.7237      46.7237 
  465000    131.34949   -7186.6495   -6499.1265   -529.72426     102002.7      46.7237      46.7237      46.7237 
  466000    131.84024   -7183.4434   -6493.3517   -487.99372     102002.7      46.7237      46.7237      46.7237 
  467000    127.19796   -7182.1904   -6516.3978   -463.07921     102002.7      46.7237      46.7237      46.7237 
  468000    134.13518   -7198.7411   -6496.6371   -453.05435     102002.7      46.7237      46.7237      46.7237 
  469000    131.09741   -7191.0144   -6504.8109   -363.86683     102002.7      46.7237      46.7237      46.7237 
  470000    126.13383   -7206.0904   -6545.8678   -1076.1118     102002.7      46.7237      46.7237      46.7237 
  471000    128.87808   -7181.2577   -6506.6709   -677.05722     102002.7      46.7237      46.7237      46.7237 
  472000    129.12689   -7182.5823   -6506.6931   -1010.2462     102002.7      46.7237      46.7237      46.7237 
  473000    129.16558   -7176.0743   -6499.9826   -901.66782     102002.7      46.7237      46.7237      46.7237 
  474000    128.45725   -7207.3381   -6534.9541   -476.16604     102002.7      46.7237      46.7237      46.7237 
  475000    124.57047   -7177.9973   -6525.9578   -895.57253     102002.7      46.7237      46.7237      46.7237 
  476000    133.42112   -7189.4238   -6491.0573   -809.95472     102002.7      46.7237      46.7237      46.7237 
  477000    129.44614   -7214.6861   -6537.1259     -875.022     102002.7      46.7237      46.7237      46.7237 
  478000    130.25169   -7182.6351   -6500.8584   -876.64997     102002.7      46.7237      46.7237      46.7237 
  479000    125.06826   -7179.6781   -6525.0329   -951.40835     102002.7      46.7237      46.7237      46.7237 
  480000    132.83084   -7206.8755   -6511.5987   -501.65656     102002.7      46.7237      46.7237      46.7237 
  481000     132.4868   -7170.9635   -6477.4875   -682.69483     102002.7      46.7237      46.7237      46.7237 
  482000     129.4833   -7187.9586   -6510.2038   -525.58137     102002.7      46.7237      46.7237      46.7237 
  483000     126.8641   -7196.7667   -6532.7216   -744.48285     102002.7      46.7237      46.7237      46.7237 
  484000    130.26229    -7211.292   -6529.4597   -729.76982     102002.7      46.7237      46.7237      46.7237 
  485000    129.65197   -7186.8383   -6508.2007   -500.16916     102002.7      46.7237      46.7237      46.7237 
  486000    132.11574   -7182.4078   -6490.8741   -833.37352     102002.7      46.7237      46.7237      46.7237 
  487000    129.98352   -7207.1943   -6526.8212   -808.44343     102002.7      46.7237      46.7237      46.7237 
  488000     125.6894   -7204.6152   -6546.7188   -465.27047     102002.7      46.7237      46.7237      46.7237 
  489000    130.53135   -7191.0242   -6507.7837   -611.95841     102002.7      46.7237      46.7237      46.7237 
  490000    128.61826   -7183.5287   -6510.3018   -669.39356     102002.7      46.7237      46.7237      46.7237 
  491000     131.0917   -7200.4162   -6514.2426   -544.77454     102002.7      46.7237      46.7237      46.7237 
  492000    127.05978    -7183.905   -6518.8356   -805.46029     102002.7      46.7237      46.7237      46.7237 
  493000    129.06124    -7198.442   -6522.8964   -549.56161     102002.7      46.7237      46.7237      46.7237 
  494000    128.57906   -7193.3516   -6520.3299   -727.99412     102002.7      46.7237      46.7237      46.7237 
  495000    135.41807   -7199.7188   -6490.8997   -533.16253     102002.7      46.7237      46.7237      46.7237 
  496000     130.0571   -7206.3674   -6525.6092   -716.59405     102002.7      46.7237      46.7237      46.7237 
  497000    132.22578   -7207.7995   -6515.6898   -450.39034     102002.7      46.7237      46.7237      46.7237 
  498000    126.79515   -7201.0688   -6537.3846   -691.60501     102002.7      46.7237      46.7237      46.7237 
  499000    132.27944   -7195.5216    -6503.131   -667.64479     102002.7      46.7237      46.7237      46.7237 
  500000    128.24081   -7234.1215   -6562.8703   -436.75836     102002.7      46.7237      46.7237      46.7237 
  500505     131.3119   -7187.5214   -6500.1951    -703.9624     102002.7      46.7237      46.7237      46.7237 
Loop time of 1298.44 on 16 procs for 500000 steps with 1757 atoms

Performance: 33.271 ns/day, 0.721 hours/ns, 385.078 timesteps/s
99.8% CPU use with 16 MPI tasks x no OpenMP threads

MPI task timing breakdown:
Section |  min time  |  avg time  |  max time  |%varavg| %total
---------------------------------------------------------------
Pair    | 510.54     | 692.62     | 863.42     | 468.1 | 53.34
Bond    | 168.02     | 174.21     | 180.1      |  29.0 | 13.42
Neigh   | 4.8758     | 4.8967     | 4.9128     |   0.5 |  0.38
Comm    | 243.31     | 413.46     | 595.75     | 607.1 | 31.84
Output  | 0.019961   | 0.020383   | 0.023603   |   0.6 |  0.00
Modify  | 7.4731     | 8.0568     | 8.5271     |   9.6 |  0.62
Other   |            | 5.179      |            |       |  0.40

Nlocal:    109.812 ave 132 max 87 min
Histogram: 1 0 1 4 3 2 2 0 1 2
Nghost:    2231.31 ave 2262 max 2211 min
Histogram: 3 0 1 5 3 0 3 0 0 1
Neighs:    11459.3 ave 15753 max 7312 min
Histogram: 2 3 1 0 1 2 1 3 1 2

Total # of neighbors = 183349
Ave neighs/atom = 104.353
Ave special neighs/atom = 6.55663
Neighbor list builds = 4059
Dangerous builds = 0
Neighbor list info ...
  update every 1 steps, delay 10 steps, check yes
  max neighbors/atom: 2000, page size: 100000
  master list distance cutoff = 16
  ghost atom cutoff = 16
  binsize = 8, bins = 6 6 6
  3 neighbor lists, perpetual/occasional/extra = 3 0 0
  (1) pair buck6d/coul/gauss/dsf, perpetual, skip from (3)
      attributes: half, newton on
      pair build: skip
      stencil: none
      bin: none
  (2) pair lj/cut, perpetual, skip from (3)
      attributes: half, newton on
      pair build: skip
      stencil: none
      bin: none
  (3) neighbor class addition, perpetual
      attributes: half, newton on
      pair build: half/bin/newton
      stencil: half/bin/3d/newton
      bin: standard
Setting up Verlet run ...
  Unit style    : real
  Current step  : 500505
  Time step     : 1
WARNING: Inconsistent image flags (../domain.cpp:786)
Per MPI rank memory allocation (min/avg/max) = 23.07 | 23.32 | 23.34 Mbytes
Step Time TotEng KinEng PotEng E_mol E_pair Temp Pxx Pyy Pzz Pxy Pxz Pyz Cella Cellb Cellc CellAlpha CellBeta CellGamma Volume Press 
  500505       500000   -6500.1951    687.32623   -7187.5214    4406.7495   -11594.271     131.3119   -563.96088   -774.06085   -773.86546    226.70705    120.90773   -32.826638      46.7237      46.7237      46.7237           90           90           90     102002.7    -703.9624 
  501000       500495   -6496.7765    692.81533   -7189.5918    4413.4837   -11603.075    132.36059   -1077.8545   -1074.3885   -972.57003    272.83886    46.897563   -59.623677      46.7237      46.7237      46.7237           90           90           90     102002.7   -1041.6043 
  502000       501495    -6531.556    656.06508   -7187.6211    4396.2423   -11583.863    125.33954   -378.86488   -385.67195    -461.3495    108.80348    110.99183   -286.27245      46.7237      46.7237      46.7237           90           90           90     102002.7   -408.62878 
  503000       502495   -6506.6728    684.52766   -7191.2004    4410.8073   -11602.008    130.77725   -681.98455    -995.6041   -609.42455   -140.20057   -212.11849   -311.09922      46.7237      46.7237      46.7237           90           90           90     102002.7   -762.33773 
  504000       503495   -6512.6703    681.96385   -7194.6342    4410.4334   -11605.068    130.28744   -973.72933   -367.07064   -1401.3168    17.173931    46.583071    25.509143      46.7237      46.7237      46.7237           90           90           90     102002.7   -914.03893 
  505000       504495   -6526.1462    682.67877    -7208.825     4391.597   -11600.422    130.42402   -971.54094      -739.32   -578.93527    56.601843    108.76865   -69.381286      46.7237      46.7237      46.7237           90           90           90     102002.7    -763.2654 
  506000       505495    -6493.574    674.48204    -7168.056    4442.9427   -11610.999    128.85806   -657.36833    -648.5513   -927.23794    74.507032    17.672816   -102.47386      46.7237      46.7237      46.7237           90           90           90     102002.7   -744.38586 
  507000       506495   -6524.4216    682.01058   -7206.4322    4399.8464   -11606.279    130.29637   -686.29818   -893.44801   -800.66919   -137.70929    8.3013698    176.79288      46.7237      46.7237      46.7237           90           90           90     102002.7   -793.47179 
  508000       507495    -6496.086    696.81087   -7192.8969    4420.1222   -11613.019    133.12392   -1037.4125   -1116.5573   -1078.9454    276.82088    164.86599    132.62475      46.7237      46.7237      46.7237           90           90           90     102002.7   -1077.6384 
  509000       508495   -6531.1498    682.59728   -7213.7471    4373.1309   -11586.878    130.40845   -702.62724   -800.65025   -651.96701   -95.867257     199.6389    144.38956      46.7237      46.7237      46.7237           90           90           90     102002.7   -718.41483 
  510000       509495   -6554.7991    653.81447   -7208.6136    4395.7109   -11604.325    124.90957   -874.78468    -796.0338   -1025.7577   -53.469466    86.785167    101.70319      46.7237      46.7237      46.7237           90           90           90     102002.7   -898.85871 
  511000       510495   -6483.7792     680.6449   -7164.4241    4443.1773   -11607.601    130.03546   -846.31363   -806.11849   -680.03432    71.648627     143.5683   -362.64675      46.7237      46.7237      46.7237           90           90           90     102002.7   -777.48881 
  512000       511495   -6529.9195     668.2377   -7198.1572    4394.4659   -11592.623    127.66509   -1010.8747   -1282.7088   -619.21252    21.842411    53.433493   -156.78002      46.7237      46.7237      46.7237           90           90           90     102002.7   -970.93199 
  513000       512495   -6528.0845     679.8099   -7207.8944    4374.8023   -11582.697    129.87593   -129.71918   -696.92461   -701.87065    378.63527    190.28971    379.97616      46.7237      46.7237      46.7237           90           90           90     102002.7   -509.50481 
  514000       513495   -6513.9279    679.45943   -7193.3873    4391.5939   -11584.981    129.80897   -845.14951   -574.00781   -876.89138    120.34022   -79.265016   -94.031573      46.7237      46.7237      46.7237           90           90           90     102002.7   -765.34957 
  515000       514495   -6499.3293    688.07365   -7187.4029    4414.0646   -11601.468     131.4547   -1201.7883   -913.45146    -650.0858   -4.1315717   -161.20084    -395.7711      46.7237      46.7237      46.7237           90           90           90     102002.7    -921.7752 
  516000       515495   -6508.1016     692.3834    -7200.485    4398.1275   -11598.612    132.27807   -310.64434   -379.66273   -624.63359    308.67003    339.14631   -13.925968      46.7237      46.7237      46.7237           90           90           90     102002.7   -438.31355 
  517000       516495   -6523.1145    678.96897   -7202.0835    4396.4663    -11598.55    129.71527   -812.82177   -520.79675   -1220.4019    9.7290294   -38.562446   -29.233472      46.7237      46.7237      46.7237           90           90           90     102002.7   -851.34014 
  518000       517495   -6521.8878    690.86355   -7212.7513    4393.0211   -11605.772     131.9877   -1091.0277   -971.38744   -405.81532    166.65231   -43.014762   -9.8562622      46.7237      46.7237      46.7237           90           90           90     102002.7    -822.7435 
  519000       518495   -6508.5117     669.4089   -7177.9206    4414.7078   -11592.628    127.88885   -661.64076   -809.66358   -977.32531    169.71374   -52.479627   -36.253778      46.7237      46.7237      46.7237           90           90           90     102002.7   -816.20988 
  520000       519495   -6564.9914    648.93898   -7213.9304    4394.3307   -11608.261    123.97812   -945.25416   -873.14262   -324.44683    30.848783    214.39319   -99.362751      46.7237      46.7237      46.7237           90           90           90     102002.7    -714.2812 
  521000       520495   -6493.2308    673.82602   -7167.0568    4433.8243   -11600.881    128.73273   -983.27141   -1278.2223   -978.43741   -151.97024    157.55787    -202.6041      46.7237      46.7237      46.7237           90           90           90     102002.7   -1079.9771 
  522000       521495   -6506.7409    687.09233   -7193.8333    4421.4084   -11615.242    131.26722   -738.43465    -638.7408    -739.5294    26.672493   -126.25094   -48.282033      46.7237      46.7237      46.7237           90           90           90     102002.7   -705.56828 
  523000       522495   -6494.1557    686.96422   -7181.1199    4414.5827   -11595.703    131.24274   -494.31343    -781.9936   -816.37746   -144.21919   -240.49809   -27.261563      46.7237      46.7237      46.7237           90           90           90     102002.7    -697.5615 
  524000       523495   -6508.9957    681.15635    -7190.152    4404.1644   -11594.316    130.13317   -535.32942   -1256.8447   -481.17445    31.293093    -17.13793    90.969575      46.7237      46.7237      46.7237           90           90           90     102002.7   -757.78285 
  525000       524495   -6511.0417    699.92173   -7210.9634    4397.0602   -11608.024    133.71824     -266.038   -803.34313   -738.92976    -45.20786     -257.995   -26.431306      46.7237      46.7237      46.7237           90           90           90     102002.7    -602.7703 
  526000       525495   -6530.6563    661.03782   -7191.6941    4422.0605   -11613.755    126.28957   -756.14327   -1188.7793   -983.25018    467.54294   -182.56878    148.29559      46.7237      46.7237      46.7237           90           90           90     102002.7   -976.05758 
  527000       526495   -6493.8065    706.44941    -7200.256    4400.4456   -11600.702    134.96534   -745.31376   -291.92766   -808.06822   -2.5428927    155.79284   -135.47824      46.7237      46.7237      46.7237           90           90           90     102002.7   -615.10321 
  528000       527495   -6497.7564    680.21525   -7177.9717    4411.4516   -11589.423    129.95337   -735.51874   -413.40295   -395.03862   -74.136052   -29.823746    295.05375      46.7237      46.7237      46.7237           90           90           90     102002.7   -514.65344 
  529000       528495   -6515.0957    682.76336    -7197.859    4407.3308    -11605.19    130.44018   -790.96225   -729.49243   -521.42299    -102.2362    190.47214   -132.47691      46.7237      46.7237      46.7237           90           90           90     102002.7   -680.62589 
  530000       529495   -6490.3404    695.02296   -7185.3634    4412.3327   -11597.696    132.78235   -548.86862   -449.84335   -448.60138    23.035064    204.85584    71.360753      46.7237      46.7237      46.7237           90           90           90     102002.7   -482.43778 
  531000       530495   -6515.5185    666.11975   -7181.6383    4426.4738   -11608.112    127.26046   -367.89375   -333.79116   -847.84495   -56.962705    13.343056   -152.72318      46.7237      46.7237      46.7237           90           90           90     102002.7   -516.50995 
  532000       531495   -6533.7306     668.0044    -7201.735    4404.6484   -11606.383    127.62052    -797.6116    -725.5223   -1037.3078    112.71624    94.611907   -116.91124      46.7237      46.7237      46.7237           90           90           90     102002.7   -853.48055 
  533000       532495   -6500.6299    686.58618   -7187.2161    4408.4458   -11595.662    131.17052   -1032.4393   -310.54817   -283.74653    123.28932   -183.87982   -150.90868      46.7237      46.7237      46.7237           90           90           90     102002.7   -542.24468 
  534000       533495   -6511.6904    686.51673   -7198.2072    4401.2919   -11599.499    131.15725   -326.41494   -602.95869   -1049.5906   -58.926986     343.1426   -192.15468      46.7237      46.7237      46.7237           90           90           90     102002.7   -659.65473 
  535000       534495   -6531.3351    646.72746   -7178.0626     4433.526   -11611.589    123.55562   -1235.1501   -892.32689   -601.85051   -239.30496    -162.6789   -302.52162      46.7237      46.7237      46.7237           90           90           90     102002.7   -909.77582 
  536000       535495   -6510.6006    686.82227   -7197.4228    4421.0878   -11618.511    131.21562   -645.49705   -900.69299   -621.58647   -4.8742857   -245.23277    153.35114      46.7237      46.7237      46.7237           90           90           90     102002.7   -722.59217 
  537000       536495   -6517.4736    670.36202   -7187.8356    4409.8383   -11597.674    128.07094   -922.19136   -805.95052   -559.21835   -66.247188    27.173467      455.603      46.7237      46.7237      46.7237           90           90           90     102002.7   -762.45341 
  538000       537495   -6524.0735    672.22783   -7196.3013     4414.192   -11610.493    128.42739   -759.84377   -798.81263   -978.69068    33.888102   -101.30393   -274.14609      46.7237      46.7237      46.7237           90           90           90     102002.7   -845.78236 
  539000       538495   -6520.8684    664.33259    -7185.201    4401.5581   -11586.759    126.91903   -960.91942   -487.29915   -836.22593    52.348022    102.20778   -18.613909      46.7237      46.7237      46.7237           90           90           90     102002.7    -761.4815 
  540000       539495   -6484.3066    691.52286   -7175.8295    4436.1314   -11611.961    132.11366   -441.67653   -789.94727   -701.62392    175.62855    304.78869    198.30056      46.7237      46.7237      46.7237           90           90           90     102002.7    -644.4159 
  541000       540495    -6486.874    693.38143   -7180.2554     4422.428   -11602.683    132.46874   -215.01094   -257.89324   -1007.9369   -224.87671   -287.10148   -26.143648      46.7237      46.7237      46.7237           90           90           90     102002.7   -493.61368 
  542000       541495   -6498.2851    691.95028   -7190.2353    4415.5042    -11605.74    132.19532   -829.90278   -544.28916   -1120.6601   -18.053007    60.704023    52.365544      46.7237      46.7237      46.7237           90           90           90     102002.7   -831.61735 
  543000       542495   -6492.6214    681.49719   -7174.1186    4423.3927   -11597.511    130.19828   -713.28951   -217.57238   -1089.6145    135.12854   -62.972408    177.59268      46.7237      46.7237      46.7237           90           90           90     102002.7   -673.49212 
  544000       543495    -6523.473    689.06504    -7212.538    4401.6265   -11614.165     131.6441   -1013.2312   -859.16933   -699.14524    136.37746   -180.28435    -167.7436      46.7237      46.7237      46.7237           90           90           90     102002.7   -857.18193 
  545000       544495   -6499.2438    686.46933   -7185.7131    4407.6469    -11593.36     131.1482   -834.97428   -588.28412   -417.20601   -223.94326   -27.300087   -49.224406      46.7237      46.7237      46.7237           90           90           90     102002.7   -613.48814 
  546000       545495   -6530.7305    673.20322   -7203.9338    4401.5867    -11605.52    128.61374   -779.91028   -818.79172   -1226.4078    5.6087249   -91.011077    255.04898      46.7237      46.7237      46.7237           90           90           90     102002.7   -941.70326 
  547000       546495   -6509.7976    689.58783   -7199.3854    4398.8567   -11598.242    131.74398   -891.73526   -644.68542    -405.4847   -407.93015   -72.682095    191.20987      46.7237      46.7237      46.7237           90           90           90     102002.7   -647.30179 
  548000       547495   -6538.6264     679.0616    -7217.688    4390.4309   -11608.119    129.73297   -606.04124   -345.99867   -672.39796   -208.20312   -54.092659    198.59413      46.7237      46.7237      46.7237           90           90           90     102002.7   -541.47929 
  549000       548495   -6516.5998    683.68456   -7200.2844    4396.9773   -11597.262    130.61617   -654.37021   -449.93198   -441.32207    84.826471    49.855545    106.45054      46.7237      46.7237      46.7237           90           90           90     102002.7   -515.20809 
  550000       549495   -6514.8638    670.84294   -7185.7067    4407.9544   -11593.661    128.16282   -606.70767   -117.04435   -922.26009    151.48611    81.597509   -58.700831      46.7237      46.7237      46.7237           90           90           90     102002.7    -548.6707 
  551000       550495   -6525.5387    680.08127   -7205.6199    4403.4167   -11609.037    129.92777    -850.5076   -795.46795   -643.21006   -18.320923    177.43886    297.82477      46.7237      46.7237      46.7237           90           90           90     102002.7   -763.06187 
  552000       551495   -6501.9968    672.64909   -7174.6459    4424.5752   -11599.221    128.50788   -1181.9303   -690.56156   -601.27744    226.86437    116.56992    10.199031      46.7237      46.7237      46.7237           90           90           90     102002.7   -824.58975 
  553000       552495   -6505.7897    696.26059   -7202.0503    4399.8123   -11601.863    133.01879    -1017.209   -1262.6805   -765.13353    73.285499      47.0521    210.24815      46.7237      46.7237      46.7237           90           90           90     102002.7   -1015.0077 
  554000       553495   -6481.6695    705.56255   -7187.2321    4431.1089   -11618.341    134.79591   -1207.9567   -1386.6787   -976.05692    249.20227   -121.16201   -182.79386      46.7237      46.7237      46.7237           90           90           90     102002.7   -1190.2308 
  555000       554495   -6514.2624    687.04417   -7201.3066    4393.4685   -11594.775    131.25802   -543.72886   -1144.9144   -1049.8575    152.58876   -6.1451241     125.2401      46.7237      46.7237      46.7237           90           90           90     102002.7   -912.83359 
[...]
  936000       935495   -6535.8822    658.34968   -7194.2319    4387.3153   -11581.547    125.77601   -517.48044   -619.58291   -674.65657   -247.17536   -200.49643   -7.3613127      46.7237      46.7237      46.7237           90           90           90     102002.7   -603.90664 
  937000       936495   -6491.9009    696.97687   -7188.8778    4406.2447   -11595.123    133.15564   -1015.8953   -590.65478   -1406.9015   -94.817428    28.500832    140.51611      46.7237      46.7237      46.7237           90           90           90     102002.7   -1004.4839 
  938000       937495   -6496.7385    685.24804   -7181.9866    4422.0961   -11604.083    130.91487   -694.89105   -386.75068   -419.14663    72.141076    225.63324   -90.006551      46.7237      46.7237      46.7237           90           90           90     102002.7   -500.26279 
  939000       938495   -6508.8391    673.34473   -7182.1839    4411.3667   -11593.551    128.64078   -799.53482   -1229.0702   -988.76822   -128.59638    200.09757    16.227846      46.7237      46.7237      46.7237           90           90           90     102002.7   -1005.7911 
  940000       939495   -6457.8669    695.68468   -7153.5516    4466.9231   -11620.475    132.90877   -737.88391   -725.19954   -681.51995   -33.418826   -38.461804    51.578822      46.7237      46.7237      46.7237           90           90           90     102002.7    -714.8678 
  941000       940495   -6523.2682    676.82221   -7200.0904    4396.2012   -11596.292    129.30514    -615.4854   -655.94223   -852.24418    160.15642    107.55905    1.1132534      46.7237      46.7237      46.7237           90           90           90     102002.7    -707.8906 
  942000       941495   -6497.3872    695.88567   -7193.2729    4418.4853   -11611.758    132.94717   -1047.4649   -482.94471   -338.64753     31.55076    152.99156    51.475129      46.7237      46.7237      46.7237           90           90           90     102002.7   -623.01904 
  943000       942495   -6489.5164    676.37828   -7165.8947    4442.1856    -11608.08    129.22033   -689.98263   -120.20319   -749.85349     52.32667   -13.986599   -178.50184      46.7237      46.7237      46.7237           90           90           90     102002.7    -520.0131 
  944000       943495   -6517.3113    678.35413   -7195.6655     4400.951   -11596.616    129.59781   -211.99765   -853.45428    -1100.294   -74.412481    -214.3727    -197.2662      46.7237      46.7237      46.7237           90           90           90     102002.7    -721.9153 
  945000       944495   -6511.3091    686.32323   -7197.6323    4399.9665   -11597.599    131.12028   -858.74456   -530.62968   -579.91441    19.849215    228.51029   -138.96926      46.7237      46.7237      46.7237           90           90           90     102002.7   -656.42955 
  946000       945495   -6525.5755    679.07789   -7204.6533    4390.8434   -11595.497    129.73608   -444.34254   -612.18142   -449.80299   -151.49879   -96.820218   -103.15583      46.7237      46.7237      46.7237           90           90           90     102002.7   -502.10898 
  947000       946495   -6508.9731    693.40679   -7202.3799    4393.5459   -11595.926    132.47358   -360.89205   -251.64644   -1000.1822   -182.79854     210.3274    30.807215      46.7237      46.7237      46.7237           90           90           90     102002.7   -537.57358 
  948000       947495    -6506.817    677.20719   -7184.0242    4417.6447   -11601.669    129.37869   -827.83332   -911.22966   -360.35174    26.511819   -123.14641   -261.81345      46.7237      46.7237      46.7237           90           90           90     102002.7   -699.80491 
  949000       948495    -6508.682    688.94577   -7197.6277    4403.6503   -11601.278    131.62131   -983.16829   -569.53103   -995.16814    151.47114    148.17802    26.197096      46.7237      46.7237      46.7237           90           90           90     102002.7   -849.28915 
  950000       949495   -6513.1358    698.24802   -7211.3838    4384.8763    -11596.26    133.39848   -538.37999   -701.52843   -590.53858   -96.088697   -84.638643    49.943504      46.7237      46.7237      46.7237           90           90           90     102002.7     -610.149 
  951000       950495    -6552.811    662.92733   -7215.7384    4383.9789   -11599.717    126.65056   -473.63554   -1135.0101   -902.95372   -2.9833912   -123.18668   -88.734159      46.7237      46.7237      46.7237           90           90           90     102002.7   -837.19979 
  952000       951495    -6484.232    683.24185   -7167.4738    4427.3487   -11594.822     130.5316   -1058.8894   -322.70739   -429.67352   -59.280102     277.8263    54.868704      46.7237      46.7237      46.7237           90           90           90     102002.7   -603.75676 
  953000       952495   -6524.1474     672.0227   -7196.1701    4373.0438   -11569.214     128.3882   -338.40944   -709.63284   -799.63529   -106.03893    63.393721   -214.24827      46.7237      46.7237      46.7237           90           90           90     102002.7   -615.89252 
  954000       953495   -6533.8339    669.45676   -7203.2907    4398.5106   -11601.801    127.89799   -575.08643   -838.02761    -1303.922    229.17144    158.88783   -38.671256      46.7237      46.7237      46.7237           90           90           90     102002.7   -905.67868 
  955000       954495   -6532.1055    669.08536   -7201.1909    4408.5621   -11609.753    127.82703   -1365.9894   -580.17349   -643.25649    -61.09277    79.830071    167.65797      46.7237      46.7237      46.7237           90           90           90     102002.7   -863.13981 
  956000       955495   -6486.0513    692.69606   -7178.7474    4411.1103   -11589.858     132.3378   -1232.9378   -1028.5806   -634.51676    20.955418   -86.953673   -94.967502      46.7237      46.7237      46.7237           90           90           90     102002.7   -965.34506 
  957000       956495   -6530.0843    667.51635   -7197.6006    4399.6451   -11597.246    127.52728   -329.47591   -818.64231   -337.41475    198.44899     91.94316    -114.2127      46.7237      46.7237      46.7237           90           90           90     102002.7   -495.17766 
  958000       957495   -6497.4869    694.85043   -7192.3373    4408.5065   -11600.844    132.74938   -594.56617    -423.4101    -973.8728   -97.257937    116.68191    181.58858      46.7237      46.7237      46.7237           90           90           90     102002.7   -663.94969 
  959000       958495   -6527.1768    668.04204   -7195.2188    4394.4383   -11589.657    127.62771   -760.08675   -696.33857   -544.72886   -92.475301   -72.918122    47.154515      46.7237      46.7237      46.7237           90           90           90     102002.7   -667.05139 
  960000       959495   -6500.2101     692.1145   -7192.3246    4414.0632   -11606.388    132.22669   -597.32371   -832.62333   -730.98025    95.517774    5.6491626   -280.93107      46.7237      46.7237      46.7237           90           90           90     102002.7    -720.3091 
  961000       960495   -6511.8959    675.58024   -7187.4761    4406.8624   -11594.339    129.06786   -572.98144    -519.2055   -1301.3722    293.92022    143.95414   -46.352106      46.7237      46.7237      46.7237           90           90           90     102002.7   -797.85304 
  962000       961495   -6506.7908    688.15551   -7194.9463    4418.2415   -11613.188    131.47034   -1362.6629     -515.634   -863.33614    116.04252     149.6383   -144.14788      46.7237      46.7237      46.7237           90           90           90     102002.7   -913.87768 
  963000       962495   -6518.2476    676.93735   -7195.1849    4397.1055    -11592.29    129.32714   -622.03155   -874.97607   -417.32252    52.259975   -170.96158   -12.385686      46.7237      46.7237      46.7237           90           90           90     102002.7   -638.11005 
  964000       963495   -6502.0087    675.69068   -7177.6994    4401.9918   -11579.691    129.08896   -498.31076   -412.84912   -540.63325    154.08954   -30.800704    -43.99569      46.7237      46.7237      46.7237           90           90           90     102002.7   -483.93105 
  965000       964495   -6490.5809     697.2294   -7187.8103    4428.5193    -11616.33    133.20388   -625.56867   -1054.4417   -651.76004   -54.811899   -307.91734   -173.03232      46.7237      46.7237      46.7237           90           90           90     102002.7   -777.25681 
  966000       965495   -6535.1831    674.66303   -7209.8461    4386.3535     -11596.2    128.89263   -674.90179   -866.62678   -56.992409   -6.8777135   -224.00736     5.818256      46.7237      46.7237      46.7237           90           90           90     102002.7   -532.84032 
  967000       966495   -6519.5121    663.03638   -7182.5485    4426.6565   -11609.205    126.67139   -1037.2133   -958.03297   -489.56466    5.5834731   -135.01844   -21.637345      46.7237      46.7237      46.7237           90           90           90     102002.7   -828.27031 
  968000       967495   -6501.4706    678.80928   -7180.2799    4411.1918   -11591.472    129.68476   -1082.9427   -726.92398   -1304.3794   -45.084045    80.834457    28.155466      46.7237      46.7237      46.7237           90           90           90     102002.7    -1038.082 
  969000       968495   -6486.3631    704.68363   -7191.0467    4419.2697   -11610.316    134.62799   -1022.6863   -909.21413   -915.58407   -80.096358    175.61528    1.9793079      46.7237      46.7237      46.7237           90           90           90     102002.7    -949.1615 
  970000       969495   -6515.3452    673.50556   -7188.8508     4407.552   -11596.403     128.6715    -837.1604   -846.36983   -1018.5474    18.259988    -163.0552   -124.50391      46.7237      46.7237      46.7237           90           90           90     102002.7   -900.69255 
  971000       970495    -6503.765     672.2275   -7175.9925    4433.9479    -11609.94    128.42733   -940.30947   -1198.4096   -640.19615    44.405828    40.540623    -115.2163      46.7237      46.7237      46.7237           90           90           90     102002.7   -926.30507 
  972000       971495   -6533.7395    660.80499   -7194.5445    4412.1572   -11606.702    126.24509   -937.50399   -759.03175   -796.60914   -16.023837   -276.41114    15.698357      46.7237      46.7237      46.7237           90           90           90     102002.7   -831.04829 
  973000       972495   -6509.6321    696.97091   -7206.6031    4390.3449   -11596.948     133.1545    -649.5656   -928.63844   -252.38796    30.986618   -41.645377   -38.487166      46.7237      46.7237      46.7237           90           90           90     102002.7   -610.19734 
  974000       973495   -6483.5359    679.20188   -7162.7378    4426.5991   -11589.337    129.75977   -569.64538   -879.47101   -748.98843   -43.451224     293.4585   -177.52452      46.7237      46.7237      46.7237           90           90           90     102002.7    -732.7016 
  975000       974495   -6518.6621    682.66166   -7201.3238    4381.5121   -11582.836    130.42075   -320.97942   -505.79454   -446.55028   -77.070642   -142.50422     53.11338      46.7237      46.7237      46.7237           90           90           90     102002.7   -424.44142 
  976000       975495   -6524.1123    670.53549   -7194.6478    4397.2441   -11591.892    128.10408   -769.40354   -261.45254   -823.56177     99.78835   -174.99715    292.21293      46.7237      46.7237      46.7237           90           90           90     102002.7   -618.13928 
  977000       976495   -6499.4936    686.82971   -7186.3233    4408.0214   -11594.345    131.21705   -650.43838   -609.39986   -989.38722   -115.58286     10.21322   -115.74485      46.7237      46.7237      46.7237           90           90           90     102002.7   -749.74182 
  978000       977495   -6489.2275    693.71603   -7182.9435    4403.8903   -11586.834    132.53266   -1054.5807   -615.72827   -115.06452   -99.354683    239.04439   0.74480316      46.7237      46.7237      46.7237           90           90           90     102002.7   -595.12449 
  979000       978495   -6484.4277    667.47512   -7151.9028    4452.7273    -11604.63     127.5194   -645.76065   -651.05744   -524.07609    6.1089046   -5.2026846    197.04777      46.7237      46.7237      46.7237           90           90           90     102002.7   -606.96473 
  980000       979495   -6522.5689    667.84226   -7190.4112    4418.2729   -11608.684    127.58954   -680.52091   -704.45225   -265.31711   -95.553046    237.49573   -334.96489      46.7237      46.7237      46.7237           90           90           90     102002.7   -550.09676 
  981000       980495   -6539.9839    668.82074   -7208.8047     4400.734   -11609.539    127.77648   -303.49104    -756.5185   -426.61177    34.948603   -211.31676    18.486554      46.7237      46.7237      46.7237           90           90           90     102002.7   -495.54043 
  982000       981495   -6519.8889    683.07785   -7202.9668    4386.8118   -11589.779    130.50026   -751.60615   -276.85727   -492.97766    267.72738     167.9841   -207.36902      46.7237      46.7237      46.7237           90           90           90     102002.7   -507.14703 
  983000       982495   -6495.1655    672.87413   -7168.0396    4418.7894   -11586.829    128.55087   -690.33853   -429.25788   -1241.7333    305.88799   -110.58571    82.357715      46.7237      46.7237      46.7237           90           90           90     102002.7   -787.10989 
  984000       983495   -6509.5619    675.93285   -7185.4947    4399.5476   -11585.042    129.13523   -557.88961    -1151.743   -403.47685    186.38365   -219.86072   -102.39511      46.7237      46.7237      46.7237           90           90           90     102002.7   -704.36983 
  985000       984495   -6512.3283    688.35084   -7200.6792    4401.3271   -11602.006    131.50766   -1007.2405   -511.60634   -1257.1096    359.68473    298.36148    42.476397      46.7237      46.7237      46.7237           90           90           90     102002.7    -925.3188 
  986000       985495   -6514.9246    692.47182   -7207.3964     4396.006   -11603.402    132.29496   -962.16305   -533.02826   -852.91652    98.094711    330.75818   -188.87769      46.7237      46.7237      46.7237           90           90           90     102002.7   -782.70261 
  987000       986495    -6489.231    690.41587   -7179.6468    4445.4296   -11625.076    131.90217   -487.22139   -1237.6632   -438.42339   -55.958985   -31.155698    176.32638      46.7237      46.7237      46.7237           90           90           90     102002.7   -721.10265 
  988000       987495   -6504.1744    684.02661    -7188.201    4417.0234   -11605.224    130.68152   -570.61492   -617.27402    -1049.342    8.5875492   -256.24113    151.35864      46.7237      46.7237      46.7237           90           90           90     102002.7   -745.74365 
  989000       988495   -6527.7666    676.94176   -7204.7084    4399.2202   -11603.929    129.32798   -1055.8403   -642.23514   -323.30558    -64.96125   -29.125075   -368.87244      46.7237      46.7237      46.7237           90           90           90     102002.7   -673.79366 
  990000       989495   -6491.5825    714.81629   -7206.3988    4406.8365   -11613.235    136.56381   -668.75306   -648.43569   -216.83023    163.83819    174.81373    48.967958      46.7237      46.7237      46.7237           90           90           90     102002.7   -511.33966 
  991000       990495   -6530.5261    658.96804   -7189.4942    4416.4472   -11605.941    125.89415   -693.25236   -580.71862   -1280.9832    449.74223    -62.16078    -233.9718      46.7237      46.7237      46.7237           90           90           90     102002.7   -851.65139 
  992000       991495   -6482.3033    697.30197   -7179.6052      4429.27   -11608.875    133.21774   -1190.8122   -323.72679   -545.10469   -119.41615   -169.77323    -548.7597      46.7237      46.7237      46.7237           90           90           90     102002.7   -686.54788 
  993000       992495   -6513.5058     670.3812    -7183.887     4418.812   -11602.699     128.0746   -844.60162   -1219.9764   -1272.5914    255.30963    38.856416   -80.971847      46.7237      46.7237      46.7237           90           90           90     102002.7   -1112.3898 
  994000       993495   -6560.9233    661.36421   -7222.2875    4387.9808   -11610.268    126.35193    -653.1455   -635.56502   -788.38322    308.30387   -61.842614    110.42396      46.7237      46.7237      46.7237           90           90           90     102002.7   -692.36458 
  995000       994495   -6500.4188     687.2918   -7187.7106    4424.3216   -11612.032    131.30533   -636.60487   -831.44355   -832.90085     226.1674   -422.24316    -133.1927      46.7237      46.7237      46.7237           90           90           90     102002.7   -766.98309 
  996000       995495   -6530.2276    666.83358   -7197.0612    4395.3864   -11592.448    127.39684   -725.76057   -1053.3646   -720.25058    148.41593   -162.49565    38.032194      46.7237      46.7237      46.7237           90           90           90     102002.7   -833.12526 
  997000       996495   -6525.5806    670.87156   -7196.4522    4404.1032   -11600.555    128.16828   -991.14808   -1339.0981   -1291.5833   -156.58749    11.369488    4.8530798      46.7237      46.7237      46.7237           90           90           90     102002.7   -1207.2765 
  998000       997495   -6525.2705    662.12069   -7187.3912    4425.4521   -11612.843    126.49645   -677.80164   -1030.5741   -485.54007    115.69592   -15.234352   -531.59857      46.7237      46.7237      46.7237           90           90           90     102002.7   -731.30526 
  999000       998495   -6504.0618     701.2149   -7205.2767    4386.1435    -11591.42     133.9653    -92.01978   -210.90807   -813.77892     244.8534   -252.09998    74.051912      46.7237      46.7237      46.7237           90           90           90     102002.7   -372.23559 
 1000000       999495   -6501.4336    688.90264   -7190.3363    4403.4336    -11593.77    131.61308   -760.29118   -611.52948   -1064.0904    2.9731036    164.40547    269.50203      46.7237      46.7237      46.7237           90           90           90     102002.7   -811.97035 
 1000505      1000000    -6514.772    681.60133   -7196.3733    4387.8188   -11584.192    130.21818   -325.60578   -376.26248   -685.27263    146.90446    70.182669    334.67684      46.7237      46.7237      46.7237           90           90           90     102002.7    -462.3803 
Loop time of 1382.31 on 16 procs for 500000 steps with 1757 atoms

Performance: 31.252 ns/day, 0.768 hours/ns, 361.714 timesteps/s
99.8% CPU use with 16 MPI tasks x no OpenMP threads

MPI task timing breakdown:
Section |  min time  |  avg time  |  max time  |%varavg| %total
---------------------------------------------------------------
Pair    | 628.33     | 778.77     | 915.73     | 297.4 | 56.34
Bond    | 153.1      | 183.45     | 213.87     | 147.2 | 13.27
Neigh   | 4.803      | 4.8303     | 4.8571     |   0.7 |  0.35
Comm    | 260.69     | 387.25     | 522.37     | 368.2 | 28.02
Output  | 0.098139   | 0.10305    | 0.10352    |   0.4 |  0.01
Modify  | 21.44      | 22.614     | 23.643     |  14.4 |  1.64
Other   |            | 5.29       |            |       |  0.38

Nlocal:    109.812 ave 145 max 72 min
Histogram: 2 1 1 2 2 1 3 0 1 3
Nghost:    2233.06 ave 2276 max 2193 min
Histogram: 2 1 1 3 2 0 3 1 1 2
Neighs:    11464.6 ave 15658 max 8265 min
Histogram: 1 3 1 1 2 5 2 0 0 1

Total # of neighbors = 183434
Ave neighs/atom = 104.402
Ave special neighs/atom = 6.55663
Neighbor list builds = 4064
Dangerous builds = 0
Total wall time: 0:44:44
