LAMMPS (30 Mar 2018)
Reading data file ...
  orthogonal box = (0 0 0) to (46.7237 46.7237 46.7237)
  2 by 2 by 4 MPI processor grid
  reading atoms ...
  3302 atoms
  scanning bonds ...
  5 = max bonds/atom
  scanning angles ...
  10 = max angles/atom
  scanning dihedrals ...
  32 = max dihedrals/atom
  scanning impropers ...
  3 = max impropers/atom
  reading bonds ...
  2064 bonds
  reading angles ...
  3696 angles
  reading dihedrals ...
  6240 dihedrals
  reading impropers ...
  1008 impropers
Finding 1-2 1-3 1-4 neighbors ...
  special bond factors lj:   0          0          0         
  special bond factors coul: 0          0          0         
  5 = max # of 1-2 neighbors
  8 = max # of 1-3 neighbors
  20 = max # of 1-4 neighbors
  19 = max # of special neighbors
Finding 1-2 1-3 1-4 neighbors ...
  special bond factors lj:   0          0          1         
  special bond factors coul: 1          1          1         
  5 = max # of 1-2 neighbors
  8 = max # of 1-3 neighbors
  19 = max # of special neighbors
WARNING: Using 'neigh_modify every 1 delay 0 check yes' setting during minimization (../min.cpp:168)
Neighbor list info ...
  update every 1 steps, delay 0 steps, check yes
  max neighbors/atom: 2000, page size: 100000
  master list distance cutoff = 16
  ghost atom cutoff = 16
  binsize = 8, bins = 6 6 6
  3 neighbor lists, perpetual/occasional/extra = 3 0 0
  (1) pair buck6d/coul/gauss/dsf, perpetual, skip from (3)
      attributes: half, newton on
      pair build: skip
      stencil: none
      bin: none
  (2) pair lj/cut, perpetual, skip from (3)
      attributes: half, newton on
      pair build: skip
      stencil: none
      bin: none
  (3) neighbor class addition, perpetual
      attributes: half, newton on
      pair build: half/bin/newton
      stencil: half/bin/3d/newton
      bin: standard
Setting up cg style minimization ...
  Unit style    : real
  Current step  : 0
WARNING: Inconsistent image flags (../domain.cpp:786)
Per MPI rank memory allocation (min/avg/max) = 23.02 | 23.48 | 23.92 Mbytes
Step Temp E_pair E_mol TotEng Press 
       0            0   -15930.713    6482.8914   -9447.8212     6489.535 
     500            0   -16305.691    3790.0603   -12515.631   -1436.4129 
Loop time of 4.5529 on 16 procs for 500 steps with 3302 atoms

99.9% CPU use with 16 MPI tasks x no OpenMP threads

Minimization stats:
  Stopping criterion = max force evaluations
  Energy initial, next-to-last, final = 
        -9447.82121708     -12515.5958021     -12515.6307223
  Force two-norm initial, final = 2575.06 8.88144
  Force max component initial, final = 152.037 1.19194
  Final line search alpha, max atom move = 0.0133529 0.0159158
  Iterations, force evaluations = 500 1000

MPI task timing breakdown:
Section |  min time  |  avg time  |  max time  |%varavg| %total
---------------------------------------------------------------
Pair    | 2.4087     | 3.1179     | 3.7165     |  17.5 | 68.48
Bond    | 0.278      | 0.35997    | 0.43144    |   6.8 |  7.91
Neigh   | 0.028434   | 0.028558   | 0.028747   |   0.1 |  0.63
Comm    | 0.39581    | 1.0003     | 1.7303     |  31.4 | 21.97
Output  | 0          | 0          | 0          |   0.0 |  0.00
Modify  | 0          | 0          | 0          |   0.0 |  0.00
Other   |            | 0.04615    |            |       |  1.01

Nlocal:    206.375 ave 218 max 190 min
Histogram: 2 1 0 2 1 3 1 0 2 4
Nghost:    4133.88 ave 4161 max 4113 min
Histogram: 2 1 3 2 1 1 4 1 0 1
Neighs:    11504.2 ave 16898 max 7152 min
Histogram: 1 1 4 2 2 2 1 1 1 1

Total # of neighbors = 184068
Ave neighs/atom = 55.7444
Ave special neighs/atom = 3.48879
Neighbor list builds = 8
Dangerous builds = 0
Neighbor list info ...
  update every 1 steps, delay 10 steps, check yes
  max neighbors/atom: 2000, page size: 100000
  master list distance cutoff = 16
  ghost atom cutoff = 16
  binsize = 8, bins = 6 6 6
  3 neighbor lists, perpetual/occasional/extra = 3 0 0
  (1) pair buck6d/coul/gauss/dsf, perpetual, skip from (3)
      attributes: half, newton on
      pair build: skip
      stencil: none
      bin: none
  (2) pair lj/cut, perpetual, skip from (3)
      attributes: half, newton on
      pair build: skip
      stencil: none
      bin: none
  (3) neighbor class addition, perpetual
      attributes: half, newton on
      pair build: half/bin/newton
      stencil: half/bin/3d/newton
      bin: standard
Setting up Verlet run ...
  Unit style    : real
  Current step  : 500
  Time step     : 1
WARNING: Inconsistent image flags (../domain.cpp:786)
Per MPI rank memory allocation (min/avg/max) = 22.67 | 22.73 | 22.8 Mbytes
Step Temp PotEng TotEng Press Volume Lx Ly Lz 
     500           91   -12515.631   -11620.222   -1035.1376     102002.7      46.7237      46.7237      46.7237 
    1000     74.86561   -11756.043   -11019.392    215.52059     102002.7      46.7237      46.7237      46.7237 
    2000    90.956501   -11608.278   -10713.297    238.09968     102002.7      46.7237      46.7237      46.7237 
    3000    88.578693   -11658.719   -10787.135     462.1464     102002.7      46.7237      46.7237      46.7237 
    4000    92.512157   -11639.763   -10729.475    587.88726     102002.7      46.7237      46.7237      46.7237 
    5000    91.381071   -11655.956   -10756.798    264.00702     102002.7      46.7237      46.7237      46.7237 
    6000    91.324456   -11658.209   -10759.608    570.34328     102002.7      46.7237      46.7237      46.7237 
    7000    91.175121   -11640.457   -10743.325    485.56063     102002.7      46.7237      46.7237      46.7237 
    8000    90.318768   -11661.526    -10772.82    423.02064     102002.7      46.7237      46.7237      46.7237 
    9000    92.541147   -11655.201   -10744.629    509.07623     102002.7      46.7237      46.7237      46.7237 
   10000    88.834032    -11666.53   -10792.434     178.4686     102002.7      46.7237      46.7237      46.7237 
   11000    88.896116   -11644.258   -10769.551     190.2086     102002.7      46.7237      46.7237      46.7237 
   12000    90.172303   -11666.565   -10779.301   -143.10711     102002.7      46.7237      46.7237      46.7237 
   13000    88.884097   -11644.287   -10769.698    191.60322     102002.7      46.7237      46.7237      46.7237 
   14000    91.165461   -11616.191   -10719.154    735.75234     102002.7      46.7237      46.7237      46.7237 
   15000    89.211587   -11651.698   -10773.887    151.57181     102002.7      46.7237      46.7237      46.7237 
   16000    91.677329   -11642.363   -10740.289    510.69794     102002.7      46.7237      46.7237      46.7237 
   17000    91.154611   -11659.465   -10762.535    63.475297     102002.7      46.7237      46.7237      46.7237 
   18000    91.041237   -11664.594    -10768.78    322.06142     102002.7      46.7237      46.7237      46.7237 
   19000    88.934005   -11667.789   -10792.709    452.84841     102002.7      46.7237      46.7237      46.7237 
   20000    91.502552   -11665.747   -10765.394    201.00572     102002.7      46.7237      46.7237      46.7237 
   21000    88.590161   -11650.753   -10779.057    420.78742     102002.7      46.7237      46.7237      46.7237 
   22000    91.257594   -11649.985   -10752.042    880.21513     102002.7      46.7237      46.7237      46.7237 
   23000    91.205575   -11656.165   -10758.734    355.65497     102002.7      46.7237      46.7237      46.7237 
   24000    90.325681   -11682.982   -10794.209     475.4979     102002.7      46.7237      46.7237      46.7237 
   25000    91.114767   -11667.397   -10770.859    356.58515     102002.7      46.7237      46.7237      46.7237 
   26000    90.378596   -11678.645   -10789.351    294.02103     102002.7      46.7237      46.7237      46.7237 
   27000    89.692096   -11657.663   -10775.124    367.47427     102002.7      46.7237      46.7237      46.7237 
   28000    90.666545   -11658.237   -10766.109     242.2279     102002.7      46.7237      46.7237      46.7237 
   29000    91.353182    -11674.43   -10775.546    267.37954     102002.7      46.7237      46.7237      46.7237 
   30000    90.990165   -11664.328   -10769.017    297.47591     102002.7      46.7237      46.7237      46.7237 
   31000    90.243856   -11675.333   -10787.365    367.17784     102002.7      46.7237      46.7237      46.7237 
   32000      91.7088   -11688.996   -10786.613    601.96581     102002.7      46.7237      46.7237      46.7237 
   33000    89.123995   -11681.813   -10804.863    269.32646     102002.7      46.7237      46.7237      46.7237 
   34000    91.782782   -11678.511     -10775.4    502.98418     102002.7      46.7237      46.7237      46.7237 
   35000    90.823708   -11668.899   -10775.225    631.13717     102002.7      46.7237      46.7237      46.7237 
   36000    90.752996   -11690.648    -10797.67    460.80978     102002.7      46.7237      46.7237      46.7237 
   37000    91.908526   -11672.658    -10768.31    379.08283     102002.7      46.7237      46.7237      46.7237 
   38000    89.209948   -11690.687   -10812.892     440.6252     102002.7      46.7237      46.7237      46.7237 
   39000    89.788555    -11668.99   -10785.501    436.00024     102002.7      46.7237      46.7237      46.7237 
   40000    90.598539   -11679.731   -10788.272    99.341578     102002.7      46.7237      46.7237      46.7237 
   41000    90.688188   -11679.261   -10786.921    416.48409     102002.7      46.7237      46.7237      46.7237 
   42000    90.842577   -11696.673   -10802.814    243.94145     102002.7      46.7237      46.7237      46.7237 
   43000    92.138764   -11682.795   -10776.182    481.47122     102002.7      46.7237      46.7237      46.7237 
   44000    91.416933   -11687.362   -10787.851    129.30977     102002.7      46.7237      46.7237      46.7237 
   45000    89.863666   -11673.017    -10788.79    322.52293     102002.7      46.7237      46.7237      46.7237 
   46000     91.54018   -11699.933   -10799.209    225.62192     102002.7      46.7237      46.7237      46.7237 
   47000    90.588969   -11667.646   -10776.282    291.62527     102002.7      46.7237      46.7237      46.7237 
   48000    91.361184   -11679.817   -10780.855    322.07514     102002.7      46.7237      46.7237      46.7237 
   49000      92.7212   -11690.861   -10778.516    425.86286     102002.7      46.7237      46.7237      46.7237 
   50000    91.113164    -11698.72   -10802.198    283.92825     102002.7      46.7237      46.7237      46.7237 
   51000    91.247065   -11650.548   -10752.709    241.68768     102002.7      46.7237      46.7237      46.7237 
   52000    91.273108   -11693.356   -10795.261    606.56823     102002.7      46.7237      46.7237      46.7237 
   53000    88.503294   -11704.766   -10833.924    319.84613     102002.7      46.7237      46.7237      46.7237 
   54000    90.018997   -11689.678   -10803.922    772.57189     102002.7      46.7237      46.7237      46.7237 
   55000      88.6386    -11691.01   -10818.837    336.00306     102002.7      46.7237      46.7237      46.7237 
   56000     90.97632   -11698.358   -10803.182    609.05681     102002.7      46.7237      46.7237      46.7237 
   57000    91.359993   -11686.181    -10787.23     733.3592     102002.7      46.7237      46.7237      46.7237 
   58000    91.708521   -11682.872   -10780.492    658.90616     102002.7      46.7237      46.7237      46.7237 
   59000    91.137072   -11706.657   -10809.899    670.99348     102002.7      46.7237      46.7237      46.7237 
   60000    91.897254   -11694.932   -10790.694    505.14265     102002.7      46.7237      46.7237      46.7237 
   61000    90.297422   -11696.658   -10808.163    640.43047     102002.7      46.7237      46.7237      46.7237 
   62000    92.949642   -11686.991   -10772.398    731.72512     102002.7      46.7237      46.7237      46.7237 
   63000    93.184036   -11691.272   -10774.374     499.1183     102002.7      46.7237      46.7237      46.7237 
   64000    93.456022   -11694.512   -10774.937    265.62646     102002.7      46.7237      46.7237      46.7237 
   65000    89.917486   -11710.218   -10825.461    253.06195     102002.7      46.7237      46.7237      46.7237 
   66000    90.996861    -11697.48   -10802.103    569.18712     102002.7      46.7237      46.7237      46.7237 
   67000    88.501251   -11691.529   -10820.708    629.06481     102002.7      46.7237      46.7237      46.7237 
   68000    90.140867   -11694.115    -10807.16    634.91847     102002.7      46.7237      46.7237      46.7237 
   69000    90.822224   -11684.875   -10791.216    603.55307     102002.7      46.7237      46.7237      46.7237 
   70000    93.668264   -11693.326   -10771.662    368.93282     102002.7      46.7237      46.7237      46.7237 
   71000    89.075101   -11685.625   -10809.156    535.04494     102002.7      46.7237      46.7237      46.7237 
   72000    91.862213   -11692.633    -10788.74    586.46956     102002.7      46.7237      46.7237      46.7237 
   73000    93.094876   -11681.571    -10765.55    336.69503     102002.7      46.7237      46.7237      46.7237 
   74000    90.997382    -11690.26   -10794.877    711.44411     102002.7      46.7237      46.7237      46.7237 
   75000    90.361974   -11686.305   -10797.175     502.4743     102002.7      46.7237      46.7237      46.7237 
   76000    89.520246   -11685.526   -10804.678    389.15695     102002.7      46.7237      46.7237      46.7237 
   77000    91.409764   -11704.532   -10805.092    368.92653     102002.7      46.7237      46.7237      46.7237 
   78000    91.740242   -11674.215   -10771.523    589.42894     102002.7      46.7237      46.7237      46.7237 
   79000    88.547934   -11689.837   -10818.556    327.47872     102002.7      46.7237      46.7237      46.7237 
   80000    89.805687   -11709.795   -10826.138     189.1128     102002.7      46.7237      46.7237      46.7237 
   81000    92.713776    -11691.67   -10779.399    189.80966     102002.7      46.7237      46.7237      46.7237 
   82000    92.147195   -11699.053   -10792.356    609.84783     102002.7      46.7237      46.7237      46.7237 
   83000    91.722915   -11691.108   -10788.586    451.42054     102002.7      46.7237      46.7237      46.7237 
   84000    91.731733   -11698.818    -10796.21    613.82862     102002.7      46.7237      46.7237      46.7237 
   85000    91.129523    -11685.04   -10788.357    436.86801     102002.7      46.7237      46.7237      46.7237 
   86000    91.536134   -11688.282   -10787.598    586.21881     102002.7      46.7237      46.7237      46.7237 
   87000    90.835222   -11688.616   -10794.829    456.44603     102002.7      46.7237      46.7237      46.7237 
   88000    93.480757   -11703.112   -10783.294    228.68225     102002.7      46.7237      46.7237      46.7237 
   89000    89.135238   -11711.449   -10834.389    201.34884     102002.7      46.7237      46.7237      46.7237 
   90000    88.624214   -11685.376   -10813.344    194.13589     102002.7      46.7237      46.7237      46.7237 
   91000    90.031334   -11707.614   -10821.737    312.36052     102002.7      46.7237      46.7237      46.7237 
   92000     91.08627   -11695.619   -10799.362    448.74326     102002.7      46.7237      46.7237      46.7237 
   93000    91.673221   -11703.286   -10801.253    385.44794     102002.7      46.7237      46.7237      46.7237 
   94000    89.299055   -11694.796   -10816.124    362.39463     102002.7      46.7237      46.7237      46.7237 
   95000    92.792709   -11687.183   -10774.134    880.44458     102002.7      46.7237      46.7237      46.7237 
   96000    91.947249   -11702.385   -10797.656    489.87207     102002.7      46.7237      46.7237      46.7237 
   97000    89.983779    -11704.51     -10819.1    200.64747     102002.7      46.7237      46.7237      46.7237 
   98000    90.088243    -11686.86   -10800.423    625.75974     102002.7      46.7237      46.7237      46.7237 
   99000    90.561543    -11720.86   -10829.766    408.32256     102002.7      46.7237      46.7237      46.7237 
  100000    92.510227   -11695.723   -10785.455    353.96016     102002.7      46.7237      46.7237      46.7237 
  101000    89.320362   -11695.747   -10816.866     486.5872     102002.7      46.7237      46.7237      46.7237 
  102000    92.226662   -11712.964   -10805.485    168.74679     102002.7      46.7237      46.7237      46.7237 
  103000      89.3923   -11692.864   -10813.275    322.67701     102002.7      46.7237      46.7237      46.7237 
  104000    90.076195   -11713.124   -10826.805   -9.9208727     102002.7      46.7237      46.7237      46.7237 
  105000    90.913385   -11706.371   -10811.815    208.26626     102002.7      46.7237      46.7237      46.7237 
  106000    92.442319   -11706.372   -10796.771    511.97945     102002.7      46.7237      46.7237      46.7237 
  107000    89.450839   -11720.678   -10840.512    611.90753     102002.7      46.7237      46.7237      46.7237 
  108000     91.72262   -11700.806   -10798.287    621.47105     102002.7      46.7237      46.7237      46.7237 
  109000     90.91455   -11713.577   -10819.009    666.95805     102002.7      46.7237      46.7237      46.7237 
  110000    92.742283   -11705.107   -10792.555    514.03858     102002.7      46.7237      46.7237      46.7237 
  111000    89.068404   -11704.705   -10828.302    229.50714     102002.7      46.7237      46.7237      46.7237 
  112000     90.33905   -11708.973   -10820.068    275.99602     102002.7      46.7237      46.7237      46.7237 
  113000    89.909192   -11706.009   -10821.333    102.34962     102002.7      46.7237      46.7237      46.7237 
  114000    90.355358   -11706.705    -10817.64     402.3425     102002.7      46.7237      46.7237      46.7237 
  115000    92.623148   -11675.542   -10764.162    328.39069     102002.7      46.7237      46.7237      46.7237 
  116000    90.851835   -11716.365   -10822.414    616.44357     102002.7      46.7237      46.7237      46.7237 
  117000    93.701672   -11699.228   -10777.236    451.29254     102002.7      46.7237      46.7237      46.7237 
  118000    90.344591   -11695.732   -10806.773    420.68954     102002.7      46.7237      46.7237      46.7237 
  119000    91.746894   -11692.904   -10790.146    479.62361     102002.7      46.7237      46.7237      46.7237 
  120000    89.799214   -11693.764   -10810.171    227.69184     102002.7      46.7237      46.7237      46.7237 
  121000    90.501437   -11694.257   -10803.754    401.19112     102002.7      46.7237      46.7237      46.7237 
  122000    91.823022   -11703.079   -10799.573    550.10742     102002.7      46.7237      46.7237      46.7237 
  123000    91.050501   -11714.913   -10819.008    419.84373     102002.7      46.7237      46.7237      46.7237 
  124000    93.030604   -11688.158   -10772.769    172.36165     102002.7      46.7237      46.7237      46.7237 
  125000    90.977683   -11680.687   -10785.498   -234.64683     102002.7      46.7237      46.7237      46.7237 
  126000    93.069758   -11702.464   -10786.689    85.355428     102002.7      46.7237      46.7237      46.7237 
  127000    91.376019   -11700.269   -10801.161    87.337211     102002.7      46.7237      46.7237      46.7237 
  128000    89.747699   -11710.143   -10827.056    105.50905     102002.7      46.7237      46.7237      46.7237 
  129000    89.826463   -11694.381   -10810.519    246.20269     102002.7      46.7237      46.7237      46.7237 
  130000    90.771666   -11699.323   -10806.161    181.20055     102002.7      46.7237      46.7237      46.7237 
  131000    93.064671   -11710.128   -10794.404    203.57116     102002.7      46.7237      46.7237      46.7237 
  132000    92.642629   -11700.011   -10788.439    424.78186     102002.7      46.7237      46.7237      46.7237 
  133000     92.65752   -11721.533   -10809.815    387.36982     102002.7      46.7237      46.7237      46.7237 
  134000    91.242942   -11691.078   -10793.279    600.24319     102002.7      46.7237      46.7237      46.7237 
  135000    90.271214   -11701.687    -10813.45      545.276     102002.7      46.7237      46.7237      46.7237 
  136000    92.221047   -11682.423       -10775    362.53761     102002.7      46.7237      46.7237      46.7237 
  137000    90.959108   -11705.369   -10810.363    366.42355     102002.7      46.7237      46.7237      46.7237 
  138000    90.949417   -11707.362   -10812.451    326.68222     102002.7      46.7237      46.7237      46.7237 
  139000    91.395203   -11686.277    -10786.98    408.72024     102002.7      46.7237      46.7237      46.7237 
  140000    90.994044   -11705.781   -10810.431    502.30839     102002.7      46.7237      46.7237      46.7237 
  141000      90.7242   -11686.585    -10793.89    351.80081     102002.7      46.7237      46.7237      46.7237 
  142000    90.988922   -11705.869   -10810.569    332.98878     102002.7      46.7237      46.7237      46.7237 
  143000    91.243955   -11714.463   -10816.654    638.76632     102002.7      46.7237      46.7237      46.7237 
  144000    90.598431   -11669.611   -10778.154    396.63022     102002.7      46.7237      46.7237      46.7237 
  145000    88.762802   -11687.302   -10813.907    124.99485     102002.7      46.7237      46.7237      46.7237 
  146000    89.056437   -11719.333   -10843.049     419.5927     102002.7      46.7237      46.7237      46.7237 
  147000    92.691602   -11692.014   -10779.961    64.173528     102002.7      46.7237      46.7237      46.7237 
  148000    90.860095    -11722.87   -10828.838     391.5343     102002.7      46.7237      46.7237      46.7237 
  149000    92.455642   -11702.694   -10792.963    205.54475     102002.7      46.7237      46.7237      46.7237 
  150000    90.660598   -11713.126   -10821.057    351.31106     102002.7      46.7237      46.7237      46.7237 
  151000    90.736274   -11710.308   -10817.494    147.78289     102002.7      46.7237      46.7237      46.7237 
  152000      92.0483   -11710.777   -10805.054     426.5567     102002.7      46.7237      46.7237      46.7237 
  153000    89.583052   -11693.333   -10811.867    442.92729     102002.7      46.7237      46.7237      46.7237 
  154000    90.853136   -11683.993   -10790.029    294.06464     102002.7      46.7237      46.7237      46.7237 
  155000    89.932759   -11709.586   -10824.679    592.38474     102002.7      46.7237      46.7237      46.7237 
  156000    90.442037   -11696.879    -10806.96    166.99866     102002.7      46.7237      46.7237      46.7237 
  157000    89.109642   -11697.878    -10821.07    366.09305     102002.7      46.7237      46.7237      46.7237 
  158000    92.582571   -11699.924   -10788.943    468.26624     102002.7      46.7237      46.7237      46.7237 
  159000    89.571481   -11707.137   -10825.785   -19.753925     102002.7      46.7237      46.7237      46.7237 
  160000    90.580662   -11705.337   -10814.055    453.89996     102002.7      46.7237      46.7237      46.7237 
  161000    90.304178   -11694.782    -10806.22    431.74321     102002.7      46.7237      46.7237      46.7237 
  162000    91.593155   -11692.985    -10791.74     200.9944     102002.7      46.7237      46.7237      46.7237 
  163000    91.104988   -11711.616   -10815.174    494.20388     102002.7      46.7237      46.7237      46.7237 
  164000     90.97592   -11726.816   -10831.645    296.76014     102002.7      46.7237      46.7237      46.7237 
  165000    89.463154   -11697.047    -10816.76    224.04636     102002.7      46.7237      46.7237      46.7237 
  166000    91.799628   -11708.216   -10804.939    583.14465     102002.7      46.7237      46.7237      46.7237 
  167000    92.947359   -11724.896   -10810.326    312.99807     102002.7      46.7237      46.7237      46.7237 
  168000    91.660741   -11702.747   -10800.837    233.91271     102002.7      46.7237      46.7237      46.7237 
  169000     92.28229   -11688.511   -10780.485    282.32143     102002.7      46.7237      46.7237      46.7237 
  170000    90.937769   -11698.572   -10803.775    223.44937     102002.7      46.7237      46.7237      46.7237 
  171000    91.103923   -11712.739   -10816.308    366.23764     102002.7      46.7237      46.7237      46.7237 
  172000    88.447939   -11719.378    -10849.08    188.04494     102002.7      46.7237      46.7237      46.7237 
  173000    91.297576   -11699.681   -10801.344    287.44012     102002.7      46.7237      46.7237      46.7237 
  174000    88.553541   -11720.533   -10849.197    192.15799     102002.7      46.7237      46.7237      46.7237 
  175000    90.187955   -11684.154   -10796.736       330.15     102002.7      46.7237      46.7237      46.7237 
  176000    90.743189   -11693.908   -10801.027    294.01537     102002.7      46.7237      46.7237      46.7237 
  177000    89.593169   -11682.517   -10800.951    69.541809     102002.7      46.7237      46.7237      46.7237 
  178000    90.502498   -11685.514   -10795.001    316.47372     102002.7      46.7237      46.7237      46.7237 
  179000      90.0477   -11703.486   -10817.448    199.37931     102002.7      46.7237      46.7237      46.7237 
  180000    93.442717   -11717.145   -10797.701    241.74449     102002.7      46.7237      46.7237      46.7237 
  181000    91.496097   -11703.743   -10803.453    294.90589     102002.7      46.7237      46.7237      46.7237 
  182000    88.838546   -11728.054   -10853.913    189.79499     102002.7      46.7237      46.7237      46.7237 
  183000    90.249646   -11696.513   -10808.488    551.94953     102002.7      46.7237      46.7237      46.7237 
  184000    89.616674    -11741.88   -10860.082    199.98633     102002.7      46.7237      46.7237      46.7237 
  185000    91.084724    -11729.67   -10833.428    561.14538     102002.7      46.7237      46.7237      46.7237 
  186000    90.450787   -11711.033   -10821.029    331.43608     102002.7      46.7237      46.7237      46.7237 
  187000    93.436226   -11716.098   -10796.718    478.86731     102002.7      46.7237      46.7237      46.7237 
  188000    89.108874   -11703.365   -10826.565    412.19819     102002.7      46.7237      46.7237      46.7237 
  189000    91.153494   -11708.277   -10811.359    495.73353     102002.7      46.7237      46.7237      46.7237 
  190000    90.397339   -11691.879   -10802.401    70.874292     102002.7      46.7237      46.7237      46.7237 
  191000    90.833627   -11725.969   -10832.198     148.1281     102002.7      46.7237      46.7237      46.7237 
  192000    89.230751   -11691.432   -10813.432    232.58927     102002.7      46.7237      46.7237      46.7237 
  193000    87.583179   -11686.585   -10824.797    616.28365     102002.7      46.7237      46.7237      46.7237 
  194000    92.976309   -11712.735    -10797.88    453.72475     102002.7      46.7237      46.7237      46.7237 
  195000    90.206407   -11709.034   -10821.434    512.41018     102002.7      46.7237      46.7237      46.7237 
  196000    89.280666   -11712.083   -10833.592    471.99463     102002.7      46.7237      46.7237      46.7237 
  197000    91.502653   -11705.462   -10805.108    421.17713     102002.7      46.7237      46.7237      46.7237 
  198000    91.905331   -11697.225   -10792.908   -6.9860918     102002.7      46.7237      46.7237      46.7237 
  199000    91.415551    -11701.73   -10802.232    338.88205     102002.7      46.7237      46.7237      46.7237 
  200000    93.092761   -11727.209   -10811.208    290.85159     102002.7      46.7237      46.7237      46.7237 
  201000    88.794889    -11701.29   -10827.579    234.98666     102002.7      46.7237      46.7237      46.7237 
  202000    92.524443   -11722.646   -10812.238    340.60593     102002.7      46.7237      46.7237      46.7237 
  203000    92.152136   -11716.345     -10809.6    361.95803     102002.7      46.7237      46.7237      46.7237 
  204000    92.962186   -11700.583   -10785.867    594.97703     102002.7      46.7237      46.7237      46.7237 
  205000    92.229494   -11733.574   -10826.067    318.27482     102002.7      46.7237      46.7237      46.7237 
  206000    91.390312   -11729.799    -10830.55    283.59071     102002.7      46.7237      46.7237      46.7237 
  207000    90.127564   -11703.753   -10816.929    462.52916     102002.7      46.7237      46.7237      46.7237 
  208000    92.264502   -11700.206   -10792.355    515.85407     102002.7      46.7237      46.7237      46.7237 
  209000    91.255147   -11695.258   -10797.339    377.59892     102002.7      46.7237      46.7237      46.7237 
  210000    91.563135   -11730.438   -10829.488    322.72611     102002.7      46.7237      46.7237      46.7237 
  211000    90.585727   -11698.121   -10806.788    124.84948     102002.7      46.7237      46.7237      46.7237 
  212000    89.520175   -11738.761   -10857.913    341.17357     102002.7      46.7237      46.7237      46.7237 
  213000    92.770689   -11694.821   -10781.989    484.88482     102002.7      46.7237      46.7237      46.7237 
  214000    90.841581   -11699.713   -10805.863    17.270537     102002.7      46.7237      46.7237      46.7237 
  215000    90.786495    -11704.85   -10811.542     74.52652     102002.7      46.7237      46.7237      46.7237 
  216000    92.169429   -11687.949   -10781.034    56.391033     102002.7      46.7237      46.7237      46.7237 
  217000    91.178521   -11683.042   -10785.877    414.52816     102002.7      46.7237      46.7237      46.7237 
  218000    89.489124   -11712.304   -10831.762    431.72786     102002.7      46.7237      46.7237      46.7237 
  219000    90.579632   -11694.367   -10803.095    134.61425     102002.7      46.7237      46.7237      46.7237 
  220000    92.032544   -11705.221   -10799.653    170.05558     102002.7      46.7237      46.7237      46.7237 
  221000    93.046011   -11729.407   -10813.867    272.87107     102002.7      46.7237      46.7237      46.7237 
  222000    89.494226   -11699.316   -10818.724    505.34583     102002.7      46.7237      46.7237      46.7237 
  223000    92.562641   -11681.134    -10770.35    354.70996     102002.7      46.7237      46.7237      46.7237 
  224000    91.471921   -11709.574   -10809.522    136.66599     102002.7      46.7237      46.7237      46.7237 
  225000    90.569744   -11726.302   -10835.127    187.04363     102002.7      46.7237      46.7237      46.7237 
  226000     90.17638   -11702.507   -10815.203    462.30925     102002.7      46.7237      46.7237      46.7237 
  227000    89.309461   -11680.522   -10801.748    567.94202     102002.7      46.7237      46.7237      46.7237 
  228000    92.028321   -11697.876   -10792.349     191.1317     102002.7      46.7237      46.7237      46.7237 
  229000    92.788514   -11734.762   -10821.755    28.700438     102002.7      46.7237      46.7237      46.7237 
  230000      90.1687   -11715.303   -10828.074    506.13856     102002.7      46.7237      46.7237      46.7237 
  231000    90.249009   -11688.858   -10800.839    573.39217     102002.7      46.7237      46.7237      46.7237 
  232000    91.304834   -11679.879   -10781.471    434.53431     102002.7      46.7237      46.7237      46.7237 
  233000    90.487564    -11695.61   -10805.244    528.01663     102002.7      46.7237      46.7237      46.7237 
  234000    91.310019   -11721.927   -10823.468    298.97778     102002.7      46.7237      46.7237      46.7237 
  235000     89.86602   -11694.221   -10809.971    272.22126     102002.7      46.7237      46.7237      46.7237 
  236000    88.816651   -11717.172   -10843.247    575.40499     102002.7      46.7237      46.7237      46.7237 
  237000    90.228747     -11683.3    -10795.48    442.16487     102002.7      46.7237      46.7237      46.7237 
  238000    90.693852   -11710.516    -10818.12    513.08576     102002.7      46.7237      46.7237      46.7237 
  239000    92.199469   -11722.026   -10814.815    180.84727     102002.7      46.7237      46.7237      46.7237 
  240000    91.137295   -11711.501   -10814.741    242.81114     102002.7      46.7237      46.7237      46.7237 
  241000    90.196892   -11689.789   -10802.283    510.64197     102002.7      46.7237      46.7237      46.7237 
  242000     90.20886   -11706.579   -10818.955    437.58762     102002.7      46.7237      46.7237      46.7237 
  243000    91.498498    -11715.66   -10815.346    96.358019     102002.7      46.7237      46.7237      46.7237 
  244000    92.388302   -11711.338   -10802.269    558.77776     102002.7      46.7237      46.7237      46.7237 
  245000     90.25875    -11692.67   -10804.555    18.997746     102002.7      46.7237      46.7237      46.7237 
  246000    91.770583   -11681.752   -10778.762    309.95772     102002.7      46.7237      46.7237      46.7237 
  247000    91.303986   -11702.092   -10803.693    357.98291     102002.7      46.7237      46.7237      46.7237 
  248000    91.290177   -11724.408   -10826.145    87.060138     102002.7      46.7237      46.7237      46.7237 
  249000    91.255481   -11707.112    -10809.19    290.59053     102002.7      46.7237      46.7237      46.7237 
  250000    90.980133   -11704.037   -10808.824    520.11255     102002.7      46.7237      46.7237      46.7237 
  251000    89.929537   -11718.405   -10833.529    156.56774     102002.7      46.7237      46.7237      46.7237 
  252000     91.30032   -11716.302   -10817.939    257.66368     102002.7      46.7237      46.7237      46.7237 
  253000    90.498457   -11687.878   -10797.405    614.43543     102002.7      46.7237      46.7237      46.7237 
  254000    90.082047   -11724.388   -10838.012     263.3713     102002.7      46.7237      46.7237      46.7237 
  255000    93.626304   -11680.089   -10758.839    673.34435     102002.7      46.7237      46.7237      46.7237 
  256000    92.706002   -11710.994   -10798.799    427.61983     102002.7      46.7237      46.7237      46.7237 
  257000    91.655244    -11719.52   -10817.664     363.2842     102002.7      46.7237      46.7237      46.7237 
  258000    91.321618   -11698.748   -10800.175     398.5017     102002.7      46.7237      46.7237      46.7237 
  259000    91.543869   -11687.992   -10787.232    448.06775     102002.7      46.7237      46.7237      46.7237 
  260000    89.649815    -11703.95   -10821.827    377.53691     102002.7      46.7237      46.7237      46.7237 
  261000    94.306898   -11717.208   -10789.261    185.79127     102002.7      46.7237      46.7237      46.7237 
  262000    93.960769   -11699.495   -10774.954    116.03828     102002.7      46.7237      46.7237      46.7237 
  263000    89.354279   -11716.235    -10837.02    454.03439     102002.7      46.7237      46.7237      46.7237 
  264000    90.256662   -11714.053   -10825.959    441.56135     102002.7      46.7237      46.7237      46.7237 
  265000    90.600606   -11700.973   -10809.495    530.63827     102002.7      46.7237      46.7237      46.7237 
  266000    89.647456   -11715.186   -10833.086    392.37631     102002.7      46.7237      46.7237      46.7237 
  267000    92.616929   -11703.329    -10792.01     286.6582     102002.7      46.7237      46.7237      46.7237 
  268000    91.666771   -11708.817   -10806.848    657.26681     102002.7      46.7237      46.7237      46.7237 
  269000     90.67666   -11720.236   -10828.009     622.8978     102002.7      46.7237      46.7237      46.7237 
  270000    90.552623   -11716.989   -10825.983    402.56152     102002.7      46.7237      46.7237      46.7237 
  271000    89.457342   -11704.611   -10824.382    281.62153     102002.7      46.7237      46.7237      46.7237 
  272000    87.595995    -11712.41   -10850.496    394.39849     102002.7      46.7237      46.7237      46.7237 
  273000    90.977763   -11702.918   -10807.728    419.77273     102002.7      46.7237      46.7237      46.7237 
  274000    89.091915   -11718.811   -10842.177    356.34331     102002.7      46.7237      46.7237      46.7237 
  275000     90.58703     -11732.2   -10840.855    320.79007     102002.7      46.7237      46.7237      46.7237 
  276000    90.153011   -11669.942   -10782.868    371.26858     102002.7      46.7237      46.7237      46.7237 
  277000    90.271839   -11699.546   -10811.303    630.39435     102002.7      46.7237      46.7237      46.7237 
  278000    89.270787   -11712.029   -10833.635    463.36429     102002.7      46.7237      46.7237      46.7237 
  279000    91.268693   -11685.459   -10787.406    315.37602     102002.7      46.7237      46.7237      46.7237 
  280000    91.917244   -11710.288   -10805.854    138.16968     102002.7      46.7237      46.7237      46.7237 
  281000    91.107785   -11708.804   -10812.335    364.62175     102002.7      46.7237      46.7237      46.7237 
  282000    90.647237   -11689.406   -10797.469    330.53964     102002.7      46.7237      46.7237      46.7237 
  283000    91.679676   -11709.878   -10807.782    293.23151     102002.7      46.7237      46.7237      46.7237 
  284000    91.181288   -11713.938   -10816.746    192.26034     102002.7      46.7237      46.7237      46.7237 
  285000    89.408345   -11703.685   -10823.938    458.99514     102002.7      46.7237      46.7237      46.7237 
  286000    91.882237    -11694.66   -10790.571    539.38173     102002.7      46.7237      46.7237      46.7237 
  287000    90.067685   -11710.824   -10824.589     407.9194     102002.7      46.7237      46.7237      46.7237 
  288000    91.670085   -11703.727   -10801.725    398.74161     102002.7      46.7237      46.7237      46.7237 
  289000    91.842774   -11686.426   -10782.724    298.91837     102002.7      46.7237      46.7237      46.7237 
  290000    90.762682   -11702.658   -10809.585    443.10014     102002.7      46.7237      46.7237      46.7237 
  291000     90.81978   -11705.949   -10812.313    291.05632     102002.7      46.7237      46.7237      46.7237 
  292000    89.980548   -11720.395   -10835.017    663.88063     102002.7      46.7237      46.7237      46.7237 
  293000    89.562447   -11705.601   -10824.338     506.9893     102002.7      46.7237      46.7237      46.7237 
  294000    91.329669   -11710.297   -10811.645    301.82047     102002.7      46.7237      46.7237      46.7237 
  295000    91.629304   -11695.475   -10793.874    222.10858     102002.7      46.7237      46.7237      46.7237 
  296000    91.587489   -11692.073   -10790.884    490.95662     102002.7      46.7237      46.7237      46.7237 
  297000    88.469696   -11722.637   -10852.126    105.33175     102002.7      46.7237      46.7237      46.7237 
  298000    91.917929   -11703.227   -10798.787    598.08423     102002.7      46.7237      46.7237      46.7237 
  299000    91.841232   -11711.599   -10807.913    272.79364     102002.7      46.7237      46.7237      46.7237 
  300000    93.911372   -11715.999   -10791.944    333.31169     102002.7      46.7237      46.7237      46.7237 
  301000    89.677009   -11720.712   -10838.321    355.85444     102002.7      46.7237      46.7237      46.7237 
  302000    91.081717   -11726.039   -10829.826    121.10177     102002.7      46.7237      46.7237      46.7237 
  303000    92.951458   -11710.165   -10795.555    358.16784     102002.7      46.7237      46.7237      46.7237 
  304000    91.972033   -11702.849   -10797.876    257.15819     102002.7      46.7237      46.7237      46.7237 
  305000    91.838522   -11706.936   -10803.277     185.3502     102002.7      46.7237      46.7237      46.7237 
  306000     90.45726   -11703.578    -10813.51    538.71773     102002.7      46.7237      46.7237      46.7237 
  307000    89.950356   -11708.853   -10823.773    676.73241     102002.7      46.7237      46.7237      46.7237 
  308000     89.55781   -11712.809   -10831.591    258.01995     102002.7      46.7237      46.7237      46.7237 
  309000    90.947847   -11693.631   -10798.735    399.17728     102002.7      46.7237      46.7237      46.7237 
  310000    90.500186   -11703.999   -10813.508    304.87089     102002.7      46.7237      46.7237      46.7237 
  311000    90.418801   -11707.573   -10817.884    426.54277     102002.7      46.7237      46.7237      46.7237 
  312000    90.989983   -11709.431   -10814.122    300.56746     102002.7      46.7237      46.7237      46.7237 
  313000    89.532412   -11716.285   -10835.317    311.50142     102002.7      46.7237      46.7237      46.7237 
  314000    92.558974   -11711.165   -10800.416    205.13912     102002.7      46.7237      46.7237      46.7237 
  315000    91.327555   -11745.102   -10846.471    201.18843     102002.7      46.7237      46.7237      46.7237 
  316000    91.708178   -11731.193   -10828.817    493.46908     102002.7      46.7237      46.7237      46.7237 
  317000     92.10592   -11699.374   -10793.084    232.43251     102002.7      46.7237      46.7237      46.7237 
  318000    90.170909   -11705.528   -10818.278    549.09395     102002.7      46.7237      46.7237      46.7237 
  319000    90.572182   -11707.599     -10816.4    371.02931     102002.7      46.7237      46.7237      46.7237 
  320000    90.488951   -11706.398   -10816.018    338.92669     102002.7      46.7237      46.7237      46.7237 
  321000    91.792852   -11705.254   -10802.044    515.36622     102002.7      46.7237      46.7237      46.7237 
  322000    91.197383   -11712.725   -10815.375    360.34631     102002.7      46.7237      46.7237      46.7237 
  323000    91.795674   -11702.037   -10798.799      320.528     102002.7      46.7237      46.7237      46.7237 
  324000    90.778502   -11698.787   -10805.558    395.75674     102002.7      46.7237      46.7237      46.7237 
  325000    92.280768   -11728.301    -10820.29    421.77569     102002.7      46.7237      46.7237      46.7237 
  326000    92.829988   -11723.528   -10810.113    476.75496     102002.7      46.7237      46.7237      46.7237 
  327000    90.490613   -11693.846    -10803.45    311.29125     102002.7      46.7237      46.7237      46.7237 
  328000    91.833123    -11707.16   -10803.554    461.41082     102002.7      46.7237      46.7237      46.7237 
  329000    93.152426   -11720.175   -10803.588    385.75221     102002.7      46.7237      46.7237      46.7237 
  330000    91.936806    -11705.08   -10800.454    444.50295     102002.7      46.7237      46.7237      46.7237 
  331000    91.155831   -11707.215   -10810.273    461.85109     102002.7      46.7237      46.7237      46.7237 
  332000    89.261412    -11709.74   -10831.439    363.34998     102002.7      46.7237      46.7237      46.7237 
  333000    89.510866   -11703.803   -10823.047      553.323     102002.7      46.7237      46.7237      46.7237 
  334000    90.681016   -11728.173   -10835.903    517.77368     102002.7      46.7237      46.7237      46.7237 
  335000    88.789577   -11721.366   -10847.707    111.77662     102002.7      46.7237      46.7237      46.7237 
  336000    88.927332   -11709.442   -10834.428    470.73424     102002.7      46.7237      46.7237      46.7237 
  337000    90.139611   -11706.797   -10819.854    108.65688     102002.7      46.7237      46.7237      46.7237 
  338000    91.417575   -11727.155   -10827.638     143.0584     102002.7      46.7237      46.7237      46.7237 
  339000    90.615338    -11708.83   -10817.207    503.02303     102002.7      46.7237      46.7237      46.7237 
  340000     90.31759   -11701.815   -10813.121    115.50398     102002.7      46.7237      46.7237      46.7237 
  341000    89.822702     -11717.9   -10834.076    591.90549     102002.7      46.7237      46.7237      46.7237 
  342000    93.501683   -11695.445   -10775.421    475.10509     102002.7      46.7237      46.7237      46.7237 
  343000    92.895612   -11704.479   -10790.418    230.78177     102002.7      46.7237      46.7237      46.7237 
  344000     88.22691   -11712.982    -10844.86    172.86153     102002.7      46.7237      46.7237      46.7237 
  345000    90.540942   -11709.193   -10818.301    342.61543     102002.7      46.7237      46.7237      46.7237 
  346000    89.737784   -11721.447   -10838.458    75.058012     102002.7      46.7237      46.7237      46.7237 
  347000    91.874938   -11706.755   -10802.737     303.1043     102002.7      46.7237      46.7237      46.7237 
  348000    90.693812   -11712.552   -10820.157    360.56652     102002.7      46.7237      46.7237      46.7237 
  349000    91.301589   -11732.114   -10833.738     311.5775     102002.7      46.7237      46.7237      46.7237 
  350000    91.909426   -11720.448   -10816.091    273.96148     102002.7      46.7237      46.7237      46.7237 
  351000    91.543097   -11709.073    -10808.32    469.37385     102002.7      46.7237      46.7237      46.7237 
  352000    90.637716   -11717.057   -10825.213    187.24123     102002.7      46.7237      46.7237      46.7237 
  353000    89.668876   -11687.084   -10804.773    189.47536     102002.7      46.7237      46.7237      46.7237 
  354000    89.857593   -11744.282   -10860.114    572.02539     102002.7      46.7237      46.7237      46.7237 
  355000     91.13224    -11694.97    -10798.26    590.42305     102002.7      46.7237      46.7237      46.7237 
  356000    91.534484   -11716.984   -10816.316    582.76659     102002.7      46.7237      46.7237      46.7237 
  357000     92.42025   -11732.554    -10823.17    481.86494     102002.7      46.7237      46.7237      46.7237 
  358000    89.980152   -11711.364    -10825.99    354.70499     102002.7      46.7237      46.7237      46.7237 
  359000    91.716962    -11713.14   -10810.677    786.55948     102002.7      46.7237      46.7237      46.7237 
  360000    91.559802   -11740.467   -10839.551    285.04337     102002.7      46.7237      46.7237      46.7237 
  361000    90.451851   -11725.621   -10835.606    152.10062     102002.7      46.7237      46.7237      46.7237 
  362000    92.642569   -11718.086   -10806.515    308.63982     102002.7      46.7237      46.7237      46.7237 
  363000    92.241183   -11718.213   -10810.592    164.87128     102002.7      46.7237      46.7237      46.7237 
  364000    91.752455   -11727.994   -10825.182    455.37391     102002.7      46.7237      46.7237      46.7237 
  365000    90.967562   -11726.268   -10831.178    426.56727     102002.7      46.7237      46.7237      46.7237 
  366000     93.22642   -11729.937   -10812.621    15.981663     102002.7      46.7237      46.7237      46.7237 
  367000    90.358376   -11677.821   -10788.726    545.83665     102002.7      46.7237      46.7237      46.7237 
  368000    90.762656    -11718.82   -10825.747    451.31232     102002.7      46.7237      46.7237      46.7237 
  369000    91.459235   -11697.452   -10797.525    349.14575     102002.7      46.7237      46.7237      46.7237 
  370000    91.657014    -11722.13   -10820.257    415.89231     102002.7      46.7237      46.7237      46.7237 
  371000    89.328109   -11720.558   -10841.601   -96.967323     102002.7      46.7237      46.7237      46.7237 
  372000    90.729006   -11702.127   -10809.385    184.02291     102002.7      46.7237      46.7237      46.7237 
  373000    90.773841   -11704.052   -10810.868    423.77293     102002.7      46.7237      46.7237      46.7237 
  374000    92.488377   -11705.913    -10795.86    621.93254     102002.7      46.7237      46.7237      46.7237 
  375000    89.077588   -11728.487   -10851.994    226.45889     102002.7      46.7237      46.7237      46.7237 
  376000     92.10683   -11715.697   -10809.398    273.24833     102002.7      46.7237      46.7237      46.7237 
  377000    91.060965   -11705.788   -10809.779    381.78123     102002.7      46.7237      46.7237      46.7237 
  378000    91.208523   -11693.965   -10796.505    466.43988     102002.7      46.7237      46.7237      46.7237 
  379000    92.693862   -11721.673   -10809.597    171.62233     102002.7      46.7237      46.7237      46.7237 
  380000    90.369996    -11718.02    -10828.81    463.97532     102002.7      46.7237      46.7237      46.7237 
  381000    91.417538   -11695.614   -10796.097    441.50168     102002.7      46.7237      46.7237      46.7237 
  382000    90.738036   -11719.334   -10826.503    423.65264     102002.7      46.7237      46.7237      46.7237 
  383000    92.122816   -11697.784   -10791.327    605.02975     102002.7      46.7237      46.7237      46.7237 
  384000    91.605838   -11705.155   -10803.785    44.842219     102002.7      46.7237      46.7237      46.7237 
  385000    90.060497   -11717.233   -10831.069    319.58793     102002.7      46.7237      46.7237      46.7237 
  386000    91.733413    -11691.65   -10789.025    501.59912     102002.7      46.7237      46.7237      46.7237 
  387000    92.514913   -11716.999   -10806.684    420.06992     102002.7      46.7237      46.7237      46.7237 
  388000    89.628944   -11739.203   -10857.285    337.33965     102002.7      46.7237      46.7237      46.7237 
  389000    89.443102   -11712.878   -10832.789    266.91594     102002.7      46.7237      46.7237      46.7237 
  390000    90.269594   -11725.803   -10837.582    227.45846     102002.7      46.7237      46.7237      46.7237 
  391000    90.368128   -11726.061    -10836.87     315.9021     102002.7      46.7237      46.7237      46.7237 
  392000    89.435648   -11724.383   -10844.367    236.49152     102002.7      46.7237      46.7237      46.7237 
  393000    92.056289   -11716.224   -10810.422     128.7577     102002.7      46.7237      46.7237      46.7237 
  394000    90.003774   -11723.375   -10837.769     237.7575     102002.7      46.7237      46.7237      46.7237 
  395000    92.110593   -11721.823   -10815.487    462.35166     102002.7      46.7237      46.7237      46.7237 
  396000    89.788412   -11697.711   -10814.224    380.54554     102002.7      46.7237      46.7237      46.7237 
  397000    90.962327   -11701.603   -10806.565    384.39566     102002.7      46.7237      46.7237      46.7237 
  398000    90.775785    -11728.07   -10834.867    222.85562     102002.7      46.7237      46.7237      46.7237 
  399000    92.527294   -11696.637   -10786.201    428.97482     102002.7      46.7237      46.7237      46.7237 
  400000    90.939375   -11731.129   -10836.317    424.00777     102002.7      46.7237      46.7237      46.7237 
  401000    90.151107   -11698.479   -10811.423    19.130956     102002.7      46.7237      46.7237      46.7237 
  402000    91.451295   -11726.476   -10826.627    170.27063     102002.7      46.7237      46.7237      46.7237 
  403000    91.802458   -11727.379   -10824.075    502.47031     102002.7      46.7237      46.7237      46.7237 
  404000    91.584205   -11719.902   -10818.745      453.495     102002.7      46.7237      46.7237      46.7237 
  405000    90.410897   -11704.529   -10814.917    583.23019     102002.7      46.7237      46.7237      46.7237 
  406000    91.663338   -11711.144   -10809.208    488.97299     102002.7      46.7237      46.7237      46.7237 
  407000    90.506243   -11732.859   -10842.309    296.18453     102002.7      46.7237      46.7237      46.7237 
  408000    91.005822   -11717.753   -10822.287    282.42107     102002.7      46.7237      46.7237      46.7237 
  409000    89.904022   -11729.732   -10845.107    485.83038     102002.7      46.7237      46.7237      46.7237 
  410000    91.318711   -11703.531   -10804.986    365.75069     102002.7      46.7237      46.7237      46.7237 
  411000    89.921035   -11710.996   -10826.204    632.50036     102002.7      46.7237      46.7237      46.7237 
  412000    90.314706   -11687.462   -10798.797     316.0155     102002.7      46.7237      46.7237      46.7237 
  413000    89.667312   -11720.251   -10837.956    220.18874     102002.7      46.7237      46.7237      46.7237 
  414000    91.484291   -11710.795   -10810.621    324.89999     102002.7      46.7237      46.7237      46.7237 
  415000    91.135202   -11725.076   -10828.337    80.363105     102002.7      46.7237      46.7237      46.7237 
  416000     90.70968   -11724.209   -10831.658    248.53371     102002.7      46.7237      46.7237      46.7237 
  417000    91.830491   -11709.921    -10806.34    578.13978     102002.7      46.7237      46.7237      46.7237 
  418000    92.913438   -11721.967    -10807.73    480.03138     102002.7      46.7237      46.7237      46.7237 
  419000    90.306152   -11695.787   -10807.206    267.28964     102002.7      46.7237      46.7237      46.7237 
  420000    92.613056   -11695.143   -10783.862    272.83761     102002.7      46.7237      46.7237      46.7237 
  421000    91.681942   -11700.244   -10798.125    158.85461     102002.7      46.7237      46.7237      46.7237 
  422000    88.360659   -11709.165   -10839.727    237.91243     102002.7      46.7237      46.7237      46.7237 
  423000    91.842192   -11685.579   -10781.884    333.28891     102002.7      46.7237      46.7237      46.7237 
  424000    91.865182   -11708.384   -10804.462    72.586711     102002.7      46.7237      46.7237      46.7237 
  425000    88.752171   -11714.105   -10840.815    395.59818     102002.7      46.7237      46.7237      46.7237 
  426000    93.325311    -11731.93   -10813.641    379.20321     102002.7      46.7237      46.7237      46.7237 
  427000    92.266362   -11685.199    -10777.33     356.0823     102002.7      46.7237      46.7237      46.7237 
  428000    91.988737   -11715.891   -10810.754    286.48984     102002.7      46.7237      46.7237      46.7237 
  429000    91.496977   -11708.872   -10808.573    233.89309     102002.7      46.7237      46.7237      46.7237 
  430000    91.364533   -11722.242   -10823.246    424.47314     102002.7      46.7237      46.7237      46.7237 
  431000    88.630214   -11716.201    -10844.11    190.42694     102002.7      46.7237      46.7237      46.7237 
  432000    90.169784   -11706.363   -10819.123     78.32096     102002.7      46.7237      46.7237      46.7237 
  433000    91.391274   -11688.332   -10789.074    136.26523     102002.7      46.7237      46.7237      46.7237 
  434000     91.29755   -11723.617   -10825.281    148.92262     102002.7      46.7237      46.7237      46.7237 
  435000    90.169466   -11715.793   -10828.556    489.60804     102002.7      46.7237      46.7237      46.7237 
  436000    89.978174   -11719.864    -10834.51    86.217762     102002.7      46.7237      46.7237      46.7237 
  437000    91.435964   -11721.462   -10821.764    419.80051     102002.7      46.7237      46.7237      46.7237 
  438000    92.997159   -11719.407   -10804.347     130.2486     102002.7      46.7237      46.7237      46.7237 
  439000    89.699735   -11718.156   -10835.542    210.62337     102002.7      46.7237      46.7237      46.7237 
  440000    90.613194    -11715.46   -10823.858    560.95739     102002.7      46.7237      46.7237      46.7237 
  441000    88.624936   -11715.852   -10843.814    242.01658     102002.7      46.7237      46.7237      46.7237 
  442000    92.660701   -11697.911   -10786.162    318.97796     102002.7      46.7237      46.7237      46.7237 
  443000    92.847345   -11719.055    -10805.47    335.26895     102002.7      46.7237      46.7237      46.7237 
  444000    91.336239   -11717.489   -10818.772    435.49819     102002.7      46.7237      46.7237      46.7237 
  445000    90.004364   -11696.678   -10811.066    228.35697     102002.7      46.7237      46.7237      46.7237 
  446000    91.216447   -11715.952   -10818.414    236.20536     102002.7      46.7237      46.7237      46.7237 
  447000     90.77933   -11702.917   -10809.679    281.86734     102002.7      46.7237      46.7237      46.7237 
  448000    89.988419   -11713.794    -10828.34    556.63266     102002.7      46.7237      46.7237      46.7237 
  449000    89.808484    -11717.83   -10834.145    83.912013     102002.7      46.7237      46.7237      46.7237 
  450000    92.416533   -11722.001   -10812.654    270.20457     102002.7      46.7237      46.7237      46.7237 
  451000    89.461664   -11701.214   -10820.942    313.78045     102002.7      46.7237      46.7237      46.7237 
  452000    91.200932   -11710.974   -10813.588    301.53749     102002.7      46.7237      46.7237      46.7237 
  453000    91.210395   -11710.295   -10812.816    284.55856     102002.7      46.7237      46.7237      46.7237 
  454000     89.37394   -11707.879   -10828.471     196.8829     102002.7      46.7237      46.7237      46.7237 
  455000    90.812947   -11724.569   -10831.001    116.54762     102002.7      46.7237      46.7237      46.7237 
  456000    92.093741   -11709.117   -10802.947    358.78039     102002.7      46.7237      46.7237      46.7237 
  457000     89.85567   -11708.279    -10824.13    293.85165     102002.7      46.7237      46.7237      46.7237 
  458000    89.095708   -11701.463   -10824.792    180.48574     102002.7      46.7237      46.7237      46.7237 
  459000    91.219227   -11715.711   -10818.146     324.5538     102002.7      46.7237      46.7237      46.7237 
  460000    90.239621   -11710.086    -10822.16     462.1813     102002.7      46.7237      46.7237      46.7237 
  461000    87.855759   -11719.102   -10854.632   -10.533952     102002.7      46.7237      46.7237      46.7237 
  462000    93.366582   -11699.971   -10781.276     264.3336     102002.7      46.7237      46.7237      46.7237 
  463000    91.343889   -11693.217   -10794.424    233.42401     102002.7      46.7237      46.7237      46.7237 
  464000    89.465711   -11701.435   -10821.123    255.29127     102002.7      46.7237      46.7237      46.7237 
  465000    89.939609   -11721.267   -10836.293     204.2769     102002.7      46.7237      46.7237      46.7237 
  466000    91.068911   -11712.841   -10816.754     259.2737     102002.7      46.7237      46.7237      46.7237 
  467000    90.857358   -11704.609   -10810.604    422.46919     102002.7      46.7237      46.7237      46.7237 
  468000    89.690032   -11707.346   -10824.827    543.00452     102002.7      46.7237      46.7237      46.7237 
  469000    91.473177   -11702.631   -10802.566    339.49098     102002.7      46.7237      46.7237      46.7237 
  470000    91.585457   -11691.994   -10790.825    400.56238     102002.7      46.7237      46.7237      46.7237 
  471000    91.499673   -11731.348   -10831.023    209.38417     102002.7      46.7237      46.7237      46.7237 
  472000      89.9148   -11706.737   -10822.007     340.7936     102002.7      46.7237      46.7237      46.7237 
  473000    88.935155   -11691.704   -10816.613    278.83898     102002.7      46.7237      46.7237      46.7237 
  474000     92.30545   -11722.954     -10814.7    305.69977     102002.7      46.7237      46.7237      46.7237 
  475000    88.234216   -11698.682   -10830.488    207.39367     102002.7      46.7237      46.7237      46.7237 
  476000     90.10778   -11706.179    -10819.55    481.27016     102002.7      46.7237      46.7237      46.7237 
  477000    91.773864   -11708.407   -10805.384    418.04008     102002.7      46.7237      46.7237      46.7237 
  478000    91.856479   -11705.764   -10801.928    346.35472     102002.7      46.7237      46.7237      46.7237 
  479000    93.510917    -11720.28   -10800.165    181.78452     102002.7      46.7237      46.7237      46.7237 
  480000    88.419258   -11731.934   -10861.919     286.0957     102002.7      46.7237      46.7237      46.7237 
  481000    93.154709   -11724.817   -10808.207    45.346162     102002.7      46.7237      46.7237      46.7237 
  482000    87.952132   -11712.215   -10846.796    463.88101     102002.7      46.7237      46.7237      46.7237 
  483000    91.836977   -11703.149   -10799.505    306.39492     102002.7      46.7237      46.7237      46.7237 
  484000    90.597164   -11701.926   -10810.482    173.09226     102002.7      46.7237      46.7237      46.7237 
  485000    92.614172   -11692.378   -10781.087      359.276     102002.7      46.7237      46.7237      46.7237 
  486000     91.38295   -11712.559   -10813.383    410.92267     102002.7      46.7237      46.7237      46.7237 
  487000    90.857822   -11740.664   -10846.654    386.57548     102002.7      46.7237      46.7237      46.7237 
  488000    94.500784   -11712.748   -10782.893    248.32573     102002.7      46.7237      46.7237      46.7237 
  489000    90.334746   -11693.799   -10804.936    283.08026     102002.7      46.7237      46.7237      46.7237 
  490000    91.445892   -11718.908   -10819.112     446.9899     102002.7      46.7237      46.7237      46.7237 
  491000    91.721561   -11717.592   -10815.084    283.31714     102002.7      46.7237      46.7237      46.7237 
  492000    91.692533   -11708.116   -10805.894    125.61406     102002.7      46.7237      46.7237      46.7237 
  493000    92.512329   -11697.544   -10787.255    223.74395     102002.7      46.7237      46.7237      46.7237 
  494000    91.303338   -11695.825   -10797.432    358.92796     102002.7      46.7237      46.7237      46.7237 
  495000     91.60723   -11707.829   -10806.445    402.74483     102002.7      46.7237      46.7237      46.7237 
  496000    92.862303   -11682.231   -10768.498    524.13976     102002.7      46.7237      46.7237      46.7237 
  497000    90.587293   -11705.952   -10814.604    348.71168     102002.7      46.7237      46.7237      46.7237 
  498000    91.380466   -11724.112    -10824.96     374.6433     102002.7      46.7237      46.7237      46.7237 
  499000    90.704699   -11697.512   -10805.009    110.03245     102002.7      46.7237      46.7237      46.7237 
  500000    89.669391   -11707.519   -10825.203    558.61355     102002.7      46.7237      46.7237      46.7237 
  500500    90.181619   -11718.211   -10830.855    318.60509     102002.7      46.7237      46.7237      46.7237 
Loop time of 1919.98 on 16 procs for 500000 steps with 3302 atoms

Performance: 22.500 ns/day, 1.067 hours/ns, 260.419 timesteps/s
99.8% CPU use with 16 MPI tasks x no OpenMP threads

MPI task timing breakdown:
Section |  min time  |  avg time  |  max time  |%varavg| %total
---------------------------------------------------------------
Pair    | 887.39     | 1208.9     | 1481.4     | 521.4 | 62.96
Bond    | 104.98     | 174.84     | 201.35     | 196.0 |  9.11
Neigh   | 14.988     | 15.045     | 15.153     |   1.6 |  0.78
Comm    | 204.96     | 503.42     | 844.63     | 883.3 | 26.22
Output  | 0.021594   | 0.022259   | 0.025901   |   0.7 |  0.00
Modify  | 9.9602     | 10.867     | 12.371     |  20.9 |  0.57
Other   |            | 6.911      |            |       |  0.36

Nlocal:    206.375 ave 242 max 169 min
Histogram: 2 0 2 2 0 3 1 4 1 1
Nghost:    4151.19 ave 4192 max 4112 min
Histogram: 1 2 0 3 3 2 1 1 1 2
Neighs:    11463.4 ave 16563 max 6325 min
Histogram: 2 1 2 1 3 1 1 1 2 2

Total # of neighbors = 183415
Ave neighs/atom = 55.5466
Ave special neighs/atom = 3.48879
Neighbor list builds = 4104
Dangerous builds = 0
Neighbor list info ...
  update every 1 steps, delay 10 steps, check yes
  max neighbors/atom: 2000, page size: 100000
  master list distance cutoff = 16
  ghost atom cutoff = 16
  binsize = 8, bins = 6 6 6
  3 neighbor lists, perpetual/occasional/extra = 3 0 0
  (1) pair buck6d/coul/gauss/dsf, perpetual, skip from (3)
      attributes: half, newton on
      pair build: skip
      stencil: none
      bin: none
  (2) pair lj/cut, perpetual, skip from (3)
      attributes: half, newton on
      pair build: skip
      stencil: none
      bin: none
  (3) neighbor class addition, perpetual
      attributes: half, newton on
      pair build: half/bin/newton
      stencil: half/bin/3d/newton
      bin: standard
Setting up Verlet run ...
  Unit style    : real
  Current step  : 500500
  Time step     : 1
WARNING: Inconsistent image flags (../domain.cpp:786)
Per MPI rank memory allocation (min/avg/max) = 22.67 | 23.23 | 23.45 Mbytes
Step Time TotEng KinEng PotEng E_mol E_pair Temp Pxx Pyy Pzz Pxy Pxz Pyz Cella Cellb Cellc CellAlpha CellBeta CellGamma Volume Press 
  500500       500000   -10830.855    887.35592   -11718.211    4150.5041   -15868.715    90.181619     723.2737    217.14298    15.398602    69.544337   -49.033573    29.585808      46.7237      46.7237      46.7237           90           90           90     102002.7    318.60509 
  501000       500500   -10807.404    895.12699   -11702.531    4157.5526   -15860.083    90.971389    493.98655    279.54215    435.00839    74.233161   -141.80755    237.66021      46.7237      46.7237      46.7237           90           90           90     102002.7     402.8457 
  502000       501500   -10786.808    902.00554   -11688.813    4176.1955   -15865.009    91.670453    674.05223     259.1171   -65.598295    -102.0107   -67.589222    11.088813      46.7237      46.7237      46.7237           90           90           90     102002.7    289.19034 
  503000       502500    -10813.51    894.79768   -11708.307    4167.5731    -15875.88    90.937921    245.36395    431.14002    81.493302    54.521918   -51.074709    197.19176      46.7237      46.7237      46.7237           90           90           90     102002.7    252.66576 
  504000       503500   -10828.497    888.97124   -11717.468    4164.6091   -15882.077    90.345782    465.46656     97.30005    329.72489   -192.03844    240.85353    -190.0928      46.7237      46.7237      46.7237           90           90           90     102002.7    297.49717 
  505000       504500   -10806.243    895.56596   -11701.809    4156.4243   -15858.233    91.016001    635.33795    333.10615    451.16754   -34.042761    159.12079   -95.301889      46.7237      46.7237      46.7237           90           90           90     102002.7    473.20388 
  506000       505500   -10805.053    899.19196   -11704.245    4159.8802   -15864.125     91.38451    121.26135    -206.4357    239.52974   -87.615817   -80.856582   -71.439308      46.7237      46.7237      46.7237           90           90           90     102002.7    51.451794 
  507000       506500   -10826.338    889.19163    -11715.53    4142.9212   -15858.451    90.368181   -60.888714    135.17806    389.60318    103.11586   -94.771573   -15.194578      46.7237      46.7237      46.7237           90           90           90     102002.7    154.63084 
  508000       507500   -10800.279    888.12041   -11688.399    4160.7941   -15849.194    90.259313    380.42253    377.20905    670.66949    81.237415   -70.729434    210.08329      46.7237      46.7237      46.7237           90           90           90     102002.7    476.10036 
  509000       508500    -10787.62    918.58601   -11706.206    4166.0004   -15872.206     93.35552    199.80595    152.65974    210.50515    319.75165    93.635928    2.0822347      46.7237      46.7237      46.7237           90           90           90     102002.7    187.65694 
  510000       509500   -10833.451    892.83044   -11726.282    4152.9967   -15879.278    90.737991   -15.007289    344.43163    66.406505   -133.73904    -30.09361     96.91426      46.7237      46.7237      46.7237           90           90           90     102002.7    131.94361 
  511000       510500   -10807.667    915.98027   -11723.647    4145.7571   -15869.404      93.0907     330.8776    270.77696    496.39894    59.753611    47.758421   -70.496344      46.7237      46.7237      46.7237           90           90           90     102002.7    366.01783 
  512000       511500   -10786.519    898.87458   -11685.394    4170.9706   -15856.364    91.352255    249.34435    341.27934    465.17887    74.387617    56.039333     220.6218      46.7237      46.7237      46.7237           90           90           90     102002.7    351.93419 
  513000       512500   -10834.199    893.29808   -11727.497    4161.8815   -15889.378    90.785517    341.36793    267.08381    110.18904    81.722578   -51.550652   -155.45566      46.7237      46.7237      46.7237           90           90           90     102002.7    239.54693 
  514000       513500   -10826.201    877.01514   -11703.216      4166.68   -15869.896    89.130689     689.7051    252.64272    282.70599   -4.7247491     28.27586   -112.86343      46.7237      46.7237      46.7237           90           90           90     102002.7    408.35127 
  515000       514500   -10834.631    869.36839   -11703.999    4162.3592   -15866.358    88.353553   -52.990793    275.06241    174.10946   -13.645318    160.34549   -131.03967      46.7237      46.7237      46.7237           90           90           90     102002.7    132.06036 
  516000       515500   -10816.011    878.98396   -11694.995    4160.7756    -15855.77     89.33078    309.15268    614.68284    509.13319   -20.589519    183.85696   -147.26527      46.7237      46.7237      46.7237           90           90           90     102002.7    477.65623 
  517000       516500   -10816.768    903.87126   -11720.639    4151.7204    -15872.36    91.860065    210.56986   -93.064665    27.942134    35.117737   -123.57232    101.76502      46.7237      46.7237      46.7237           90           90           90     102002.7    48.482441 
  518000       517500   -10795.662    907.61601   -11703.278    4175.6639   -15878.942    92.240643     799.2877    242.69626    433.81576    89.522562   -93.862899     -26.4014      46.7237      46.7237      46.7237           90           90           90     102002.7    491.93324 
  519000       518500   -10830.636    896.28099   -11726.917    4151.0531    -15877.97     91.08867    338.28307    336.37998    329.76392   -305.98917   -358.59457    18.406457      46.7237      46.7237      46.7237           90           90           90     102002.7    334.80899 
  520000       519500   -10799.124    911.10275   -11710.227    4153.6763   -15863.903    92.594999    511.65514    583.62569    259.79434    101.69002   -29.443552    66.446277      46.7237      46.7237      46.7237           90           90           90     102002.7    451.69172 
  521000       520500   -10826.402     900.7687   -11727.171    4137.7004   -15864.871    91.544753    209.87808    500.16577    206.91642   -64.614722   -1.3058806   -279.48978      46.7237      46.7237      46.7237           90           90           90     102002.7    305.65342 
  522000       521500   -10790.632    900.63883   -11691.271    4173.3408   -15864.612    91.531555    463.78011    234.02187    415.75118   -90.943294   -121.72114   -41.519076      46.7237      46.7237      46.7237           90           90           90     102002.7    371.18439 
  523000       522500   -10798.293    907.52894   -11705.822    4163.2558   -15869.078    92.231794     662.0474    343.06162    736.32512    113.55629   -213.43077   -87.922565      46.7237      46.7237      46.7237           90           90           90     102002.7    580.47805 
  524000       523500   -10845.549    885.21803   -11730.768    4150.8272   -15881.595    89.964346     359.3131    587.29701    321.48992   -285.71929   -246.99808   -24.437373      46.7237      46.7237      46.7237           90           90           90     102002.7    422.70001 
  525000       524500   -10830.795    876.80066   -11707.595    4160.4173   -15868.013    89.108892    320.33293    152.10116    482.22595   -44.783076    97.019449    8.6652317      46.7237      46.7237      46.7237           90           90           90     102002.7    318.22001 
  526000       525500    -10812.88    884.01777   -11696.898    4164.2674   -15861.166    89.842364    209.86868    513.11847    403.20157   -45.156272    254.89722   -108.71004      46.7237      46.7237      46.7237           90           90           90     102002.7    375.39624 
  527000       526500   -10812.875    902.99462   -11715.869    4161.3096   -15877.179    91.770973    591.41605    266.07607    235.75579    -196.3774   -189.18774    106.51478      46.7237      46.7237      46.7237           90           90           90     102002.7    364.41597 
  528000       527500   -10807.097    891.29375   -11698.391    4168.3452   -15866.736    90.581819    92.911518    383.94236    81.203213   -57.769014   -63.212949   -274.54057      46.7237      46.7237      46.7237           90           90           90     102002.7    186.01903 
  529000       528500   -10790.672    918.65947   -11709.331    4164.9421   -15874.273    93.362985    229.59292    244.72546    182.09718    3.0679297    95.559636    91.682598      46.7237      46.7237      46.7237           90           90           90     102002.7    218.80519 
  530000       529500    -10824.43    892.20334   -11716.634    4162.9902   -15879.624     90.67426    373.41758    200.28475    502.82681   -47.736455   -189.04847   -138.13007      46.7237      46.7237      46.7237           90           90           90     102002.7    358.84305 
  531000       530500   -10794.354    909.67662    -11704.03    4167.3992   -15871.429    92.450062    463.04084    46.857518    -124.4615    22.366723    -141.8335   -38.807773      46.7237      46.7237      46.7237           90           90           90     102002.7    128.47895 
  532000       531500   -10812.063    898.98752   -11711.051    4165.0481   -15876.099    91.363733     138.3081    158.70017    305.79227    49.646991    247.90919    69.151304      46.7237      46.7237      46.7237           90           90           90     102002.7    200.93351 
  533000       532500   -10806.294    894.90195   -11701.196    4166.8328   -15868.029    90.948518    338.76003   -3.8513452   -215.78236    -69.80604   -62.879939   -54.487083      46.7237      46.7237      46.7237           90           90           90     102002.7    39.708775 
  534000       533500   -10792.042    901.69562   -11693.738     4177.859   -15871.597    91.638957    337.77647   -14.101041   -490.79214    89.662327    -101.4757    207.69023      46.7237      46.7237      46.7237           90           90           90     102002.7   -55.705573 
  535000       534500   -10834.491    891.75916    -11726.25     4152.826   -15879.076    90.629117    427.57802   -159.60665    396.05696   -85.045682   -168.52091    36.121179      46.7237      46.7237      46.7237           90           90           90     102002.7    221.34278 
  536000       535500   -10808.811     908.8707   -11717.682    4149.7187     -15867.4    92.368157    313.29903    351.44712    119.89336   -34.562902   -160.29075   -71.137069      46.7237      46.7237      46.7237           90           90           90     102002.7     261.5465 
  537000       536500   -10796.397    911.44631   -11707.844     4151.801   -15859.645    92.629915   -229.61621      64.0893    196.35271    61.224619   -133.10042   -160.76281      46.7237      46.7237      46.7237           90           90           90     102002.7    10.275266 
  538000       537500   -10813.607    906.72762   -11720.334    4159.7211   -15880.056    92.150356    152.95724    236.75839    89.119021    104.27168   -111.75745   -211.44331      46.7237      46.7237      46.7237           90           90           90     102002.7    159.61155 
  539000       538500   -10830.259    881.47025    -11711.73    4176.4261   -15888.156     89.58346    417.23642     515.8796   -285.28659      78.4876    170.38562    19.557414      46.7237      46.7237      46.7237           90           90           90     102002.7    215.94314 
  540000       539500    -10775.44    918.64246   -11694.083    4184.0633   -15878.146    93.361257   -76.349604    29.817044   -13.814122   -144.89501    157.66211    30.111774      46.7237      46.7237      46.7237           90           90           90     102002.7   -20.115561 
  541000       540500   -10833.792    877.06683   -11710.859    4158.5902   -15869.449    89.135942   -105.91986   -118.25807    94.622933    34.293432    193.72294   -109.74967      46.7237      46.7237      46.7237           90           90           90     102002.7   -43.184997 
  542000       541500   -10794.505     899.8703   -11694.376    4170.4054   -15864.781     91.45345    382.59382   -164.75676    157.67219    151.32198    70.634193    252.63219      46.7237      46.7237      46.7237           90           90           90     102002.7    125.16975 
  543000       542500   -10816.047    898.02358    -11714.07    4159.6782   -15873.749    91.265769    411.94388    532.34001    621.47459    110.66766    29.134147    97.239767      46.7237      46.7237      46.7237           90           90           90     102002.7    521.91949 
  544000       543500   -10807.071    890.20179   -11697.273    4153.0351   -15850.308    90.470843    609.65668    379.23379    520.54177    135.96816   -255.51378   -271.92205      46.7237      46.7237      46.7237           90           90           90     102002.7    503.14408 
  545000       544500   -10815.108    911.44497   -11726.553    4134.3929   -15860.945    92.629778    488.70245    139.33136    233.17405    15.542264   -349.35818    114.72344      46.7237      46.7237      46.7237           90           90           90     102002.7    287.06929 
  546000       545500   -10839.535    895.83534    -11735.37    4136.7268   -15872.097    91.043379    205.62835    229.54193     619.4043   -234.73597    113.86231     -120.236      46.7237      46.7237      46.7237           90           90           90     102002.7    351.52486 
  547000       546500   -10826.642    897.97936   -11724.621    4150.2161   -15874.837    91.261274    301.60275    64.708288    296.02018    35.649152    156.94686   -35.817393      46.7237      46.7237      46.7237           90           90           90     102002.7    220.77707 
  548000       547500    -10828.61    893.87419   -11722.484    4153.7251    -15876.21    90.844068    542.80627    213.36889     365.3521   -108.66066    -90.11681    151.02429      46.7237      46.7237      46.7237           90           90           90     102002.7    373.84242 
  549000       548500   -10820.715    906.10394   -11726.819    4139.3293   -15866.148    92.086972    339.98426     735.0479    473.30025    120.66658   -164.77489    26.157305      46.7237      46.7237      46.7237           90           90           90     102002.7     516.1108 
  550000       549500   -10819.826    897.31907   -11717.145    4163.1616   -15880.307    91.194169    519.50198    6.3338626    216.18571   -72.121227   -282.14958    104.46487      46.7237      46.7237      46.7237           90           90           90     102002.7    247.34052 
  551000       550500   -10854.002    880.94456   -11734.947    4150.8784   -15885.825    89.530035    13.625817    260.95395    213.08895   -158.50678   -293.90589     199.6307      46.7237      46.7237      46.7237           90           90           90     102002.7    162.55624 
  552000       551500   -10786.089      919.567   -11705.656    4165.6055   -15871.262    93.455217   -127.16563    362.18349    592.08366    242.58842     117.2545    79.080821      46.7237      46.7237      46.7237           90           90           90     102002.7    275.70051 
  553000       552500   -10791.948    910.22286   -11702.171    4168.3569   -15870.528    92.505576     80.90442    137.53413    310.00465   -153.31065   -143.80069     213.9073      46.7237      46.7237      46.7237           90           90           90     102002.7    176.14773 
  554000       553500   -10820.003    906.75128   -11726.754    4151.9471   -15878.701    92.152761    188.28149   -112.81163   -31.030488     72.83335    49.718522   -205.48403      46.7237      46.7237      46.7237           90           90           90     102002.7    14.813125 
  555000       554500   -10845.648    873.89985   -11719.548    4170.7469   -15890.295    88.814083    351.98347   -8.3910881    187.91626    47.801151   -157.65625   -66.007321      46.7237      46.7237      46.7237           90           90           90     102002.7    177.16955 
[...]
  936000       935500   -10818.204    894.20632   -11712.411     4143.619    -15856.03    90.877821    306.35215    581.56538    669.99436    63.952067   -176.30567   -80.854002      46.7237      46.7237      46.7237           90           90           90     102002.7    519.30396 
  937000       936500   -10813.555    890.07898   -11703.634    4167.3597   -15870.994    90.458362    491.41908     714.1498    216.13779   -10.181535    158.46367    12.395726      46.7237      46.7237      46.7237           90           90           90     102002.7    473.90222 
  938000       937500   -10834.546    897.86113   -11732.407    4154.0788   -15886.486    91.249259    369.42478    488.46418    559.56289    153.36409    53.352513   -133.61044      46.7237      46.7237      46.7237           90           90           90     102002.7    472.48395 
  939000       938500   -10829.247    883.48685   -11712.734    4155.3774   -15868.111    89.788406    338.25429    294.84345    388.27187    -121.0093    166.81101    -45.89206      46.7237      46.7237      46.7237           90           90           90     102002.7    340.45654 
  940000       939500   -10815.728    897.23631   -11712.964    4154.5145   -15867.479    91.185758    318.25649    352.31076   -80.007091    31.300764    -159.7002   -131.46095      46.7237      46.7237      46.7237           90           90           90     102002.7    196.85339 
  941000       940500   -10820.793    893.69419   -11714.487     4155.379   -15869.866    90.825775    1144.2891    583.11753    730.24086   -94.565877   -82.278652   -117.54249      46.7237      46.7237      46.7237           90           90           90     102002.7    819.21582 
  942000       941500    -10795.43    887.80705   -11683.237    4150.7271   -15833.964    90.227466    294.92284    758.01198    440.61138    53.606854    109.52928    135.23627      46.7237      46.7237      46.7237           90           90           90     102002.7    497.84873 
  943000       942500    -10793.92    908.14582   -11702.065    4168.4051    -15870.47    92.294488     678.1841    579.77233    110.58091   -153.50514   -61.617165    21.255294      46.7237      46.7237      46.7237           90           90           90     102002.7    456.17911 
  944000       943500   -10833.548    899.35708   -11732.906    4139.3712   -15872.277    91.401291    635.15538    135.88229    629.28428    88.698967   -300.84905    62.351685      46.7237      46.7237      46.7237           90           90           90     102002.7    466.77398 
  945000       944500    -10823.57    890.49271   -11714.063    4155.5922   -15869.655    90.500409    571.10112    208.19967    353.84256    25.981185   -33.727608    -337.1407      46.7237      46.7237      46.7237           90           90           90     102002.7    377.71445 
  946000       945500    -10818.72    888.75779   -11707.477    4165.7649   -15873.242     90.32409    296.46717    541.65101    486.55221   -137.50892   -165.50347    58.976428      46.7237      46.7237      46.7237           90           90           90     102002.7     441.5568 
  947000       946500   -10827.896    884.16617   -11712.062    4160.5049   -15872.567    89.857446    285.96485    53.101751    425.41465   -79.080427   -12.044661   -176.36778      46.7237      46.7237      46.7237           90           90           90     102002.7    254.82708 
  948000       947500   -10842.453    875.91407   -11718.367    4164.0706   -15882.437    89.018788    140.77085    200.15997    580.92414    96.354557   -227.62547   -182.36203      46.7237      46.7237      46.7237           90           90           90     102002.7    307.28498 
  949000       948500   -10796.101    915.06128   -11711.162    4137.7164   -15848.878    92.997303    178.90298    565.13867    260.13765   -156.49174    134.49588    -37.89574      46.7237      46.7237      46.7237           90           90           90     102002.7    334.72643 
  950000       949500   -10798.171    902.64453   -11700.816    4163.7985   -15864.614    91.735394    581.70003    219.60464    654.70041      30.5023   -274.26128   -134.24414      46.7237      46.7237      46.7237           90           90           90     102002.7    485.33503 
  951000       950500   -10785.836    906.39618   -11692.233    4149.1235   -15841.356    92.116673    741.13892     280.2082    640.47938   -218.46578   -220.05818    149.90992      46.7237      46.7237      46.7237           90           90           90     102002.7    553.94217 
  952000       951500   -10817.928    890.69689   -11708.625    4149.1952    -15857.82     90.52116    302.05822    67.851076    628.42046   -75.066693   -214.36004    -46.06276      46.7237      46.7237      46.7237           90           90           90     102002.7    332.77659 
  953000       952500    -10788.87    897.29636   -11686.167    4144.0025   -15830.169    91.191861    1005.5328    535.12876    631.98293   -88.999517    92.346477    10.107071      46.7237      46.7237      46.7237           90           90           90     102002.7    724.21482 
  954000       953500    -10812.69    908.85636   -11721.546    4145.1249   -15866.671    92.366699    290.28343    168.98859    71.337814   -89.877688   -154.70896   -98.895022      46.7237      46.7237      46.7237           90           90           90     102002.7    176.86994 
  955000       954500   -10790.657    901.51005   -11692.167    4161.8921   -15854.059    91.620096     576.3218     561.5321    535.44845    120.42709    2.6004185     5.234989      46.7237      46.7237      46.7237           90           90           90     102002.7    557.76745 
  956000       955500   -10805.884    896.75729   -11702.642    4150.5935   -15853.235    91.137076    482.38302    463.62911     318.1723    73.432957   -114.68022    196.71916      46.7237      46.7237      46.7237           90           90           90     102002.7    421.39481 
  957000       956500   -10792.277     905.1583   -11697.436    4174.3729   -15871.809    91.990867    436.41521    577.66815    309.23509    -5.052663   -52.642537   0.10791011      46.7237      46.7237      46.7237           90           90           90     102002.7    441.10615 
  958000       957500    -10820.37    875.27854   -11695.648    4152.0051   -15847.653    88.954199    720.75923    491.61262    839.45494     44.50383    80.853179   -118.50059      46.7237      46.7237      46.7237           90           90           90     102002.7    683.94226 
  959000       958500   -10822.887    895.54246   -11718.429    4160.1235   -15878.553    91.013613    416.13157    341.31953    386.40407    43.908317   -87.061464   -164.54655      46.7237      46.7237      46.7237           90           90           90     102002.7    381.28505 
  960000       959500   -10828.941    879.47969   -11708.421    4172.0696    -15880.49     89.38116    453.53263    276.22781    178.24206    5.7944472   -193.61194   -20.706118      46.7237      46.7237      46.7237           90           90           90     102002.7     302.6675 
  961000       960500   -10808.811    891.75617   -11700.567     4167.861   -15868.428    90.628814    211.15765    441.60873    81.010813   -16.121623    -134.0705   -122.70741      46.7237      46.7237      46.7237           90           90           90     102002.7     244.5924 
  962000       961500   -10832.047    886.70762   -11718.755    4156.6836   -15875.438    90.115732    228.78799   -385.05176    450.16859   -244.14409   -55.119572   -54.198925      46.7237      46.7237      46.7237           90           90           90     102002.7    97.968273 
  963000       962500   -10793.773     893.4064   -11687.179    4163.0173   -15850.196    90.796527    537.49533    107.31954    52.416566    305.28678   -14.193599    9.2947533      46.7237      46.7237      46.7237           90           90           90     102002.7    232.41048 
  964000       963500   -10815.717    907.38031   -11723.098    4157.3725    -15880.47    92.216689    475.25368    624.36718    449.63597    95.669429   -50.506293    7.4930795      46.7237      46.7237      46.7237           90           90           90     102002.7    516.41894 
  965000       964500   -10834.354    886.67508   -11721.029    4147.1228   -15868.151    90.112425    574.08775     296.7118    468.24332   -5.4396312   -16.968798   -149.85768      46.7237      46.7237      46.7237           90           90           90     102002.7    446.34762 
  966000       965500   -10831.025    884.79075   -11715.816    4130.6553   -15846.472    89.920922     219.3228    206.66047    114.27106    90.908447    133.20922   -22.257133      46.7237      46.7237      46.7237           90           90           90     102002.7    180.08478 
  967000       966500   -10792.256    909.11306   -11701.369    4163.3081   -15864.677    92.392787    175.30375    478.34516    265.47475    276.08728    -6.225743   -128.95483      46.7237      46.7237      46.7237           90           90           90     102002.7    306.37456 
  968000       967500   -10831.434    893.78663   -11725.221    4161.6958   -15886.917    90.835168    376.60543     174.2376    370.62274   -134.89782    126.52512    99.246644      46.7237      46.7237      46.7237           90           90           90     102002.7    307.15526 
  969000       968500   -10802.459    901.00844   -11703.467    4161.4845   -15864.952    91.569118    484.83099    138.55008    212.82153    97.220008   -357.31321   -201.88558      46.7237      46.7237      46.7237           90           90           90     102002.7     278.7342 
  970000       969500    -10825.63    898.73069   -11724.361    4131.6709   -15856.032    91.337632    279.80993    273.78096    136.06351   -36.760184    12.472898   -274.22575      46.7237      46.7237      46.7237           90           90           90     102002.7     229.8848 
  971000       970500   -10838.242    876.40072   -11714.643    4149.1021   -15863.745    89.068246    574.94415    536.26418     524.8085   -122.03449   -236.68628    5.2479209      46.7237      46.7237      46.7237           90           90           90     102002.7    545.33894 
  972000       971500    -10846.76    888.64528   -11735.406    4130.4371   -15865.843    90.312656    583.37856    727.89145    545.93554    121.82108   -213.57515    131.57848      46.7237      46.7237      46.7237           90           90           90     102002.7    619.06852 
  973000       972500   -10820.732     905.6708   -11726.403    4150.6889   -15877.092    92.042952    407.22972    311.67277    373.13935    53.880559    196.30654    144.93373      46.7237      46.7237      46.7237           90           90           90     102002.7    364.01395 
  974000       973500   -10821.501    885.63319   -11707.134    4153.6603   -15860.795    90.006538     235.2276    481.54508    396.53222   -12.289962   -24.564438   -20.204191      46.7237      46.7237      46.7237           90           90           90     102002.7    371.10163 
  975000       974500   -10820.329    915.49238   -11735.821    4153.6926   -15889.514    93.041115    405.46145    335.13324    157.80652     271.2438    61.765085   -27.153156      46.7237      46.7237      46.7237           90           90           90     102002.7    299.46707 
  976000       975500   -10787.011    916.06777   -11703.079    4154.2646   -15857.344    93.099592    276.19475    359.16675    76.504006   -5.4097091    83.226396    8.5397147      46.7237      46.7237      46.7237           90           90           90     102002.7     237.2885 
  977000       976500   -10821.161    901.23375   -11722.395    4163.8148    -15886.21    91.592016    54.945064    303.10275    62.346655   -51.355999   -86.656041   -173.73101      46.7237      46.7237      46.7237           90           90           90     102002.7    140.13149 
  978000       977500    -10838.14    876.96917   -11715.109    4165.7388   -15880.848    89.126017       224.57    71.551274    -111.2753   -57.634602    111.01668   -80.429125      46.7237      46.7237      46.7237           90           90           90     102002.7    61.615323 
  979000       978500   -10808.808    907.85892   -11716.667    4138.6499   -15855.317     92.26533    346.35817      94.5314    555.18858   -194.88437    -62.17662    1.4519188      46.7237      46.7237      46.7237           90           90           90     102002.7    332.02605 
  980000       979500   -10792.805    905.61424   -11698.419     4154.008   -15852.427    92.037204     334.9732    129.11174    234.81501    104.39252     252.6011   -174.31187      46.7237      46.7237      46.7237           90           90           90     102002.7    232.96665 
  981000       980500   -10812.205    905.03085   -11717.236     4153.236   -15870.472    91.977914    531.35006    775.31826    182.98524   -126.40661     157.7105   -82.049396      46.7237      46.7237      46.7237           90           90           90     102002.7    496.55119 
  982000       981500   -10821.739    897.57156    -11719.31    4136.9611   -15856.271     91.21983    946.44825    140.79305    150.98815   -12.863027   -107.09743    6.0296165      46.7237      46.7237      46.7237           90           90           90     102002.7    412.74315 
  983000       982500    -10807.45    904.36934   -11711.819    4157.9263   -15869.745    91.910685    499.37517    384.65002    235.40508    26.888388   -124.89415    60.559234      46.7237      46.7237      46.7237           90           90           90     102002.7    373.14342 
  984000       983500   -10827.378    895.05197    -11722.43    4155.4665   -15877.896    90.963765    262.97762    438.85764    210.74532   -178.81478    -246.7939   -384.71039      46.7237      46.7237      46.7237           90           90           90     102002.7    304.19353 
  985000       984500   -10818.506    890.20515   -11708.711     4161.632   -15870.343    90.471184    246.44053     329.0718    463.82827    -127.2615    9.5533384   -36.838853      46.7237      46.7237      46.7237           90           90           90     102002.7    346.44687 
  986000       985500   -10790.579    906.67112    -11697.25    4157.5636   -15854.813    92.144614    273.13797     643.2492   -395.00002   -27.997041    48.525015   -122.28172      46.7237      46.7237      46.7237           90           90           90     102002.7    173.79572 
  987000       986500   -10846.859    867.33952   -11714.199    4166.1816   -15880.381     88.14736    167.04048    517.83992     329.8135   -65.346947   -241.30729    11.832152      46.7237      46.7237      46.7237           90           90           90     102002.7     338.2313 
  988000       987500   -10819.642    900.13922   -11719.781    4159.7029   -15879.484     91.48078    487.83239    462.66893   -68.880274    29.610371   -53.613961   -35.157475      46.7237      46.7237      46.7237           90           90           90     102002.7    293.87368 
  989000       988500   -10776.047    913.40947   -11689.457    4152.8006   -15842.258     92.82943    431.80363    435.96583    227.29389   -100.53579   -65.965327   -28.161827      46.7237      46.7237      46.7237           90           90           90     102002.7    365.02111 
  990000       989500   -10813.087    899.59021   -11712.677    4163.9052   -15876.583    91.424984    466.90248    650.34573    622.76021   -112.60985   -66.253356   -299.76583      46.7237      46.7237      46.7237           90           90           90     102002.7    580.00281 
  991000       990500   -10814.658    895.36012   -11710.018     4167.635   -15877.653    90.995082    457.51494    351.71341    28.329396     16.67672   -151.03632   -331.80142      46.7237      46.7237      46.7237           90           90           90     102002.7    279.18592 
  992000       991500   -10797.472    903.17855   -11700.651     4159.496   -15860.147    91.789666    137.39189    360.32719    419.57531   -4.0468597   -89.518195   -123.57079      46.7237      46.7237      46.7237           90           90           90     102002.7     305.7648 
  993000       992500   -10789.194    883.81654   -11673.011    4187.7402   -15860.751    89.821913    402.96451    431.98401    232.90877   -71.480623    209.44943    101.24027      46.7237      46.7237      46.7237           90           90           90     102002.7    355.95243 
  994000       993500     -10838.1    883.68245   -11721.783    4151.2668   -15873.049    89.808285    439.91387   -78.233591   -68.296108   -201.27415   -189.17139   -39.478678      46.7237      46.7237      46.7237           90           90           90     102002.7    97.794723 
  995000       994500    -10811.67     895.1999    -11706.87    4159.7982   -15866.668    90.978799     406.7754    111.32603    314.00299   -246.12853   -198.43057    61.604067      46.7237      46.7237      46.7237           90           90           90     102002.7    277.36814 
  996000       995500   -10808.583    902.47872   -11711.062    4154.8822   -15865.944    91.718542    463.17599    175.39899    135.32688    49.100963    73.262042   -13.903975      46.7237      46.7237      46.7237           90           90           90     102002.7    257.96729 
  997000       996500   -10816.763    876.88375   -11693.647    4171.0133    -15864.66    89.117336    378.37126    150.25161   -37.462632   -42.641058   -134.55068    95.854965      46.7237      46.7237      46.7237           90           90           90     102002.7    163.72008 
  998000       997500   -10831.252    888.07831    -11719.33    4161.2754   -15880.605    90.255035    680.59914    354.45188   -24.268385    114.14332    111.79934   -58.438422      46.7237      46.7237      46.7237           90           90           90     102002.7    336.92754 
  999000       998500   -10812.619    890.86539   -11703.484    4146.3005   -15849.784    90.538285     294.0939    258.77765    117.86616    50.417977   -147.59635    24.434092      46.7237      46.7237      46.7237           90           90           90     102002.7    223.57924 
 1000000       999500   -10819.923    889.28908   -11709.212    4165.4082    -15874.62    90.378084    355.50924    145.66762      106.485    87.502944     124.5225    220.98484      46.7237      46.7237      46.7237           90           90           90     102002.7    202.55396 
 1000500      1000000    -10843.84     894.5369   -11738.377    4155.0137   -15893.391    90.911418    101.40313   -33.236469    242.29494    126.09732   -71.080747    74.937102      46.7237      46.7237      46.7237           90           90           90     102002.7     103.4872 
Loop time of 2355.18 on 16 procs for 500000 steps with 3302 atoms

Performance: 18.343 ns/day, 1.308 hours/ns, 212.298 timesteps/s
99.8% CPU use with 16 MPI tasks x no OpenMP threads

MPI task timing breakdown:
Section |  min time  |  avg time  |  max time  |%varavg| %total
---------------------------------------------------------------
Pair    | 1069.1     | 1533.6     | 1889.8     | 598.1 | 65.12
Bond    | 105.55     | 184.19     | 231.3      | 279.6 |  7.82
Neigh   | 15.071     | 15.128     | 15.234     |   1.5 |  0.64
Comm    | 201.96     | 589.91     | 1111.8     |1079.6 | 25.05
Output  | 0.13574    | 0.1425     | 0.14328    |   0.5 |  0.01
Modify  | 24.034     | 25.236     | 26.906     |  15.6 |  1.07
Other   |            | 6.947      |            |       |  0.29

Nlocal:    206.375 ave 248 max 162 min
Histogram: 2 1 2 0 1 3 3 2 0 2
Nghost:    4152.5 ave 4194 max 4117 min
Histogram: 2 2 2 2 1 2 0 2 2 1
Neighs:    11477.3 ave 15682 max 6129 min
Histogram: 2 1 1 1 2 2 0 1 3 3

Total # of neighbors = 183637
Ave neighs/atom = 55.6139
Ave special neighs/atom = 3.48879
Neighbor list builds = 4097
Dangerous builds = 0
Total wall time: 1:11:19
