LAMMPS (30 Mar 2018)
Reading data file ...
  orthogonal box = (0 0 0) to (46.7237 46.7237 46.7237)
  2 by 2 by 4 MPI processor grid
  reading atoms ...
  3296 atoms
  scanning bonds ...
  5 = max bonds/atom
  scanning angles ...
  10 = max angles/atom
  scanning dihedrals ...
  32 = max dihedrals/atom
  scanning impropers ...
  3 = max impropers/atom
  reading bonds ...
  2064 bonds
  reading angles ...
  3696 angles
  reading dihedrals ...
  6240 dihedrals
  reading impropers ...
  1008 impropers
Finding 1-2 1-3 1-4 neighbors ...
  special bond factors lj:   0          0          0         
  special bond factors coul: 0          0          0         
  5 = max # of 1-2 neighbors
  8 = max # of 1-3 neighbors
  20 = max # of 1-4 neighbors
  19 = max # of special neighbors
Finding 1-2 1-3 1-4 neighbors ...
  special bond factors lj:   0          0          1         
  special bond factors coul: 1          1          1         
  5 = max # of 1-2 neighbors
  8 = max # of 1-3 neighbors
  19 = max # of special neighbors
WARNING: Using 'neigh_modify every 1 delay 0 check yes' setting during minimization (../min.cpp:168)
Neighbor list info ...
  update every 1 steps, delay 0 steps, check yes
  max neighbors/atom: 2000, page size: 100000
  master list distance cutoff = 16
  ghost atom cutoff = 16
  binsize = 8, bins = 6 6 6
  3 neighbor lists, perpetual/occasional/extra = 3 0 0
  (1) pair buck6d/coul/gauss/dsf, perpetual, skip from (3)
      attributes: half, newton on
      pair build: skip
      stencil: none
      bin: none
  (2) pair lj/cut, perpetual, skip from (3)
      attributes: half, newton on
      pair build: skip
      stencil: none
      bin: none
  (3) neighbor class addition, perpetual
      attributes: half, newton on
      pair build: half/bin/newton
      stencil: half/bin/3d/newton
      bin: standard
Setting up cg style minimization ...
  Unit style    : real
  Current step  : 0
WARNING: Inconsistent image flags (../domain.cpp:786)
Per MPI rank memory allocation (min/avg/max) = 23.02 | 23.48 | 23.92 Mbytes
Step Temp E_pair E_mol TotEng Press 
       0            0   -15915.827    6482.8914   -9432.9355    6422.1772 
     500            0   -16302.186      3798.48   -12503.706   -1576.2915 
Loop time of 4.72753 on 16 procs for 500 steps with 3296 atoms

99.8% CPU use with 16 MPI tasks x no OpenMP threads

Minimization stats:
  Stopping criterion = max force evaluations
  Energy initial, next-to-last, final = 
        -9432.93549596     -12503.6753583     -12503.7061209
  Force two-norm initial, final = 2574.95 8.14145
  Force max component initial, final = 152.085 0.884387
  Final line search alpha, max atom move = 0.0102555 0.0090698
  Iterations, force evaluations = 500 1000

MPI task timing breakdown:
Section |  min time  |  avg time  |  max time  |%varavg| %total
---------------------------------------------------------------
Pair    | 2.3437     | 3.0999     | 3.9152     |  22.6 | 65.57
Bond    | 0.28824    | 0.3599     | 0.44345    |   7.0 |  7.61
Neigh   | 0.028968   | 0.029129   | 0.029289   |   0.1 |  0.62
Comm    | 0.2978     | 1.1934     | 1.9584     |  38.4 | 25.24
Output  | 0          | 0          | 0          |   0.0 |  0.00
Modify  | 0          | 0          | 0          |   0.0 |  0.00
Other   |            | 0.04515    |            |       |  0.95

Nlocal:    206 ave 234 max 191 min
Histogram: 4 1 3 3 0 3 0 0 1 1
Nghost:    4121.81 ave 4138 max 4101 min
Histogram: 1 0 1 2 3 2 2 2 0 3
Neighs:    11502.7 ave 16210 max 7024 min
Histogram: 3 2 1 1 1 1 2 2 1 2

Total # of neighbors = 184043
Ave neighs/atom = 55.8383
Ave special neighs/atom = 3.49515
Neighbor list builds = 8
Dangerous builds = 0
Neighbor list info ...
  update every 1 steps, delay 10 steps, check yes
  max neighbors/atom: 2000, page size: 100000
  master list distance cutoff = 16
  ghost atom cutoff = 16
  binsize = 8, bins = 6 6 6
  3 neighbor lists, perpetual/occasional/extra = 3 0 0
  (1) pair buck6d/coul/gauss/dsf, perpetual, skip from (3)
      attributes: half, newton on
      pair build: skip
      stencil: none
      bin: none
  (2) pair lj/cut, perpetual, skip from (3)
      attributes: half, newton on
      pair build: skip
      stencil: none
      bin: none
  (3) neighbor class addition, perpetual
      attributes: half, newton on
      pair build: half/bin/newton
      stencil: half/bin/3d/newton
      bin: standard
Setting up Verlet run ...
  Unit style    : real
  Current step  : 500
  Time step     : 1
WARNING: Inconsistent image flags (../domain.cpp:786)
Per MPI rank memory allocation (min/avg/max) = 22.67 | 22.74 | 22.8 Mbytes
Step Temp PotEng TotEng Press Volume Lx Ly Lz 
     500           91   -12503.706   -11609.925   -1175.7457     102002.7      46.7237      46.7237      46.7237 
    1000    76.027341   -11757.915   -11011.192   -168.02692     102002.7      46.7237      46.7237      46.7237 
    2000    91.767518   -11615.242   -10713.923   -169.44742     102002.7      46.7237      46.7237      46.7237 
    3000    93.675055   -11662.581   -10742.526    484.57999     102002.7      46.7237      46.7237      46.7237 
    4000    91.823528   -11650.216   -10748.346    556.70711     102002.7      46.7237      46.7237      46.7237 
    5000    89.071247   -11644.232   -10769.394    323.97278     102002.7      46.7237      46.7237      46.7237 
    6000    91.263392   -11640.946   -10744.578    401.19187     102002.7      46.7237      46.7237      46.7237 
    7000    90.787918   -11647.796   -10756.098     416.5119     102002.7      46.7237      46.7237      46.7237 
    8000     90.58616   -11663.106    -10773.39   -64.847104     102002.7      46.7237      46.7237      46.7237 
    9000    89.327054    -11655.39   -10778.041    127.69412     102002.7      46.7237      46.7237      46.7237 
   10000    89.540756   -11643.987   -10764.538   -166.42124     102002.7      46.7237      46.7237      46.7237 
   11000    91.398271   -11642.731   -10745.038   -134.77411     102002.7      46.7237      46.7237      46.7237 
   12000    92.788616   -11641.144   -10729.795    453.18332     102002.7      46.7237      46.7237      46.7237 
   13000    90.548399   -11649.063   -10759.718    314.73457     102002.7      46.7237      46.7237      46.7237 
   14000    91.114091   -11669.378   -10774.477    258.48049     102002.7      46.7237      46.7237      46.7237 
   15000    91.856184    -11634.51    -10732.32    454.89059     102002.7      46.7237      46.7237      46.7237 
   16000    90.098291    -11627.89   -10742.966    313.40723     102002.7      46.7237      46.7237      46.7237 
   17000    90.758773   -11637.804   -10746.393    398.77353     102002.7      46.7237      46.7237      46.7237 
   18000    90.689251   -11625.193   -10734.464    380.92524     102002.7      46.7237      46.7237      46.7237 
   19000    93.303381   -11678.055    -10761.65     236.0339     102002.7      46.7237      46.7237      46.7237 
   20000    90.393159   -11640.561   -10752.741    395.29865     102002.7      46.7237      46.7237      46.7237 
   21000    91.368533   -11657.778   -10760.377    634.69522     102002.7      46.7237      46.7237      46.7237 
   22000    91.622868   -11644.453   -10744.555    274.20816     102002.7      46.7237      46.7237      46.7237 
   23000      91.2807   -11648.886   -10752.348    421.69314     102002.7      46.7237      46.7237      46.7237 
   24000    88.831158   -11641.959   -10769.479    331.80842     102002.7      46.7237      46.7237      46.7237 
   25000     90.94357   -11632.095   -10738.868     403.2538     102002.7      46.7237      46.7237      46.7237 
   26000    89.838462   -11637.008   -10754.636    576.07324     102002.7      46.7237      46.7237      46.7237 
   27000    90.617484   -11652.493   -10762.469    423.06637     102002.7      46.7237      46.7237      46.7237 
   28000    90.197887   -11662.945   -10777.043    193.36499     102002.7      46.7237      46.7237      46.7237 
   29000    90.245053   -11634.971   -10748.605    323.58603     102002.7      46.7237      46.7237      46.7237 
   30000    89.182866   -11665.132   -10789.199    160.53214     102002.7      46.7237      46.7237      46.7237 
   31000     89.81905   -11655.754   -10773.572    616.10628     102002.7      46.7237      46.7237      46.7237 
   32000    91.214168   -11664.374    -10768.49    560.70604     102002.7      46.7237      46.7237      46.7237 
   33000    89.331982   -11639.637   -10762.239    382.70877     102002.7      46.7237      46.7237      46.7237 
   34000    90.430574   -11641.559   -10753.371    481.09015     102002.7      46.7237      46.7237      46.7237 
   35000    91.904813   -11644.136   -10741.468    599.03118     102002.7      46.7237      46.7237      46.7237 
   36000    90.436656   -11663.142   -10774.894    349.96065     102002.7      46.7237      46.7237      46.7237 
   37000     89.69589   -11651.212    -10770.24    559.53191     102002.7      46.7237      46.7237      46.7237 
   38000    90.135351   -11648.428    -10763.14    499.84285     102002.7      46.7237      46.7237      46.7237 
   39000    91.005463   -11654.803   -10760.969    260.88363     102002.7      46.7237      46.7237      46.7237 
   40000     91.85679   -11660.639   -10758.443    432.80843     102002.7      46.7237      46.7237      46.7237 
   41000    90.444392   -11678.556   -10790.233     230.6895     102002.7      46.7237      46.7237      46.7237 
   42000    92.032106    -11644.58   -10740.662    296.76875     102002.7      46.7237      46.7237      46.7237 
   43000    90.801913   -11660.762   -10768.927    184.96724     102002.7      46.7237      46.7237      46.7237 
   44000    88.287693   -11660.097   -10792.956     454.8423     102002.7      46.7237      46.7237      46.7237 
   45000    91.646983   -11630.108   -10729.972     460.3531     102002.7      46.7237      46.7237      46.7237 
   46000    88.402222   -11646.969   -10778.703    606.98546     102002.7      46.7237      46.7237      46.7237 
   47000    91.270067    -11661.22   -10764.786     565.8734     102002.7      46.7237      46.7237      46.7237 
   48000    91.134336   -11673.714   -10778.614    598.66154     102002.7      46.7237      46.7237      46.7237 
   49000    91.068199   -11649.193   -10754.742    270.21015     102002.7      46.7237      46.7237      46.7237 
   50000    91.129864   -11652.353   -10757.296    248.21337     102002.7      46.7237      46.7237      46.7237 
   51000    90.298467   -11643.605   -10756.714    375.87256     102002.7      46.7237      46.7237      46.7237 
   52000    90.221018     -11678.1    -10791.97    425.16029     102002.7      46.7237      46.7237      46.7237 
   53000     92.25261   -11660.816   -10754.732     385.9061     102002.7      46.7237      46.7237      46.7237 
   54000    94.219183   -11627.207   -10701.808    319.30118     102002.7      46.7237      46.7237      46.7237 
   55000    89.026601   -11645.526   -10771.127    319.15105     102002.7      46.7237      46.7237      46.7237 
   56000    92.448925   -11638.437   -10730.425    313.31096     102002.7      46.7237      46.7237      46.7237 
   57000    92.432795   -11671.606   -10763.752     525.1642     102002.7      46.7237      46.7237      46.7237 
   58000    90.320794   -11648.665   -10761.555    538.60149     102002.7      46.7237      46.7237      46.7237 
   59000    91.096418   -11669.538    -10774.81    613.26063     102002.7      46.7237      46.7237      46.7237 
   60000     90.45204   -11655.562   -10767.163     377.0227     102002.7      46.7237      46.7237      46.7237 
   61000    91.715614   -11645.789   -10744.979    455.91019     102002.7      46.7237      46.7237      46.7237 
   62000    90.897425   -11672.874   -10780.101     465.7982     102002.7      46.7237      46.7237      46.7237 
   63000    89.927415   -11679.778   -10796.532    484.86285     102002.7      46.7237      46.7237      46.7237 
   64000    92.051943   -11668.503    -10764.39    391.49125     102002.7      46.7237      46.7237      46.7237 
   65000    87.796815   -11672.445   -10810.125    258.19962     102002.7      46.7237      46.7237      46.7237 
   66000    92.483301   -11660.946   -10752.596    220.74423     102002.7      46.7237      46.7237      46.7237 
   67000    90.787574   -11657.213   -10765.518    485.48201     102002.7      46.7237      46.7237      46.7237 
   68000    89.877894   -11671.544   -10788.784    300.11331     102002.7      46.7237      46.7237      46.7237 
   69000    90.612298   -11664.284   -10774.311    119.55752     102002.7      46.7237      46.7237      46.7237 
   70000    90.427957   -11675.871   -10787.708    362.07982     102002.7      46.7237      46.7237      46.7237 
   71000    91.676764   -11667.602   -10767.174    136.17775     102002.7      46.7237      46.7237      46.7237 
   72000    92.554019    -11663.07   -10754.026     148.0669     102002.7      46.7237      46.7237      46.7237 
   73000    92.943933   -11676.489   -10763.615    385.63059     102002.7      46.7237      46.7237      46.7237 
   74000    91.014382   -11680.471   -10786.548    165.05201     102002.7      46.7237      46.7237      46.7237 
   75000     90.56057   -11688.909   -10799.444    152.25598     102002.7      46.7237      46.7237      46.7237 
   76000    89.949139   -11682.481   -10799.022    227.29683     102002.7      46.7237      46.7237      46.7237 
   77000    91.087063   -11696.631   -10801.995    178.82044     102002.7      46.7237      46.7237      46.7237 
   78000    91.154893   -11661.661   -10766.358    405.88947     102002.7      46.7237      46.7237      46.7237 
   79000    90.296086   -11663.373   -10776.505    531.53115     102002.7      46.7237      46.7237      46.7237 
   80000    91.779282   -11654.383   -10752.948    352.89684     102002.7      46.7237      46.7237      46.7237 
   81000    91.851453   -11685.768   -10783.624    219.74744     102002.7      46.7237      46.7237      46.7237 
   82000    91.023047    -11657.37   -10763.363    416.35814     102002.7      46.7237      46.7237      46.7237 
   83000    91.448689   -11684.675   -10786.488    365.79232     102002.7      46.7237      46.7237      46.7237 
   84000    89.965651   -11664.668   -10781.046    85.070753     102002.7      46.7237      46.7237      46.7237 
   85000      92.7335   -11676.264   -10765.457    229.19528     102002.7      46.7237      46.7237      46.7237 
   86000    91.191909   -11679.876    -10784.21    104.70046     102002.7      46.7237      46.7237      46.7237 
   87000    90.368889   -11670.739   -10783.157    15.999147     102002.7      46.7237      46.7237      46.7237 
   88000    89.108965   -11671.354   -10796.147    413.26768     102002.7      46.7237      46.7237      46.7237 
   89000    91.251222   -11664.155   -10767.906    166.48877     102002.7      46.7237      46.7237      46.7237 
   90000    91.297034   -11668.836   -10772.137     432.1409     102002.7      46.7237      46.7237      46.7237 
   91000    89.297625   -11685.908   -10808.847    507.54093     102002.7      46.7237      46.7237      46.7237 
   92000    91.834481   -11672.961   -10770.984    54.356919     102002.7      46.7237      46.7237      46.7237 
   93000    89.994856    -11698.75   -10814.841    197.45035     102002.7      46.7237      46.7237      46.7237 
   94000    90.641107   -11690.503   -10800.247    233.68646     102002.7      46.7237      46.7237      46.7237 
   95000     90.28092   -11678.121   -10791.403    481.43665     102002.7      46.7237      46.7237      46.7237 
   96000    88.924018   -11689.029   -10815.638    397.98781     102002.7      46.7237      46.7237      46.7237 
   97000    90.109349   -11691.923    -10806.89    387.87786     102002.7      46.7237      46.7237      46.7237 
   98000    91.976526    -11670.97   -10767.597    372.19361     102002.7      46.7237      46.7237      46.7237 
   99000    88.514882   -11672.376   -10803.003     471.6448     102002.7      46.7237      46.7237      46.7237 
  100000    91.238459   -11683.706   -10787.583    378.64049     102002.7      46.7237      46.7237      46.7237 
  101000    88.814692   -11668.747   -10796.429    213.11489     102002.7      46.7237      46.7237      46.7237 
  102000    90.795238   -11674.762   -10782.992    368.93313     102002.7      46.7237      46.7237      46.7237 
  103000    91.635371   -11706.856   -10806.834    451.64903     102002.7      46.7237      46.7237      46.7237 
  104000    90.884424   -11682.257   -10789.612    445.23054     102002.7      46.7237      46.7237      46.7237 
  105000    89.949266   -11691.854   -10808.393    458.49419     102002.7      46.7237      46.7237      46.7237 
  106000    91.876198    -11663.29   -10760.903    529.58345     102002.7      46.7237      46.7237      46.7237 
  107000    90.584783   -11673.883    -10784.18    536.08597     102002.7      46.7237      46.7237      46.7237 
  108000    94.324206   -11681.956   -10755.526     106.9999     102002.7      46.7237      46.7237      46.7237 
  109000     89.64392   -11675.451   -10794.989    130.45161     102002.7      46.7237      46.7237      46.7237 
  110000    90.458778   -11690.971   -10802.506    151.81498     102002.7      46.7237      46.7237      46.7237 
  111000    91.678353   -11671.741   -10771.297    438.04543     102002.7      46.7237      46.7237      46.7237 
  112000    91.818936   -11678.744   -10776.919    492.29584     102002.7      46.7237      46.7237      46.7237 
  113000    91.109411   -11696.967   -10802.111    240.06572     102002.7      46.7237      46.7237      46.7237 
  114000    92.829054    -11673.61   -10761.864    546.67819     102002.7      46.7237      46.7237      46.7237 
  115000    93.627393   -11683.073   -10763.486    457.97903     102002.7      46.7237      46.7237      46.7237 
  116000     92.36768   -11679.756   -10772.542     360.5333     102002.7      46.7237      46.7237      46.7237 
  117000     91.15745   -11693.429   -10798.101    497.74357     102002.7      46.7237      46.7237      46.7237 
  118000    92.513712   -11686.896   -10778.248    498.77921     102002.7      46.7237      46.7237      46.7237 
  119000    89.657728   -11673.703   -10793.106    313.70145     102002.7      46.7237      46.7237      46.7237 
  120000    90.700338   -11684.995   -10794.157    412.61347     102002.7      46.7237      46.7237      46.7237 
  121000     91.20392   -11677.728   -10781.944    423.38742     102002.7      46.7237      46.7237      46.7237 
  122000      91.1761   -11667.469   -10771.959    308.16285     102002.7      46.7237      46.7237      46.7237 
  123000    91.243059   -11679.122   -10782.953    327.61452     102002.7      46.7237      46.7237      46.7237 
  124000    90.053108   -11691.552   -10807.072    380.80801     102002.7      46.7237      46.7237      46.7237 
  125000    90.963812   -11694.189   -10800.763      417.345     102002.7      46.7237      46.7237      46.7237 
  126000    91.503372   -11686.509   -10787.784    484.30397     102002.7      46.7237      46.7237      46.7237 
  127000    89.274896    -11693.56   -10816.722    160.77126     102002.7      46.7237      46.7237      46.7237 
  128000    90.915035   -11682.148   -10789.202    274.28906     102002.7      46.7237      46.7237      46.7237 
  129000    90.877315   -11700.522   -10807.946    476.49891     102002.7      46.7237      46.7237      46.7237 
  130000    90.645561   -11671.262   -10780.962    260.86362     102002.7      46.7237      46.7237      46.7237 
  131000    91.884427   -11692.469   -10790.001    246.09647     102002.7      46.7237      46.7237      46.7237 
  132000    89.751057   -11684.094    -10802.58     403.3012     102002.7      46.7237      46.7237      46.7237 
  133000    92.129566   -11686.988   -10782.113    572.47455     102002.7      46.7237      46.7237      46.7237 
  134000     92.75354   -11669.267   -10758.263    216.45224     102002.7      46.7237      46.7237      46.7237 
  135000    91.178128   -11688.727   -10793.197    269.94128     102002.7      46.7237      46.7237      46.7237 
  136000     92.27131   -11680.575   -10774.308    308.64049     102002.7      46.7237      46.7237      46.7237 
  137000    89.464238   -11678.739   -10800.041    263.15281     102002.7      46.7237      46.7237      46.7237 
  138000    91.050798    -11690.79    -10796.51    423.22063     102002.7      46.7237      46.7237      46.7237 
  139000    91.600262   -11698.052   -10798.375    383.46083     102002.7      46.7237      46.7237      46.7237 
  140000     92.54547   -11662.002   -10753.042    335.28758     102002.7      46.7237      46.7237      46.7237 
  141000    88.617673    -11683.16   -10812.778    339.09977     102002.7      46.7237      46.7237      46.7237 
  142000    93.042039   -11678.025   -10764.188    365.75176     102002.7      46.7237      46.7237      46.7237 
  143000    91.128187   -11689.272   -10794.232    254.98127     102002.7      46.7237      46.7237      46.7237 
  144000    90.424357   -11662.864   -10774.737    328.29767     102002.7      46.7237      46.7237      46.7237 
  145000    90.485365    -11666.26   -10777.534     381.5123     102002.7      46.7237      46.7237      46.7237 
  146000    89.690849   -11675.024   -10794.101    351.10579     102002.7      46.7237      46.7237      46.7237 
  147000    91.545009   -11659.172   -10760.038    322.38427     102002.7      46.7237      46.7237      46.7237 
  148000    90.289094    -11684.49   -10797.692    563.50431     102002.7      46.7237      46.7237      46.7237 
  149000    92.603554   -11676.628   -10767.097    459.82346     102002.7      46.7237      46.7237      46.7237 
  150000    91.960511   -11680.553   -10777.338    353.45836     102002.7      46.7237      46.7237      46.7237 
  151000    90.308049   -11680.543   -10793.559    234.72295     102002.7      46.7237      46.7237      46.7237 
  152000     89.28948   -11707.557   -10830.577    172.79371     102002.7      46.7237      46.7237      46.7237 
  153000    90.118541   -11694.019   -10808.895    392.59011     102002.7      46.7237      46.7237      46.7237 
  154000    90.489061   -11676.084   -10787.321    247.72955     102002.7      46.7237      46.7237      46.7237 
  155000    91.467819   -11672.224   -10773.848    492.24856     102002.7      46.7237      46.7237      46.7237 
  156000    88.906206   -11683.165   -10809.949    168.26161     102002.7      46.7237      46.7237      46.7237 
  157000    89.222419   -11696.367   -10820.045    226.14067     102002.7      46.7237      46.7237      46.7237 
  158000    90.769786   -11679.492   -10787.972    289.59002     102002.7      46.7237      46.7237      46.7237 
  159000    93.936454    -11695.95   -10773.328    589.20223     102002.7      46.7237      46.7237      46.7237 
  160000    90.983209   -11669.468   -10775.852     430.0029     102002.7      46.7237      46.7237      46.7237 
  161000    93.153134   -11685.978    -10771.05    508.29432     102002.7      46.7237      46.7237      46.7237 
  162000    89.307484     -11667.6   -10790.443    264.19278     102002.7      46.7237      46.7237      46.7237 
  163000    93.687713   -11671.534   -10751.355    246.77412     102002.7      46.7237      46.7237      46.7237 
  164000    92.010749     -11696.7   -10792.991    374.05304     102002.7      46.7237      46.7237      46.7237 
  165000    90.533163   -11696.958   -10807.762    17.064331     102002.7      46.7237      46.7237      46.7237 
  166000    91.552627   -11680.247   -10781.038    298.80373     102002.7      46.7237      46.7237      46.7237 
  167000    89.623467   -11657.671    -10777.41    491.19571     102002.7      46.7237      46.7237      46.7237 
  168000    90.318905   -11702.877   -10815.785    400.82877     102002.7      46.7237      46.7237      46.7237 
  169000    89.011121    -11711.71   -10837.463    336.94371     102002.7      46.7237      46.7237      46.7237 
  170000    88.845705   -11686.445   -10813.823    418.44603     102002.7      46.7237      46.7237      46.7237 
  171000     91.40669    -11689.47   -10791.695    419.50627     102002.7      46.7237      46.7237      46.7237 
  172000    91.375978   -11668.525   -10771.052    572.96892     102002.7      46.7237      46.7237      46.7237 
  173000    93.958242   -11680.916   -10758.079     719.2192     102002.7      46.7237      46.7237      46.7237 
  174000    89.964614   -11691.886   -10808.274    177.05395     102002.7      46.7237      46.7237      46.7237 
  175000    89.925979   -11692.004   -10808.772    159.96796     102002.7      46.7237      46.7237      46.7237 
  176000     91.00171   -11687.427   -10793.629    436.99868     102002.7      46.7237      46.7237      46.7237 
  177000    90.422444   -11681.272   -10793.164    342.49805     102002.7      46.7237      46.7237      46.7237 
  178000    88.998921   -11682.318   -10808.192    403.95532     102002.7      46.7237      46.7237      46.7237 
  179000    92.976104   -11688.834   -10775.644    227.41828     102002.7      46.7237      46.7237      46.7237 
  180000     92.20275   -11676.217   -10770.623    389.13648     102002.7      46.7237      46.7237      46.7237 
  181000    90.859634   -11690.782   -10798.379     200.8212     102002.7      46.7237      46.7237      46.7237 
  182000    91.659936   -11686.251   -10785.989    248.81468     102002.7      46.7237      46.7237      46.7237 
  183000    90.109371   -11683.069   -10798.035    293.24233     102002.7      46.7237      46.7237      46.7237 
  184000     91.07503   -11683.901   -10789.383    244.34689     102002.7      46.7237      46.7237      46.7237 
  185000    91.000208   -11717.956   -10824.173    227.94517     102002.7      46.7237      46.7237      46.7237 
  186000    91.163149   -11684.032   -10788.648    55.992528     102002.7      46.7237      46.7237      46.7237 
  187000    89.942658   -11684.773   -10801.377    318.12157     102002.7      46.7237      46.7237      46.7237 
  188000    87.756485   -11690.919   -10828.995    189.85243     102002.7      46.7237      46.7237      46.7237 
  189000    90.153108   -11689.556   -10804.093    108.85187     102002.7      46.7237      46.7237      46.7237 
  190000    91.159071   -11674.229   -10778.886    127.59159     102002.7      46.7237      46.7237      46.7237 
  191000     93.23951   -11682.251   -10766.474    336.26086     102002.7      46.7237      46.7237      46.7237 
  192000    89.447846   -11682.571   -10804.035    241.81284     102002.7      46.7237      46.7237      46.7237 
  193000    91.083629   -11700.377   -10805.775    141.10984     102002.7      46.7237      46.7237      46.7237 
  194000    88.902655   -11688.619   -10815.438    130.15243     102002.7      46.7237      46.7237      46.7237 
  195000    89.836122   -11688.003   -10805.653     350.8727     102002.7      46.7237      46.7237      46.7237 
  196000    92.585156   -11682.074   -10772.724    340.93431     102002.7      46.7237      46.7237      46.7237 
  197000    92.395074   -11672.569   -10765.086    534.42558     102002.7      46.7237      46.7237      46.7237 
  198000    90.944908   -11699.918   -10806.678    559.90756     102002.7      46.7237      46.7237      46.7237 
  199000    90.108059   -11677.422   -10792.402    340.55299     102002.7      46.7237      46.7237      46.7237 
  200000    90.256467   -11655.482   -10769.004    318.01801     102002.7      46.7237      46.7237      46.7237 
  201000    90.665462   -11707.026   -10816.531    104.48897     102002.7      46.7237      46.7237      46.7237 
  202000    90.434052   -11693.737   -10805.515    508.49475     102002.7      46.7237      46.7237      46.7237 
  203000    91.465007    -11691.36   -10793.011    202.92044     102002.7      46.7237      46.7237      46.7237 
  204000    91.635126   -11680.977   -10780.958    330.87643     102002.7      46.7237      46.7237      46.7237 
  205000    92.928644    -11694.46   -10781.736    111.33087     102002.7      46.7237      46.7237      46.7237 
  206000    91.911506   -11686.954   -10784.221    113.71606     102002.7      46.7237      46.7237      46.7237 
  207000    91.717937   -11703.576   -10802.744    226.92859     102002.7      46.7237      46.7237      46.7237 
  208000    91.688803   -11677.105   -10776.559    490.69411     102002.7      46.7237      46.7237      46.7237 
  209000    93.082216   -11688.784   -10774.552    453.24881     102002.7      46.7237      46.7237      46.7237 
  210000    92.418098   -11697.598   -10789.889    461.50238     102002.7      46.7237      46.7237      46.7237 
  211000    90.156741   -11687.894   -10802.395    372.93927     102002.7      46.7237      46.7237      46.7237 
  212000    91.622287   -11689.272   -10789.379    370.41672     102002.7      46.7237      46.7237      46.7237 
  213000    91.408625   -11702.669   -10804.875    184.72643     102002.7      46.7237      46.7237      46.7237 
  214000    91.936011   -11680.268   -10777.294    614.55914     102002.7      46.7237      46.7237      46.7237 
  215000    88.902524   -11682.541   -10809.361    556.45242     102002.7      46.7237      46.7237      46.7237 
  216000     91.54682   -11688.238   -10789.087    713.02189     102002.7      46.7237      46.7237      46.7237 
  217000    89.996433   -11696.406   -10812.482    404.00556     102002.7      46.7237      46.7237      46.7237 
  218000    90.782635   -11684.493   -10792.847    15.338753     102002.7      46.7237      46.7237      46.7237 
  219000    91.455544   -11711.631   -10813.375    409.13922     102002.7      46.7237      46.7237      46.7237 
  220000     90.42474   -11675.764   -10787.633    583.63415     102002.7      46.7237      46.7237      46.7237 
  221000    90.854537   -11701.298   -10808.946    168.40889     102002.7      46.7237      46.7237      46.7237 
  222000     90.43264   -11696.539    -10808.33   -41.713554     102002.7      46.7237      46.7237      46.7237 
  223000    92.273901   -11701.849   -10795.556    406.07122     102002.7      46.7237      46.7237      46.7237 
  224000    89.147177   -11711.006   -10835.423    196.82634     102002.7      46.7237      46.7237      46.7237 
  225000    91.624172   -11675.092   -10775.181    425.07588     102002.7      46.7237      46.7237      46.7237 
  226000    92.038932   -11692.426   -10788.441    215.26616     102002.7      46.7237      46.7237      46.7237 
  227000    91.358206   -11692.349    -10795.05    134.44389     102002.7      46.7237      46.7237      46.7237 
  228000    88.618984   -11677.626   -10807.231    347.96168     102002.7      46.7237      46.7237      46.7237 
  229000    87.055866   -11692.459   -10837.416    285.75633     102002.7      46.7237      46.7237      46.7237 
  230000    91.799121   -11681.485   -10779.855    468.63936     102002.7      46.7237      46.7237      46.7237 
  231000    91.765443   -11701.437   -10800.138    127.88728     102002.7      46.7237      46.7237      46.7237 
  232000    93.273368   -11690.272   -10774.163   -52.898975     102002.7      46.7237      46.7237      46.7237 
  233000     93.56045   -11718.529   -10799.599    448.64631     102002.7      46.7237      46.7237      46.7237 
  234000     91.46073   -11681.559   -10783.253    154.09854     102002.7      46.7237      46.7237      46.7237 
  235000    88.608485   -11660.323   -10790.031    140.46262     102002.7      46.7237      46.7237      46.7237 
  236000    89.608969   -11698.596   -10818.477    490.82565     102002.7      46.7237      46.7237      46.7237 
  237000    90.556244   -11705.714   -10816.292    407.19127     102002.7      46.7237      46.7237      46.7237 
  238000    92.680543   -11696.674   -10786.387    516.89804     102002.7      46.7237      46.7237      46.7237 
  239000    92.207322   -11715.138   -10809.499    249.45758     102002.7      46.7237      46.7237      46.7237 
  240000    91.417073   -11696.227   -10798.349    182.13024     102002.7      46.7237      46.7237      46.7237 
  241000    90.590294   -11702.718   -10812.961    327.34847     102002.7      46.7237      46.7237      46.7237 
  242000    93.242269   -11689.863   -10774.059    366.32978     102002.7      46.7237      46.7237      46.7237 
  243000     93.09112   -11695.879   -10781.559    141.97943     102002.7      46.7237      46.7237      46.7237 
  244000    93.841001   -11696.584   -10774.899    159.55191     102002.7      46.7237      46.7237      46.7237 
  245000    91.788919   -11700.836   -10799.306    299.09269     102002.7      46.7237      46.7237      46.7237 
  246000    92.462698   -11705.909   -10797.762    290.93824     102002.7      46.7237      46.7237      46.7237 
  247000    91.580122   -11691.537   -10792.058    509.88107     102002.7      46.7237      46.7237      46.7237 
  248000    92.652178   -11720.098    -10810.09     173.0341     102002.7      46.7237      46.7237      46.7237 
  249000    89.930034   -11658.629   -10775.357    296.71307     102002.7      46.7237      46.7237      46.7237 
  250000    88.832216   -11701.568   -10829.078    595.26668     102002.7      46.7237      46.7237      46.7237 
  251000    92.546657   -11703.905   -10794.933    226.54598     102002.7      46.7237      46.7237      46.7237 
  252000     90.46926   -11677.893   -10789.324    53.331543     102002.7      46.7237      46.7237      46.7237 
  253000    92.864937   -11685.179   -10773.081    525.44181     102002.7      46.7237      46.7237      46.7237 
  254000    90.192009   -11697.884   -10812.039    394.27961     102002.7      46.7237      46.7237      46.7237 
  255000    92.867703   -11697.788   -10785.663     360.9972     102002.7      46.7237      46.7237      46.7237 
  256000    90.575198   -11661.831   -10772.223    393.82404     102002.7      46.7237      46.7237      46.7237 
  257000    89.692141   -11697.501   -10816.566    333.54751     102002.7      46.7237      46.7237      46.7237 
  258000    92.880781   -11681.431   -10769.178    191.34483     102002.7      46.7237      46.7237      46.7237 
  259000    91.591965   -11666.236   -10766.641    301.09751     102002.7      46.7237      46.7237      46.7237 
  260000    90.749202   -11697.574   -10806.256    321.88175     102002.7      46.7237      46.7237      46.7237 
  261000    91.284203   -11706.982    -10810.41    546.82135     102002.7      46.7237      46.7237      46.7237 
  262000    92.055738   -11686.645   -10782.494    65.983896     102002.7      46.7237      46.7237      46.7237 
  263000    92.705943   -11706.341   -10795.805    115.43364     102002.7      46.7237      46.7237      46.7237 
  264000    92.083086   -11687.648   -10783.229    385.02661     102002.7      46.7237      46.7237      46.7237 
  265000    91.242061   -11703.149    -10806.99    249.71155     102002.7      46.7237      46.7237      46.7237 
  266000    91.797445    -11693.61   -10791.996    502.69362     102002.7      46.7237      46.7237      46.7237 
  267000    91.128211   -11685.745   -10790.705    330.25657     102002.7      46.7237      46.7237      46.7237 
  268000    91.314798   -11698.381   -10801.508    156.23534     102002.7      46.7237      46.7237      46.7237 
  269000    91.702888   -11688.727   -10788.042    291.61983     102002.7      46.7237      46.7237      46.7237 
  270000    92.168031   -11675.104   -10769.851    324.46496     102002.7      46.7237      46.7237      46.7237 
  271000     92.47133   -11688.057   -10779.825    443.75606     102002.7      46.7237      46.7237      46.7237 
  272000    91.523557   -11701.405   -10802.481    358.81551     102002.7      46.7237      46.7237      46.7237 
  273000    91.696347    -11673.44    -10772.82    262.89982     102002.7      46.7237      46.7237      46.7237 
  274000     91.20881   -11694.545   -10798.713    403.44866     102002.7      46.7237      46.7237      46.7237 
  275000    91.995348   -11679.007   -10775.449    286.50129     102002.7      46.7237      46.7237      46.7237 
  276000    92.210609   -11704.071     -10798.4    332.42771     102002.7      46.7237      46.7237      46.7237 
  277000    93.005508   -11691.536   -10778.058    292.36658     102002.7      46.7237      46.7237      46.7237 
  278000    90.008825   -11686.378   -10802.332      75.2874     102002.7      46.7237      46.7237      46.7237 
  279000    91.493188   -11693.221   -10794.596    304.29092     102002.7      46.7237      46.7237      46.7237 
  280000    92.269831   -11699.915   -10793.662    519.91606     102002.7      46.7237      46.7237      46.7237 
  281000    89.687282   -11705.346   -10824.458   -12.845159     102002.7      46.7237      46.7237      46.7237 
  282000    90.397415   -11701.224   -10813.361    114.94013     102002.7      46.7237      46.7237      46.7237 
  283000    92.727747    -11678.14    -10767.39    416.93199     102002.7      46.7237      46.7237      46.7237 
  284000    90.393735   -11683.992   -10796.166    213.75428     102002.7      46.7237      46.7237      46.7237 
  285000    89.301664   -11686.205   -10809.105    268.32235     102002.7      46.7237      46.7237      46.7237 
  286000    89.611441   -11698.184   -10818.042    41.734838     102002.7      46.7237      46.7237      46.7237 
  287000    88.669044   -11697.149   -10826.262    190.16742     102002.7      46.7237      46.7237      46.7237 
  288000    93.145827   -11694.068   -10779.211    167.79992     102002.7      46.7237      46.7237      46.7237 
  289000    92.627143   -11699.846   -10790.084    293.92913     102002.7      46.7237      46.7237      46.7237 
  290000    90.822448   -11725.907   -10833.869    431.29764     102002.7      46.7237      46.7237      46.7237 
  291000    90.206866   -11690.072   -10804.081    269.85686     102002.7      46.7237      46.7237      46.7237 
  292000    90.472942   -11696.183   -10807.579    374.55414     102002.7      46.7237      46.7237      46.7237 
  293000      91.1815   -11693.902   -10798.338    230.94421     102002.7      46.7237      46.7237      46.7237 
  294000    89.108023   -11676.652   -10801.453     418.4821     102002.7      46.7237      46.7237      46.7237 
  295000    92.491975   -11687.592   -10779.157    252.00619     102002.7      46.7237      46.7237      46.7237 
  296000    91.986494   -11706.413   -10802.943    272.17619     102002.7      46.7237      46.7237      46.7237 
  297000    92.297774   -11710.755   -10804.227    352.67692     102002.7      46.7237      46.7237      46.7237 
  298000    88.465218   -11700.068   -10831.183    223.80234     102002.7      46.7237      46.7237      46.7237 
  299000    88.977043   -11692.253   -10818.341      226.984     102002.7      46.7237      46.7237      46.7237 
  300000      89.8406   -11719.241   -10836.847     329.9593     102002.7      46.7237      46.7237      46.7237 
  301000    93.746169   -11708.242   -10787.489    285.15281     102002.7      46.7237      46.7237      46.7237 
  302000    90.796467    -11683.81   -10792.028    252.74681     102002.7      46.7237      46.7237      46.7237 
  303000    88.726094   -11703.328    -10831.88   0.23186707     102002.7      46.7237      46.7237      46.7237 
  304000     90.93411   -11687.299   -10794.165    546.07944     102002.7      46.7237      46.7237      46.7237 
  305000    89.696973   -11691.946   -10810.963    348.46191     102002.7      46.7237      46.7237      46.7237 
  306000    89.823351   -11708.122   -10825.898    129.25654     102002.7      46.7237      46.7237      46.7237 
  307000     90.70582   -11700.158   -10809.267    355.17989     102002.7      46.7237      46.7237      46.7237 
  308000    89.348838    -11697.26   -10819.696    128.26189     102002.7      46.7237      46.7237      46.7237 
  309000    93.355803   -11696.029    -10779.11    228.34629     102002.7      46.7237      46.7237      46.7237 
  310000    90.697155   -11663.429   -10772.623    552.67593     102002.7      46.7237      46.7237      46.7237 
  311000    91.834952    -11693.56   -10791.578    63.068795     102002.7      46.7237      46.7237      46.7237 
  312000     88.32127   -11690.273   -10822.802    232.36403     102002.7      46.7237      46.7237      46.7237 
  313000    89.219192   -11680.043   -10803.752    520.22306     102002.7      46.7237      46.7237      46.7237 
  314000    90.906102   -11673.739    -10780.88    346.84775     102002.7      46.7237      46.7237      46.7237 
  315000    88.476602   -11691.589   -10822.592    283.34278     102002.7      46.7237      46.7237      46.7237 
  316000    90.016636   -11692.511   -10808.389    291.39651     102002.7      46.7237      46.7237      46.7237 
  317000    90.847483   -11685.249   -10792.966    246.10903     102002.7      46.7237      46.7237      46.7237 
  318000    91.607649   -11682.015   -10782.265    407.21884     102002.7      46.7237      46.7237      46.7237 
  319000    91.947324   -11683.245   -10780.159    424.17125     102002.7      46.7237      46.7237      46.7237 
  320000    91.669345   -11695.434   -10795.079    254.61081     102002.7      46.7237      46.7237      46.7237 
  321000    90.052932   -11708.392   -10823.913    400.84304     102002.7      46.7237      46.7237      46.7237 
  322000    89.410534   -11691.994   -10813.824    354.96988     102002.7      46.7237      46.7237      46.7237 
  323000    91.836848   -11697.084   -10795.084    111.34816     102002.7      46.7237      46.7237      46.7237 
  324000    92.076212   -11690.763   -10786.411    222.72634     102002.7      46.7237      46.7237      46.7237 
  325000    92.848399    -11684.06   -10772.124    80.020083     102002.7      46.7237      46.7237      46.7237 
  326000    92.704732   -11716.775   -10806.251    225.96342     102002.7      46.7237      46.7237      46.7237 
  327000    93.040842   -11704.426   -10790.601    303.57676     102002.7      46.7237      46.7237      46.7237 
  328000     90.12507   -11703.548   -10818.361    423.77468     102002.7      46.7237      46.7237      46.7237 
  329000    88.520834   -11698.567   -10829.136    39.014556     102002.7      46.7237      46.7237      46.7237 
  330000    90.406503   -11675.484   -10787.532    337.99309     102002.7      46.7237      46.7237      46.7237 
  331000    91.765458   -11711.699   -10810.399     331.8233     102002.7      46.7237      46.7237      46.7237 
  332000    90.860006   -11699.505   -10807.099    306.45749     102002.7      46.7237      46.7237      46.7237 
  333000    92.795358   -11710.436   -10799.022    267.12088     102002.7      46.7237      46.7237      46.7237 
  334000    90.657227    -11707.72   -10817.306    175.37424     102002.7      46.7237      46.7237      46.7237 
  335000    91.257023   -11717.081   -10820.776    117.57094     102002.7      46.7237      46.7237      46.7237 
  336000    92.777487   -11694.574   -10783.335    257.83875     102002.7      46.7237      46.7237      46.7237 
  337000     92.48622   -11681.055   -10772.677    58.434484     102002.7      46.7237      46.7237      46.7237 
  338000    90.974049   -11710.758   -10817.231   -6.0439401     102002.7      46.7237      46.7237      46.7237 
  339000      91.4419   -11690.864   -10792.743    369.73339     102002.7      46.7237      46.7237      46.7237 
  340000    89.350186   -11708.975   -10831.398    228.23047     102002.7      46.7237      46.7237      46.7237 
  341000    93.808313   -11699.309   -10777.945    406.07936     102002.7      46.7237      46.7237      46.7237 
  342000    91.119291   -11700.225   -10805.272    82.042055     102002.7      46.7237      46.7237      46.7237 
  343000    89.512228   -11704.159   -10824.991    158.45632     102002.7      46.7237      46.7237      46.7237 
  344000    89.467185   -11673.489   -10794.763      502.153     102002.7      46.7237      46.7237      46.7237 
  345000    92.698209   -11712.083   -10801.623    33.728619     102002.7      46.7237      46.7237      46.7237 
  346000    90.178897   -11698.874   -10813.157     194.3198     102002.7      46.7237      46.7237      46.7237 
  347000    90.333769   -11688.339   -10801.101    289.42035     102002.7      46.7237      46.7237      46.7237 
  348000    89.535201    -11700.93   -10821.536    182.23887     102002.7      46.7237      46.7237      46.7237 
  349000    90.892053    -11685.51   -10792.789    555.37772     102002.7      46.7237      46.7237      46.7237 
  350000    89.610388   -11702.197   -10822.065    217.18454     102002.7      46.7237      46.7237      46.7237 
  351000    90.145021   -11695.554    -10810.17    190.80108     102002.7      46.7237      46.7237      46.7237 
  352000    93.107985   -11671.097   -10756.612    374.83328     102002.7      46.7237      46.7237      46.7237 
  353000    91.891736   -11671.683   -10769.144    602.19561     102002.7      46.7237      46.7237      46.7237 
  354000    92.145276   -11716.638   -10811.608    -42.37057     102002.7      46.7237      46.7237      46.7237 
  355000    89.739512   -11678.362   -10796.961    419.29576     102002.7      46.7237      46.7237      46.7237 
  356000     89.92043   -11670.587   -10787.409    456.75367     102002.7      46.7237      46.7237      46.7237 
  357000    88.526431   -11712.538   -10843.052    361.85319     102002.7      46.7237      46.7237      46.7237 
  358000    91.141656   -11682.773   -10787.601    336.38008     102002.7      46.7237      46.7237      46.7237 
  359000    90.072754   -11706.113   -10821.439    112.07242     102002.7      46.7237      46.7237      46.7237 
  360000    90.391429   -11685.034   -10797.231    196.96984     102002.7      46.7237      46.7237      46.7237 
  361000    89.939397   -11701.998   -10818.634    342.26929     102002.7      46.7237      46.7237      46.7237 
  362000    89.385107   -11702.996   -10825.077    488.17125     102002.7      46.7237      46.7237      46.7237 
  363000    91.222561   -11692.031   -10796.065    307.04573     102002.7      46.7237      46.7237      46.7237 
  364000    92.146511   -11681.611   -10776.569    502.17839     102002.7      46.7237      46.7237      46.7237 
  365000    90.862061   -11693.673   -10801.247    197.70453     102002.7      46.7237      46.7237      46.7237 
  366000    90.178762    -11710.26   -10824.545    79.709537     102002.7      46.7237      46.7237      46.7237 
  367000    89.860195   -11718.687   -10836.101    154.53829     102002.7      46.7237      46.7237      46.7237 
  368000    89.780817   -11681.237    -10799.43    245.13037     102002.7      46.7237      46.7237      46.7237 
  369000    91.836099   -11690.079   -10788.086    357.68261     102002.7      46.7237      46.7237      46.7237 
  370000    90.574376   -11685.709   -10796.109    647.30075     102002.7      46.7237      46.7237      46.7237 
  371000    90.124935   -11709.308   -10824.121     222.5564     102002.7      46.7237      46.7237      46.7237 
  372000    89.953459   -11700.497   -10816.995    209.26417     102002.7      46.7237      46.7237      46.7237 
  373000    89.725111   -11696.238   -10814.979    586.91194     102002.7      46.7237      46.7237      46.7237 
  374000    91.789465   -11709.253   -10807.718    340.28931     102002.7      46.7237      46.7237      46.7237 
  375000    90.251289   -11714.093   -10827.666    414.43788     102002.7      46.7237      46.7237      46.7237 
  376000    90.040768    -11682.05    -10797.69    348.52085     102002.7      46.7237      46.7237      46.7237 
  377000    92.763108   -11699.429   -10788.331    294.80243     102002.7      46.7237      46.7237      46.7237 
  378000    90.611322   -11705.741   -10815.778    238.25222     102002.7      46.7237      46.7237      46.7237 
  379000    91.387429   -11671.018   -10773.432    36.169258     102002.7      46.7237      46.7237      46.7237 
  380000    90.388469   -11711.277   -10823.502    154.30931     102002.7      46.7237      46.7237      46.7237 
  381000    90.718797   -11728.316   -10837.297    155.63308     102002.7      46.7237      46.7237      46.7237 
  382000    90.236209   -11679.801   -10793.522    324.04633     102002.7      46.7237      46.7237      46.7237 
  383000    88.253473   -11702.957   -10836.152    98.587446     102002.7      46.7237      46.7237      46.7237 
  384000     90.59601   -11706.618   -10816.805    385.71787     102002.7      46.7237      46.7237      46.7237 
  385000    90.297301   -11681.992   -10795.113    515.91501     102002.7      46.7237      46.7237      46.7237 
  386000    93.693751   -11679.134   -10758.896    530.10281     102002.7      46.7237      46.7237      46.7237 
  387000    89.646739   -11687.978   -10807.489    332.38485     102002.7      46.7237      46.7237      46.7237 
  388000    92.498072   -11695.274   -10786.779      170.118     102002.7      46.7237      46.7237      46.7237 
  389000    89.995827   -11670.264   -10786.346    23.538241     102002.7      46.7237      46.7237      46.7237 
  390000    90.530465   -11692.114   -10802.944    454.61743     102002.7      46.7237      46.7237      46.7237 
  391000    91.890343   -11697.357   -10794.831    234.81969     102002.7      46.7237      46.7237      46.7237 
  392000    92.165009   -11699.277   -10794.053    466.24894     102002.7      46.7237      46.7237      46.7237 
  393000    90.599839   -11694.506   -10804.655    158.42473     102002.7      46.7237      46.7237      46.7237 
  394000    90.340391   -11699.482    -10812.18    229.06963     102002.7      46.7237      46.7237      46.7237 
  395000    91.791523   -11679.846   -10778.291    226.93165     102002.7      46.7237      46.7237      46.7237 
  396000    89.304596   -11689.195   -10812.066     30.95969     102002.7      46.7237      46.7237      46.7237 
  397000    90.159247   -11687.105   -10801.582    382.74475     102002.7      46.7237      46.7237      46.7237 
  398000    91.991751   -11677.147   -10773.626    271.20754     102002.7      46.7237      46.7237      46.7237 
  399000    90.403787   -11696.836   -10808.911    349.05329     102002.7      46.7237      46.7237      46.7237 
  400000    90.761684    -11699.17    -10807.73    164.84398     102002.7      46.7237      46.7237      46.7237 
  401000    90.769008   -11696.967   -10805.455    436.64097     102002.7      46.7237      46.7237      46.7237 
  402000     89.01874   -11687.249   -10812.927    626.00906     102002.7      46.7237      46.7237      46.7237 
  403000    90.390804   -11680.322   -10792.524     382.6009     102002.7      46.7237      46.7237      46.7237 
  404000    91.442313   -11696.808   -10798.683    244.25971     102002.7      46.7237      46.7237      46.7237 
  405000    89.544183   -11701.507   -10822.025    62.836377     102002.7      46.7237      46.7237      46.7237 
  406000    90.915961   -11688.237   -10795.281    420.79818     102002.7      46.7237      46.7237      46.7237 
  407000    93.338604   -11682.626   -10765.875    227.82691     102002.7      46.7237      46.7237      46.7237 
  408000    91.258988   -11680.317   -10783.992   -75.656966     102002.7      46.7237      46.7237      46.7237 
  409000    88.879689   -11688.301   -10815.345    358.75239     102002.7      46.7237      46.7237      46.7237 
  410000    92.652202   -11682.343   -10772.334    225.67541     102002.7      46.7237      46.7237      46.7237 
  411000    89.274517   -11700.566   -10823.733    433.02051     102002.7      46.7237      46.7237      46.7237 
  412000    89.903913   -11683.675    -10800.66    421.96804     102002.7      46.7237      46.7237      46.7237 
  413000    90.951626   -11703.001   -10809.696    325.46413     102002.7      46.7237      46.7237      46.7237 
  414000    90.169348   -11718.564   -10832.941    443.92652     102002.7      46.7237      46.7237      46.7237 
  415000    91.122491   -11689.658   -10794.674    383.97915     102002.7      46.7237      46.7237      46.7237 
  416000    90.682699   -11706.303   -10815.639    50.166618     102002.7      46.7237      46.7237      46.7237 
  417000    91.282888   -11694.001   -10797.442    552.82784     102002.7      46.7237      46.7237      46.7237 
  418000    91.361066   -11683.022   -10785.694    467.61509     102002.7      46.7237      46.7237      46.7237 
  419000    90.697336   -11702.942   -10812.134    294.83746     102002.7      46.7237      46.7237      46.7237 
  420000    91.034115   -11697.041   -10802.924    358.34851     102002.7      46.7237      46.7237      46.7237 
  421000    90.434891   -11690.878   -10802.647    450.19613     102002.7      46.7237      46.7237      46.7237 
  422000    92.171937   -11685.363   -10780.071    358.67102     102002.7      46.7237      46.7237      46.7237 
  423000    90.803787   -11704.073    -10812.22    218.76518     102002.7      46.7237      46.7237      46.7237 
  424000    89.757793    -11693.68     -10812.1     340.6264     102002.7      46.7237      46.7237      46.7237 
  425000    93.461088   -11685.024   -10767.071   -147.11022     102002.7      46.7237      46.7237      46.7237 
  426000    88.585474    -11664.04   -10793.974     77.32016     102002.7      46.7237      46.7237      46.7237 
  427000    93.579909    -11684.54    -10765.42    436.54031     102002.7      46.7237      46.7237      46.7237 
  428000    90.423188   -11706.402   -10818.286    190.46421     102002.7      46.7237      46.7237      46.7237 
  429000    91.238023   -11703.715   -10807.596    543.13242     102002.7      46.7237      46.7237      46.7237 
  430000    90.457934   -11701.765   -10813.308    443.87425     102002.7      46.7237      46.7237      46.7237 
  431000    92.689826   -11710.206   -10799.827    182.85948     102002.7      46.7237      46.7237      46.7237 
  432000    93.548722   -11691.619   -10772.805    677.42274     102002.7      46.7237      46.7237      46.7237 
  433000    90.492822   -11702.965   -10814.166    463.21448     102002.7      46.7237      46.7237      46.7237 
  434000    91.811776   -11700.591   -10798.837    130.98098     102002.7      46.7237      46.7237      46.7237 
  435000    91.148898   -11704.901   -10809.657    351.76839     102002.7      46.7237      46.7237      46.7237 
  436000    92.577019   -11686.723   -10777.452    527.38579     102002.7      46.7237      46.7237      46.7237 
  437000    90.846851   -11694.652   -10802.375    255.02729     102002.7      46.7237      46.7237      46.7237 
  438000    91.266018   -11695.887   -10799.493    361.14712     102002.7      46.7237      46.7237      46.7237 
  439000    90.439309   -11706.941   -10818.667    340.80866     102002.7      46.7237      46.7237      46.7237 
  440000    91.490044   -11685.759   -10787.165    194.37377     102002.7      46.7237      46.7237      46.7237 
  441000    90.052132   -11697.825   -10813.353    397.84778     102002.7      46.7237      46.7237      46.7237 
  442000    91.085275   -11678.748    -10784.13     377.6656     102002.7      46.7237      46.7237      46.7237 
  443000    90.801882   -11690.964   -10799.129     751.4339     102002.7      46.7237      46.7237      46.7237 
  444000    90.632022   -11717.717    -10827.55     364.3152     102002.7      46.7237      46.7237      46.7237 
  445000     90.53464   -11687.334   -10798.123    352.85538     102002.7      46.7237      46.7237      46.7237 
  446000    91.232789   -11695.982   -10799.915    413.70082     102002.7      46.7237      46.7237      46.7237 
  447000    89.208417   -11671.763   -10795.579    274.26079     102002.7      46.7237      46.7237      46.7237 
  448000    90.790559   -11698.658   -10806.934    352.89532     102002.7      46.7237      46.7237      46.7237 
  449000    89.761501   -11694.144   -10812.528    307.14029     102002.7      46.7237      46.7237      46.7237 
  450000    91.259412   -11666.558   -10770.229    289.94128     102002.7      46.7237      46.7237      46.7237 
  451000     89.51674   -11689.635   -10810.423    180.45728     102002.7      46.7237      46.7237      46.7237 
  452000    92.160121    -11711.21   -10806.035    426.96372     102002.7      46.7237      46.7237      46.7237 
  453000    91.659276   -11697.421   -10797.165    402.26844     102002.7      46.7237      46.7237      46.7237 
  454000    90.648702   -11681.833   -10791.502    61.694256     102002.7      46.7237      46.7237      46.7237 
  455000    91.767167   -11707.474   -10806.158    540.41902     102002.7      46.7237      46.7237      46.7237 
  456000    90.950478   -11679.931   -10786.636    401.53422     102002.7      46.7237      46.7237      46.7237 
  457000    90.490515   -11704.134   -10815.357    329.51469     102002.7      46.7237      46.7237      46.7237 
  458000    91.064431   -11677.266   -10782.852    593.81086     102002.7      46.7237      46.7237      46.7237 
  459000    92.042752   -11678.768   -10774.746    264.56443     102002.7      46.7237      46.7237      46.7237 
  460000    90.218704   -11696.014   -10809.906    617.93612     102002.7      46.7237      46.7237      46.7237 
  461000    89.785636   -11679.227   -10797.374    385.25101     102002.7      46.7237      46.7237      46.7237 
  462000    90.913106   -11695.442   -10802.514    252.78284     102002.7      46.7237      46.7237      46.7237 
  463000    91.799568   -11675.461   -10773.827    325.74092     102002.7      46.7237      46.7237      46.7237 
  464000    90.636631   -11683.207   -10792.995    200.66819     102002.7      46.7237      46.7237      46.7237 
  465000    90.027234   -11690.754   -10806.528    495.92284     102002.7      46.7237      46.7237      46.7237 
  466000    90.800501   -11691.041   -10799.219    266.87655     102002.7      46.7237      46.7237      46.7237 
  467000    92.908189   -11688.197   -10775.674    484.01854     102002.7      46.7237      46.7237      46.7237 
  468000    94.449494   -11692.439   -10764.778    452.83651     102002.7      46.7237      46.7237      46.7237 
  469000     91.05217   -11686.236   -10791.942    272.56887     102002.7      46.7237      46.7237      46.7237 
  470000    91.076022   -11698.705   -10804.177    415.02033     102002.7      46.7237      46.7237      46.7237 
  471000    91.020514   -11691.411   -10797.428    694.93282     102002.7      46.7237      46.7237      46.7237 
  472000    90.539134   -11716.279   -10827.025    146.41249     102002.7      46.7237      46.7237      46.7237 
  473000    90.283407   -11692.868   -10806.125    459.82722     102002.7      46.7237      46.7237      46.7237 
  474000    88.983089   -11713.983   -10840.012    397.25564     102002.7      46.7237      46.7237      46.7237 
  475000    90.953966   -11706.755   -10813.426    306.02495     102002.7      46.7237      46.7237      46.7237 
  476000    90.224685     -11701.6   -10815.434    381.50754     102002.7      46.7237      46.7237      46.7237 
  477000    90.988474   -11695.148    -10801.48    421.76449     102002.7      46.7237      46.7237      46.7237 
  478000    91.533641   -11693.385   -10794.363    156.46548     102002.7      46.7237      46.7237      46.7237 
  479000    93.190957   -11681.312   -10766.012    625.25205     102002.7      46.7237      46.7237      46.7237 
  480000    92.023214   -11696.565   -10792.735    189.00177     102002.7      46.7237      46.7237      46.7237 
  481000    90.635351   -11699.626   -10809.426    363.04127     102002.7      46.7237      46.7237      46.7237 
  482000    94.760191   -11682.362   -10751.649    209.74371     102002.7      46.7237      46.7237      46.7237 
  483000    91.499239    -11707.79   -10809.106    220.12024     102002.7      46.7237      46.7237      46.7237 
  484000    91.934577   -11711.167   -10808.207    556.80261     102002.7      46.7237      46.7237      46.7237 
  485000    89.068122    -11678.39   -10803.583     336.5913     102002.7      46.7237      46.7237      46.7237 
  486000    89.074551    -11699.78   -10824.911    410.11983     102002.7      46.7237      46.7237      46.7237 
  487000    89.541113    -11682.81   -10803.358    420.85813     102002.7      46.7237      46.7237      46.7237 
  488000    91.358682   -11701.308   -10804.004    307.77508     102002.7      46.7237      46.7237      46.7237 
  489000     93.11914   -11685.707   -10771.112    222.91732     102002.7      46.7237      46.7237      46.7237 
  490000    90.403774   -11695.604   -10807.679    465.25967     102002.7      46.7237      46.7237      46.7237 
  491000    91.489263   -11682.359   -10783.772    602.58641     102002.7      46.7237      46.7237      46.7237 
  492000    90.223292   -11714.887   -10828.735    280.72094     102002.7      46.7237      46.7237      46.7237 
  493000    89.923024    -11685.91   -10802.707    258.32167     102002.7      46.7237      46.7237      46.7237 
  494000    91.754015   -11714.643   -10813.457    306.00689     102002.7      46.7237      46.7237      46.7237 
  495000    92.740986   -11685.013   -10774.133    569.29502     102002.7      46.7237      46.7237      46.7237 
  496000    89.179347   -11711.421   -10835.522     231.9349     102002.7      46.7237      46.7237      46.7237 
  497000    91.842371   -11696.313   -10794.258    487.13417     102002.7      46.7237      46.7237      46.7237 
  498000    89.162758   -11702.393   -10826.657     137.8976     102002.7      46.7237      46.7237      46.7237 
  499000    91.325297   -11685.188   -10788.212    406.49967     102002.7      46.7237      46.7237      46.7237 
  500000    91.927051   -11714.049   -10811.163   -29.502757     102002.7      46.7237      46.7237      46.7237 
  500500    90.827843   -11716.574   -10824.484    17.571068     102002.7      46.7237      46.7237      46.7237 
Loop time of 2081.71 on 16 procs for 500000 steps with 3296 atoms

Performance: 20.752 ns/day, 1.157 hours/ns, 240.187 timesteps/s
99.8% CPU use with 16 MPI tasks x no OpenMP threads

MPI task timing breakdown:
Section |  min time  |  avg time  |  max time  |%varavg| %total
---------------------------------------------------------------
Pair    | 753.37     | 1202.9     | 1605.3     | 837.5 | 57.79
Bond    | 99.083     | 174.78     | 243.74     | 330.0 |  8.40
Neigh   | 16.034     | 16.105     | 16.184     |   1.6 |  0.77
Comm    | 196.66     | 669.17     | 1192.6     |1281.5 | 32.14
Output  | 0.02138    | 0.022036   | 0.026381   |   0.8 |  0.00
Modify  | 8.9101     | 11.693     | 13.822     |  50.8 |  0.56
Other   |            | 7.016      |            |       |  0.34

Nlocal:    206 ave 246 max 154 min
Histogram: 1 1 1 0 4 3 1 0 3 2
Nghost:    4156.88 ave 4210 max 4116 min
Histogram: 3 1 0 4 2 3 0 2 0 1
Neighs:    11459.6 ave 18553 max 4063 min
Histogram: 1 4 1 0 2 1 2 0 2 3

Total # of neighbors = 183353
Ave neighs/atom = 55.6289
Ave special neighs/atom = 3.49515
Neighbor list builds = 4118
Dangerous builds = 0
Neighbor list info ...
  update every 1 steps, delay 10 steps, check yes
  max neighbors/atom: 2000, page size: 100000
  master list distance cutoff = 16
  ghost atom cutoff = 16
  binsize = 8, bins = 6 6 6
  3 neighbor lists, perpetual/occasional/extra = 3 0 0
  (1) pair buck6d/coul/gauss/dsf, perpetual, skip from (3)
      attributes: half, newton on
      pair build: skip
      stencil: none
      bin: none
  (2) pair lj/cut, perpetual, skip from (3)
      attributes: half, newton on
      pair build: skip
      stencil: none
      bin: none
  (3) neighbor class addition, perpetual
      attributes: half, newton on
      pair build: half/bin/newton
      stencil: half/bin/3d/newton
      bin: standard
Setting up Verlet run ...
  Unit style    : real
  Current step  : 500500
  Time step     : 1
WARNING: Inconsistent image flags (../domain.cpp:786)
Per MPI rank memory allocation (min/avg/max) = 22.67 | 23.14 | 23.45 Mbytes
Step Time TotEng KinEng PotEng E_mol E_pair Temp Pxx Pyy Pzz Pxy Pxz Pyz Cella Cellb Cellc CellAlpha CellBeta CellGamma Volume Press 
  500500       500000   -10824.484     892.0901   -11716.574    4156.3994   -15872.974    90.827843    6.5830706    48.197108   -2.0669733   -63.803058    33.904657    -35.68855      46.7237      46.7237      46.7237           90           90           90     102002.7    17.571068 
  501000       500500   -10788.136    920.53031   -11708.667    4143.8913   -15852.558    93.723473    158.80463    168.44554    142.59981   -65.481314    36.852353    96.484924      46.7237      46.7237      46.7237           90           90           90     102002.7    156.61666 
  502000       501500   -10807.881    896.11043   -11703.991     4147.698   -15851.689    91.237171    106.13991    128.95852    152.69165   -110.85142   -96.650703   -116.16517      46.7237      46.7237      46.7237           90           90           90     102002.7    129.26336 
  503000       502500   -10828.304    884.09013   -11712.394    4141.2559    -15853.65    90.013328    590.80496    891.98763    542.07164   -164.08211    58.164443   -203.70362      46.7237      46.7237      46.7237           90           90           90     102002.7    674.95474 
  504000       503500    -10788.19    914.97053    -11703.16    4162.8479   -15866.008    93.157406    856.26465    584.83325    657.36404    88.299067    225.14234   -43.250336      46.7237      46.7237      46.7237           90           90           90     102002.7    699.48732 
  505000       504500   -10846.784     876.0957    -11722.88    4141.5294    -15864.41    89.199378    319.61646     171.2808    119.70837   -74.019965    150.29099   -53.520924      46.7237      46.7237      46.7237           90           90           90     102002.7    203.53521 
  506000       505500   -10804.352    901.98834    -11706.34      4170.44    -15876.78    91.835629    258.95376   -58.386349    264.21853    53.347872    319.33152   -14.954633      46.7237      46.7237      46.7237           90           90           90     102002.7    154.92865 
  507000       506500   -10805.835    877.05633   -11682.892    4154.4599   -15837.352    89.297185    334.64009    14.855759    778.78416    90.272583    -14.29386    59.292581      46.7237      46.7237      46.7237           90           90           90     102002.7    376.09334 
  508000       507500   -10792.185    887.28505    -11679.47    4157.1837   -15836.654    90.338618    876.48264    531.51199    287.63355   -25.102846    11.549562    24.078374      46.7237      46.7237      46.7237           90           90           90     102002.7    565.20939 
  509000       508500   -10776.495    903.68486    -11680.18    4157.1025   -15837.282    92.008359    684.82121    398.00398    406.10963   -171.01047    131.11635   -102.15738      46.7237      46.7237      46.7237           90           90           90     102002.7    496.31161 
  510000       509500   -10829.987    864.32692   -11694.314    4163.0968   -15857.411    88.001145    579.58548    541.20996    254.25209    185.76963   -50.840616    99.007266      46.7237      46.7237      46.7237           90           90           90     102002.7    458.34918 
  511000       510500    -10804.73    889.83911   -11694.569    4155.8459   -15850.415    90.598659    130.64832    371.56787    138.03511   -50.842467    123.90109   -33.439764      46.7237      46.7237      46.7237           90           90           90     102002.7     213.4171 
  512000       511500   -10800.352    896.90737    -11697.26    4159.6891   -15856.949    91.318311    191.14096    694.60035    454.03913    80.006809    184.63418    182.30228      46.7237      46.7237      46.7237           90           90           90     102002.7    446.59348 
  513000       512500   -10776.762    905.91495   -11682.677    4144.7687   -15827.445    92.235415    687.10435    946.28333    850.72783   -15.083927    204.81211    14.686789      46.7237      46.7237      46.7237           90           90           90     102002.7     828.0385 
  514000       513500   -10812.923    892.64253   -11705.566    4147.7915   -15853.357    90.884088    560.70075   -57.152208    431.38155    -48.79108   -34.766157   -52.090161      46.7237      46.7237      46.7237           90           90           90     102002.7    311.64337 
  515000       514500   -10807.939    892.42041   -11700.359    4156.8562   -15857.215    90.861473    287.08999    345.24268    350.67058    164.94611    3.8375583    20.110445      46.7237      46.7237      46.7237           90           90           90     102002.7    327.66775 
  516000       515500   -10787.995      897.116   -11685.111    4147.7269   -15832.838    91.339553    140.41587    436.82173    291.09832     213.2926    225.08532   -30.106372      46.7237      46.7237      46.7237           90           90           90     102002.7     289.4453 
  517000       516500   -10770.003    918.84339   -11688.846    4172.8692   -15861.715    93.551719    481.76652   -50.277897     424.5833   -104.15672   -308.67418   -57.630262      46.7237      46.7237      46.7237           90           90           90     102002.7    285.35731 
  518000       517500   -10813.984    897.80549    -11711.79    4140.3883   -15852.178    91.409754    326.01291     443.2422    179.69222   -94.053295    14.325892   -16.027715      46.7237      46.7237      46.7237           90           90           90     102002.7    316.31578 
  519000       518500   -10798.436    903.22342   -11701.659    4151.2366   -15852.896    91.961378    181.48202    366.21388    570.59818   -138.03547    6.8198523    133.95092      46.7237      46.7237      46.7237           90           90           90     102002.7    372.76469 
  520000       519500   -10806.752    886.29261   -11693.044    4143.1539   -15836.198    90.237573    148.38708    120.09864     350.4122   -63.976198    219.95706   -3.8589584      46.7237      46.7237      46.7237           90           90           90     102002.7    206.29931 
  521000       520500   -10824.436     879.1724   -11703.609    4154.7943   -15858.403    89.512631    463.70127    462.22895    698.84864   -172.03129    214.29319   -112.74451      46.7237      46.7237      46.7237           90           90           90     102002.7    541.59295 
  522000       521500   -10781.672    900.49431   -11682.166    4163.1262   -15845.292    91.683514    753.11559    173.53032    426.11403    30.621521    -41.38373   -11.930948      46.7237      46.7237      46.7237           90           90           90     102002.7    450.91998 
  523000       522500   -10790.026    914.59305   -11704.619    4150.3822   -15855.001    93.118973     643.5924    345.95979    337.90498   -175.87816    142.07741    147.82547      46.7237      46.7237      46.7237           90           90           90     102002.7    442.48572 
  524000       523500   -10829.632    894.01403   -11723.646    4126.4585   -15850.104    91.023727    277.85461    379.56646    721.52774    5.4340235    22.394604    68.283526      46.7237      46.7237      46.7237           90           90           90     102002.7     459.6496 
  525000       524500    -10791.49    906.82307   -11698.313    4138.2184   -15836.531    92.327875     372.8218    438.28969    456.54821    11.863354   -50.232278    30.010895      46.7237      46.7237      46.7237           90           90           90     102002.7    422.55323 
  526000       525500   -10806.897    906.36535   -11713.262    4141.3095   -15854.572    92.281272    396.05434    155.71797    57.820786   -253.53927    68.442965    70.415017      46.7237      46.7237      46.7237           90           90           90     102002.7     203.1977 
  527000       526500   -10836.299    893.46051   -11729.759    4153.7287   -15883.488    90.967371    324.00308    147.58621    631.04908    29.436952   -3.4696219    42.095951      46.7237      46.7237      46.7237           90           90           90     102002.7    367.54613 
  528000       527500   -10793.799     920.6257   -11714.425    4155.8659   -15870.291    93.733185    170.74054    93.561755    342.00013   0.16496305   -7.1164406    116.76309      46.7237      46.7237      46.7237           90           90           90     102002.7    202.10081 
  529000       528500   -10756.155    911.93405   -11668.089     4172.187   -15840.277    92.848247     221.3236    443.99556    241.88172    216.41467    330.82179    63.547864      46.7237      46.7237      46.7237           90           90           90     102002.7    302.40029 
  530000       529500   -10807.507    899.91902   -11707.426    4127.6884   -15835.114    91.624942   -45.185152    654.69178     188.0678    209.11058    86.278667     83.76682      46.7237      46.7237      46.7237           90           90           90     102002.7    265.85814 
  531000       530500   -10786.693    898.11916   -11684.812    4158.5215   -15843.334     91.44169    128.02886    319.82723    556.23743    -4.093908    53.633007   -114.90978      46.7237      46.7237      46.7237           90           90           90     102002.7    334.69784 
  532000       531500   -10832.679    871.61285   -11704.292     4142.419   -15846.711    88.742959    518.21703    325.90724    358.10463   -71.180477    70.659215    56.131628      46.7237      46.7237      46.7237           90           90           90     102002.7    400.74296 
  533000       532500   -10823.029      893.947   -11716.976    4136.3612   -15853.337    91.016902    435.97947    20.636669    492.18206    26.687381    219.80026   -97.580355      46.7237      46.7237      46.7237           90           90           90     102002.7    316.26607 
  534000       533500   -10805.121    892.61581   -11697.737    4153.9179   -15851.655    90.881367    615.53584    103.83736    440.03451   -100.93603   -126.95913    8.9129828      46.7237      46.7237      46.7237           90           90           90     102002.7    386.46924 
  535000       534500   -10784.456    897.93915   -11682.395    4151.5841   -15833.979    91.423362     573.3918    478.61631    178.37369   -89.351601    441.26725   -302.71305      46.7237      46.7237      46.7237           90           90           90     102002.7    410.12727 
  536000       535500   -10770.097    915.69731   -11685.794    4162.5775   -15848.372    93.231403    518.22598    215.04984    340.89636    144.39479    121.54142   -17.042279      46.7237      46.7237      46.7237           90           90           90     102002.7    358.05739 
  537000       536500    -10806.73    894.22046   -11700.951    4161.5007   -15862.451    91.044745    190.15776   -167.48584    71.501289   -154.03084    -1.286113    41.880313      46.7237      46.7237      46.7237           90           90           90     102002.7    31.391072 
  538000       537500   -10824.641    860.01397   -11684.655    4165.6829   -15850.338    87.562023    255.58335    302.69288    118.58303    22.162984   -11.026551   -46.078338      46.7237      46.7237      46.7237           90           90           90     102002.7    225.61975 
  539000       538500    -10805.14     889.2646   -11694.405    4164.2032   -15858.608    90.540165    480.69487   -225.89367    562.37819   -111.73402    155.80041    65.247034      46.7237      46.7237      46.7237           90           90           90     102002.7    272.39313 
  540000       539500   -10772.791    904.30185   -11677.093    4169.8534   -15846.946    92.071177     137.9103   -72.401496    282.72347   -134.01687   -109.78498   -166.24728      46.7237      46.7237      46.7237           90           90           90     102002.7    116.07743 
  541000       540500   -10767.498    904.05637   -11671.554    4169.3384   -15840.892    92.046185    275.85973    377.78621    239.51886    46.061941    135.23424   -115.96524      46.7237      46.7237      46.7237           90           90           90     102002.7     297.7216 
  542000       541500   -10811.629    880.82554   -11692.454    4158.3881   -15850.842    89.680945    236.25798    321.75851    194.01305   -70.264124    160.47806   -47.667553      46.7237      46.7237      46.7237           90           90           90     102002.7    250.67652 
  543000       542500   -10779.419    906.14755   -11685.566    4165.4332       -15851    92.259097    418.70195    501.78773    343.18881    35.238857    49.340855    146.07221      46.7237      46.7237      46.7237           90           90           90     102002.7    421.22616 
  544000       543500   -10793.733    921.28145   -11715.015    4129.1931   -15844.208     93.79995    595.03051     475.7985    365.47061    219.74755   -28.850159   -69.850335      46.7237      46.7237      46.7237           90           90           90     102002.7    478.76654 
  545000       544500   -10803.057    894.13533   -11697.192    4165.8241   -15863.016    91.036077    269.91466   -25.648242    77.232978    46.652155   -2.8913793   -185.60043      46.7237      46.7237      46.7237           90           90           90     102002.7    107.16647 
  546000       545500   -10814.602    887.28507   -11701.887    4162.4569   -15864.344     90.33862    127.33857    92.227345    232.66112   -130.70997   -145.00559   -32.327387      46.7237      46.7237      46.7237           90           90           90     102002.7    150.74234 
  547000       546500   -10789.625    901.24001   -11690.865    4151.5373   -15842.403    91.759438    480.71575    112.10874    119.83571    154.01606    127.84986   -27.062297      46.7237      46.7237      46.7237           90           90           90     102002.7     237.5534 
  548000       547500   -10799.421    908.22859   -11707.649    4143.5549   -15851.204    92.470977    681.78306    323.76851    392.62317   -32.777398   -113.94591    123.11171      46.7237      46.7237      46.7237           90           90           90     102002.7    466.05824 
  549000       548500   -10773.134    914.54198   -11687.676    4156.0498   -15843.726    93.113773     459.8797   -225.93972    546.38386   -62.142549   -59.942691    66.196426      46.7237      46.7237      46.7237           90           90           90     102002.7    260.10795 
  550000       549500   -10803.944    893.80042   -11697.745    4172.1764   -15869.921    91.001979     448.8635    336.03305    316.92872   -173.32539   -357.18324    259.88262      46.7237      46.7237      46.7237           90           90           90     102002.7    367.27509 
  551000       550500   -10806.864    888.93674   -11695.801    4148.8401   -15844.641    90.506784    266.99908    302.32128     -117.642    48.204827   -87.642379    195.99441      46.7237      46.7237      46.7237           90           90           90     102002.7    150.55945 
  552000       551500   -10790.983    906.14479   -11697.128    4149.5941   -15846.722    92.258816    285.73526    526.46362    80.797017   -40.248741    117.06719   -8.1629487      46.7237      46.7237      46.7237           90           90           90     102002.7     297.6653 
  553000       552500   -10798.506     895.0075   -11693.513    4142.0822   -15835.595    91.124876    683.30486    251.34052    181.19354   -198.15917    123.59443   -78.016009      46.7237      46.7237      46.7237           90           90           90     102002.7    371.94631 
  554000       553500   -10793.687    900.75409   -11694.441    4160.7993    -15855.24    91.709964    370.68997    381.85399    74.011211    454.61259    26.958866   -35.539185      46.7237      46.7237      46.7237           90           90           90     102002.7    275.51839 
  555000       554500   -10771.278    914.67921   -11685.957    4151.5445   -15837.501    93.127746    323.31751    345.67111   -49.877014    33.733034    12.298878    149.82702      46.7237      46.7237      46.7237           90           90           90     102002.7    206.37054 
[...]
  936000       935500   -10788.444    879.72626   -11668.171    4159.5687   -15827.739    89.569022    42.893052    82.727112    237.87142    100.75887    84.606563   -169.70412      46.7237      46.7237      46.7237           90           90           90     102002.7    121.16386 
  937000       936500   -10799.928    904.03432   -11703.962    4137.4208   -15841.383    92.043939    370.98029    308.68906    554.63515   -300.23319    140.07668   -164.30879      46.7237      46.7237      46.7237           90           90           90     102002.7    411.43484 
  938000       937500   -10778.801    917.88003   -11696.681     4180.501   -15877.182    93.453636    572.53721    123.45182    227.59343   -2.4852751   -28.154593   -93.866503      46.7237      46.7237      46.7237           90           90           90     102002.7    307.86082 
  939000       938500    -10848.21    877.27704   -11725.487    4143.6241   -15869.111    89.319656     289.6801     61.01735    178.10182    24.863462   -139.68055    75.869163      46.7237      46.7237      46.7237           90           90           90     102002.7    176.26642 
  940000       939500   -10822.554    876.72319   -11699.277    4151.4671   -15850.744    89.263266    446.27158    471.39949    707.09392    43.351727   -54.047157   -1.3291513      46.7237      46.7237      46.7237           90           90           90     102002.7    541.58833 
  941000       940500   -10792.881    878.79814   -11671.679    4164.7434   -15836.423    89.474526   -100.35655   -94.431449    460.49716       129.21    199.69563   -93.852542      46.7237      46.7237      46.7237           90           90           90     102002.7    88.569719 
  942000       941500   -10786.851    896.69157   -11683.543    4154.6896   -15838.233     91.29634    153.43392   -37.811988    -200.6217    7.5564132    161.02866   -134.11639      46.7237      46.7237      46.7237           90           90           90     102002.7   -28.333254 
  943000       942500   -10797.938    889.93907   -11687.877    4149.0178   -15836.895    90.608836    349.11267   -71.137014    164.24684    65.071595     29.61427   -68.392875      46.7237      46.7237      46.7237           90           90           90     102002.7     147.4075 
  944000       943500   -10797.988    898.67465   -11696.663    4144.6522   -15841.315    91.498246     260.9589   -15.544637    248.82548     89.12693    66.986922    123.13795      46.7237      46.7237      46.7237           90           90           90     102002.7    164.74658 
  945000       944500   -10781.966    899.47647   -11681.443    4161.9782   -15843.421    91.579884    221.21199   -36.532805     308.9379    121.08191    34.639702    141.86073      46.7237      46.7237      46.7237           90           90           90     102002.7    164.53903 
  946000       945500   -10795.992    896.99552   -11692.987    4142.9468   -15835.934    91.327286    263.71487    244.68853   -173.50059    242.28665   -65.442709    56.687079      46.7237      46.7237      46.7237           90           90           90     102002.7    111.63427 
  947000       946500   -10817.086    890.18868   -11707.275    4135.6855    -15842.96     90.63425    196.28032    225.40816    732.11698   -70.081015    12.137915    25.768749      46.7237      46.7237      46.7237           90           90           90     102002.7    384.60182 
  948000       947500   -10801.097    907.00657   -11708.104    4130.8482   -15838.952    92.346558    586.87578    551.72483     742.0244     186.1953   -23.593933    91.699638      46.7237      46.7237      46.7237           90           90           90     102002.7      626.875 
  949000       948500   -10792.755    891.44612   -11684.201    4154.6252   -15838.827    90.762276    510.27996    909.61975    153.96516   -70.303634    119.08868    40.296646      46.7237      46.7237      46.7237           90           90           90     102002.7    524.62162 
  950000       949500   -10787.047    896.94301    -11683.99     4155.293   -15839.283     91.32194    174.46591    602.69591    339.08229    11.055145   -37.763262    139.09118      46.7237      46.7237      46.7237           90           90           90     102002.7    372.08137 
  951000       950500   -10821.036     874.5658   -11695.601    4159.7415   -15855.343    89.043613    713.01408    213.42391   -269.00914   -217.47586     5.611723   -157.51992      46.7237      46.7237      46.7237           90           90           90     102002.7    219.14295 
  952000       951500   -10822.244    885.24583   -11707.489    4149.0124   -15856.502    90.130996    202.59912    462.62895    565.99233   -12.569065    42.723631     143.1421      46.7237      46.7237      46.7237           90           90           90     102002.7     410.4068 
  953000       952500   -10785.648    894.96271    -11680.61    4165.1539   -15845.764    91.120317    548.84065    368.70607    765.83947   -117.70064   -89.329833    16.896384      46.7237      46.7237      46.7237           90           90           90     102002.7    561.12873 
  954000       953500   -10820.152    880.74508   -11700.897    4148.1911   -15849.088    89.672754   -61.730065      571.887    159.41518   -29.405126    95.337097    -0.612817      46.7237      46.7237      46.7237           90           90           90     102002.7    223.19071 
  955000       954500   -10794.649    897.86465   -11692.514    4159.0276   -15851.541    91.415776     192.9359    497.19012    487.69746   -54.107926    380.76057   -196.37486      46.7237      46.7237      46.7237           90           90           90     102002.7    392.60783 
  956000       955500   -10771.473    914.08146   -11685.554    4159.5213   -15845.076    93.066885    116.77533    163.63435    254.66446   -141.51235   -291.50659   -97.690055      46.7237      46.7237      46.7237           90           90           90     102002.7    178.35805 
  957000       956500    -10780.32    891.35315   -11671.674    4167.7251   -15839.399     90.75281    143.17574   -107.33921    836.84155    52.958381    112.57752    84.596566      46.7237      46.7237      46.7237           90           90           90     102002.7    290.89269 
  958000       957500   -10799.206    889.03362   -11688.239    4166.2339   -15854.473    90.516648    560.55441    123.35479    626.30645    34.821254   -116.87531   -178.32255      46.7237      46.7237      46.7237           90           90           90     102002.7    436.73855 
  959000       958500   -10798.786    881.55526   -11680.342    4158.0658   -15838.407    89.755242    523.59127    647.71252    456.52877   -86.577796    296.12562   -104.83017      46.7237      46.7237      46.7237           90           90           90     102002.7    542.61085 
  960000       959500   -10795.827    897.87003   -11693.697    4159.9668   -15853.664    91.416325   -31.044028    240.05866   -224.50012    89.579143   -100.77405    8.6903476      46.7237      46.7237      46.7237           90           90           90     102002.7   -5.1618296 
  961000       960500   -10780.944    893.78244   -11674.727    4175.5875   -15850.314    91.000148    470.85966    423.89661    238.01729   -190.95712    192.46966   -71.994983      46.7237      46.7237      46.7237           90           90           90     102002.7    377.59118 
  962000       961500   -10787.666    908.05098   -11695.717    4147.6012   -15843.318    92.452894   -23.930015    346.21241    390.99772    125.91555    123.49287    123.01137      46.7237      46.7237      46.7237           90           90           90     102002.7    237.76004 
  963000       962500   -10804.687    899.65289   -11704.339    4142.2244   -15846.564    91.597846    127.78421    200.48898      857.836    72.193691    96.677269    91.821497      46.7237      46.7237      46.7237           90           90           90     102002.7    395.36973 
  964000       963500   -10827.364    861.96515   -11689.329    4157.7833   -15847.112    87.760681    389.17178    489.82185    460.60041    70.379594    35.391821    100.15858      46.7237      46.7237      46.7237           90           90           90     102002.7    446.53135 
  965000       964500   -10777.919    900.29564   -11678.215    4162.8019   -15841.017    91.663287    318.49712    186.73457     605.8763   -265.25744    94.298492    202.44072      46.7237      46.7237      46.7237           90           90           90     102002.7    370.36933 
  966000       965500   -10817.358    889.38068   -11706.739    4137.8244   -15844.563    90.551984     381.3905    565.02707      768.627   -191.38351    13.301408     42.85084      46.7237      46.7237      46.7237           90           90           90     102002.7    571.68153 
  967000       966500   -10798.318    872.02131    -11670.34    4168.6811   -15839.021    88.784546    241.03748    334.18062    604.58211    -160.2283    177.28528    12.626149      46.7237      46.7237      46.7237           90           90           90     102002.7    393.26674 
  968000       967500   -10791.767    890.62145   -11682.389     4161.264   -15843.652    90.678312       460.25    109.70427    374.11532   -22.911498   -60.029659    74.009983      46.7237      46.7237      46.7237           90           90           90     102002.7    314.68987 
  969000       968500   -10813.727    896.11825   -11709.846    4133.5817   -15843.427    91.237968   -114.29947    537.93119    547.94457    215.61457  -0.64248702    -65.75836      46.7237      46.7237      46.7237           90           90           90     102002.7    323.85876 
  970000       969500   -10803.403    898.14053   -11701.544    4140.8259   -15842.369    91.443865    708.10747    777.47068    499.26161   -183.24247   -14.515223    76.919602      46.7237      46.7237      46.7237           90           90           90     102002.7    661.61325 
  971000       970500   -10778.594    906.79829   -11685.392    4161.9636   -15847.356    92.325352    378.33154    448.20608    43.790534    34.383174   -62.154626   -32.950403      46.7237      46.7237      46.7237           90           90           90     102002.7    290.10938 
  972000       971500   -10812.775    902.65777   -11715.433    4130.6995   -15846.133    91.903787   -220.58442    892.66679    61.402843    65.624228     23.30776    126.37918      46.7237      46.7237      46.7237           90           90           90     102002.7    244.49507 
  973000       972500   -10827.414     883.7057    -11711.12    4128.6623   -15839.782    89.974188    423.64771     503.1429    257.80804    87.809721    -44.34425     128.1496      46.7237      46.7237      46.7237           90           90           90     102002.7    394.86622 
  974000       973500    -10801.91    898.29657   -11700.207     4146.533    -15846.74    91.459752    203.81944     747.3109    431.33179    8.8902745   -44.540957    4.6221436      46.7237      46.7237      46.7237           90           90           90     102002.7    460.82071 
  975000       974500    -10817.78    883.63421   -11701.414    4148.6376   -15850.051     89.96691    391.02865    117.44438    199.38287   -220.70041   -192.71816    35.924654      46.7237      46.7237      46.7237           90           90           90     102002.7    235.95197 
  976000       975500   -10784.372    908.30702   -11692.679    4163.0093   -15855.688    92.478963    64.583639   -183.30688    260.04847    125.11553    131.47154   -24.878898      46.7237      46.7237      46.7237           90           90           90     102002.7    47.108407 
  977000       976500   -10814.931    887.16478   -11702.095    4145.2887   -15847.384    90.326372    731.76206    325.29769    454.48369    48.955989    38.101494     49.87088      46.7237      46.7237      46.7237           90           90           90     102002.7    503.84781 
  978000       977500    -10824.14    885.24021    -11709.38    4139.7367   -15849.117    90.130423    393.31959   -69.367978    448.59017     17.50862    -43.53438    120.89621      46.7237      46.7237      46.7237           90           90           90     102002.7    257.51393 
  979000       978500   -10791.545    884.89431   -11676.439    4164.8616   -15841.301    90.095206    59.401286    475.46608   -51.592738    89.983223   -54.569646    -138.8423      46.7237      46.7237      46.7237           90           90           90     102002.7    161.09154 
  980000       979500   -10781.681     909.0875   -11690.768    4145.9084   -15836.676    92.558427    231.37099    449.19525    368.63496    124.95718     78.99984   -77.741981      46.7237      46.7237      46.7237           90           90           90     102002.7    349.73373 
  981000       980500   -10799.343    891.80472   -11691.148    4178.2301   -15869.378    90.798787    99.233312    323.24478    126.65478   -125.51241   -173.45737   -163.58081      46.7237      46.7237      46.7237           90           90           90     102002.7    183.04429 
  982000       981500   -10808.751    879.09924    -11687.85    4165.4642   -15853.314    89.505183    508.75241    53.191853    378.22254    -247.8429    106.80534    185.88454      46.7237      46.7237      46.7237           90           90           90     102002.7    313.38893 
  983000       982500   -10779.195    909.47893   -11688.674    4173.7429   -15862.417     92.59828    348.07702    449.77083    477.79997    62.287952    46.862792    80.364915      46.7237      46.7237      46.7237           90           90           90     102002.7    425.21594 
  984000       983500   -10811.415    868.91346   -11680.329    4160.3343   -15840.663    88.468122    404.10687    337.72347    542.05898   -282.99095    22.011819   -31.643458      46.7237      46.7237      46.7237           90           90           90     102002.7    427.96311 
  985000       984500   -10822.881    886.79787   -11709.679    4146.0359   -15855.715    90.289016    254.08137    259.76786    675.34247    65.329293    244.71075   -105.60123      46.7237      46.7237      46.7237           90           90           90     102002.7    396.39723 
  986000       985500   -10781.754    892.68784   -11674.442     4165.833   -15840.275    90.888701     207.8097    943.81734     865.9112    252.60756   -170.50454   -76.245762      46.7237      46.7237      46.7237           90           90           90     102002.7    672.51275 
  987000       986500   -10814.318    900.71175    -11715.03    4152.8304    -15867.86    91.705653    187.29447   -10.125407    440.37022   -192.16904    37.660572   -424.46863      46.7237      46.7237      46.7237           90           90           90     102002.7    205.84643 
  988000       987500    -10786.17    917.57597   -11703.746    4146.3844    -15850.13    93.422678    1.0232705    305.71648    444.32014   -58.538894    32.143905   -68.366062      46.7237      46.7237      46.7237           90           90           90     102002.7     250.3533 
  989000       988500   -10829.567    873.71559   -11703.282    4169.2426   -15872.525    88.957048    471.64577   -2.5786691    327.77773    27.726588   -104.28714    12.156433      46.7237      46.7237      46.7237           90           90           90     102002.7    265.61494 
  990000       989500   -10802.738    908.39241   -11711.131    4140.5881   -15851.719    92.487656    254.99239   -83.883476    252.79236    4.6000352    30.401382    112.93308      46.7237      46.7237      46.7237           90           90           90     102002.7    141.30042 
  991000       990500   -10803.478    899.68301   -11703.161    4147.1689    -15850.33    91.600912    388.62807    276.69465    537.53837    -291.2005    3.8074314     21.61002      46.7237      46.7237      46.7237           90           90           90     102002.7     400.9537 
  992000       991500   -10791.642    901.16074   -11692.802     4156.811   -15849.613    91.751367    292.55545    569.35626    475.58514   -229.45459    4.2916013     -77.8011      46.7237      46.7237      46.7237           90           90           90     102002.7    445.83228 
  993000       992500   -10760.682    918.89017   -11679.572    4173.5394   -15853.111    93.556483   -146.09481    426.06412    519.09896   -106.86148   -169.27426    218.83207      46.7237      46.7237      46.7237           90           90           90     102002.7    266.35609 
  994000       993500    -10804.34    893.13002    -11697.47    4160.5699    -15858.04    90.933722     581.5366    774.14335    488.83736    -34.10529    161.50023    10.031299      46.7237      46.7237      46.7237           90           90           90     102002.7     614.8391 
  995000       994500   -10793.522    891.78043   -11685.303    4173.6149   -15858.918    90.796314   -81.886576   -14.707692    453.16273   -24.015547    215.53329   -306.16579      46.7237      46.7237      46.7237           90           90           90     102002.7    118.85615 
  996000       995500   -10818.911    898.42984   -11717.341    4142.0074   -15859.349    91.473321    55.971585    152.42065    488.24742    212.58563    107.45505   -178.54389      46.7237      46.7237      46.7237           90           90           90     102002.7    232.21322 
  997000       996500   -10796.421    901.85653   -11698.277    4147.9175   -15846.195    91.822209    583.61778    834.82413     197.2987    11.936626   -120.11126   -188.89332      46.7237      46.7237      46.7237           90           90           90     102002.7     538.5802 
  998000       997500   -10831.942    888.02063   -11719.963    4145.1458   -15865.109    90.413511    285.13663   -32.354418    121.03814   -132.65172   -11.532056   -73.195451      46.7237      46.7237      46.7237           90           90           90     102002.7    124.60678 
  999000       998500   -10800.061    893.95494   -11694.015    4182.7565   -15876.772    91.017711    100.07988   -86.882643   -3.4142835   -177.85783     279.0609   -96.757934      46.7237      46.7237      46.7237           90           90           90     102002.7    3.2609831 
 1000000       999500   -10809.154     897.2047   -11706.358    4156.7376   -15863.096    91.348584    667.78117     388.7917    14.688664   -8.8450763   -11.036947   -139.38915      46.7237      46.7237      46.7237           90           90           90     102002.7    357.08718 
 1000500      1000000   -10801.445    890.84198   -11692.287    4160.2495   -15852.537    90.700766    551.44574     397.3862    819.23415   -297.29084    136.52477    103.78923      46.7237      46.7237      46.7237           90           90           90     102002.7    589.35537 
Loop time of 2487.18 on 16 procs for 500000 steps with 3296 atoms

Performance: 17.369 ns/day, 1.382 hours/ns, 201.031 timesteps/s
99.8% CPU use with 16 MPI tasks x no OpenMP threads

MPI task timing breakdown:
Section |  min time  |  avg time  |  max time  |%varavg| %total
---------------------------------------------------------------
Pair    | 920.43     | 1525.5     | 1994.1     | 853.1 | 61.34
Bond    | 86.935     | 183.96     | 255.47     | 329.9 |  7.40
Neigh   | 15.682     | 15.75      | 15.828     |   1.5 |  0.63
Comm    | 187.48     | 728.95     | 1429.5     |1389.3 | 29.31
Output  | 0.13665    | 0.14469    | 0.14536    |   0.5 |  0.01
Modify  | 22.866     | 25.882     | 27.548     |  33.8 |  1.04
Other   |            | 6.956      |            |       |  0.28

Nlocal:    206 ave 260 max 162 min
Histogram: 1 2 2 3 2 1 2 1 1 1
Nghost:    4158.88 ave 4190 max 4114 min
Histogram: 1 1 1 1 2 0 4 2 1 3
Neighs:    11467.9 ave 19296 max 4334 min
Histogram: 1 2 4 1 1 1 1 1 1 3

Total # of neighbors = 183487
Ave neighs/atom = 55.6696
Ave special neighs/atom = 3.49515
Neighbor list builds = 4111
Dangerous builds = 0
Total wall time: 1:16:14
