LAMMPS (30 Mar 2018)
Reading data file ...
  orthogonal box = (0 0 0) to (46.7237 46.7237 46.7237)
  2 by 2 by 4 MPI processor grid
  reading atoms ...
  3332 atoms
  scanning bonds ...
  5 = max bonds/atom
  scanning angles ...
  10 = max angles/atom
  scanning dihedrals ...
  32 = max dihedrals/atom
  scanning impropers ...
  3 = max impropers/atom
  reading bonds ...
  2064 bonds
  reading angles ...
  3696 angles
  reading dihedrals ...
  6240 dihedrals
  reading impropers ...
  1008 impropers
Finding 1-2 1-3 1-4 neighbors ...
  special bond factors lj:   0          0          0         
  special bond factors coul: 0          0          0         
  5 = max # of 1-2 neighbors
  8 = max # of 1-3 neighbors
  20 = max # of 1-4 neighbors
  19 = max # of special neighbors
Finding 1-2 1-3 1-4 neighbors ...
  special bond factors lj:   0          0          1         
  special bond factors coul: 1          1          1         
  5 = max # of 1-2 neighbors
  8 = max # of 1-3 neighbors
  19 = max # of special neighbors
WARNING: Using 'neigh_modify every 1 delay 0 check yes' setting during minimization (../min.cpp:168)
Neighbor list info ...
  update every 1 steps, delay 0 steps, check yes
  max neighbors/atom: 2000, page size: 100000
  master list distance cutoff = 16
  ghost atom cutoff = 16
  binsize = 8, bins = 6 6 6
  3 neighbor lists, perpetual/occasional/extra = 3 0 0
  (1) pair buck6d/coul/gauss/dsf, perpetual, skip from (3)
      attributes: half, newton on
      pair build: skip
      stencil: none
      bin: none
  (2) pair lj/cut, perpetual, skip from (3)
      attributes: half, newton on
      pair build: skip
      stencil: none
      bin: none
  (3) neighbor class addition, perpetual
      attributes: half, newton on
      pair build: half/bin/newton
      stencil: half/bin/3d/newton
      bin: standard
Setting up cg style minimization ...
  Unit style    : real
  Current step  : 0
WARNING: Inconsistent image flags (../domain.cpp:786)
Per MPI rank memory allocation (min/avg/max) = 23.03 | 23.48 | 23.93 Mbytes
Step Temp E_pair E_mol TotEng Press 
       0            0   -16017.778    6482.8914   -9534.8871    6776.6051 
     500            0   -16385.989    3774.5003   -12611.488    -1078.526 
Loop time of 4.67393 on 16 procs for 500 steps with 3332 atoms

99.9% CPU use with 16 MPI tasks x no OpenMP threads

Minimization stats:
  Stopping criterion = max force evaluations
  Energy initial, next-to-last, final = 
        -9534.88705649     -12611.4342054     -12611.4884163
  Force two-norm initial, final = 2575.06 9.99332
  Force max component initial, final = 152.068 0.866948
  Final line search alpha, max atom move = 0.0107151 0.00928942
  Iterations, force evaluations = 500 1000

MPI task timing breakdown:
Section |  min time  |  avg time  |  max time  |%varavg| %total
---------------------------------------------------------------
Pair    | 2.5505     | 3.1587     | 3.846      |  17.9 | 67.58
Bond    | 0.25289    | 0.36015    | 0.45129    |   8.1 |  7.71
Neigh   | 0.029369   | 0.029404   | 0.029454   |   0.0 |  0.63
Comm    | 0.33706    | 1.079      | 1.6752     |  32.3 | 23.09
Output  | 0          | 0          | 0          |   0.0 |  0.00
Modify  | 0          | 0          | 0          |   0.0 |  0.00
Other   |            | 0.04665    |            |       |  1.00

Nlocal:    208.25 ave 234 max 182 min
Histogram: 1 1 3 2 0 3 1 3 1 1
Nghost:    4153.62 ave 4186 max 4122 min
Histogram: 1 0 4 1 1 4 1 2 1 1
Neighs:    11500.6 ave 16361 max 7499 min
Histogram: 1 3 1 2 3 2 1 0 1 2

Total # of neighbors = 184009
Ave neighs/atom = 55.2248
Ave special neighs/atom = 3.45738
Neighbor list builds = 8
Dangerous builds = 0
Neighbor list info ...
  update every 1 steps, delay 10 steps, check yes
  max neighbors/atom: 2000, page size: 100000
  master list distance cutoff = 16
  ghost atom cutoff = 16
  binsize = 8, bins = 6 6 6
  3 neighbor lists, perpetual/occasional/extra = 3 0 0
  (1) pair buck6d/coul/gauss/dsf, perpetual, skip from (3)
      attributes: half, newton on
      pair build: skip
      stencil: none
      bin: none
  (2) pair lj/cut, perpetual, skip from (3)
      attributes: half, newton on
      pair build: skip
      stencil: none
      bin: none
  (3) neighbor class addition, perpetual
      attributes: half, newton on
      pair build: half/bin/newton
      stencil: half/bin/3d/newton
      bin: standard
Setting up Verlet run ...
  Unit style    : real
  Current step  : 500
  Time step     : 1
WARNING: Inconsistent image flags (../domain.cpp:786)
Per MPI rank memory allocation (min/avg/max) = 22.67 | 22.74 | 22.8 Mbytes
Step Temp PotEng TotEng Press Volume Lx Ly Lz 
     500           91   -12611.488   -11707.942   -673.60384     102002.7      46.7237      46.7237      46.7237 
    1000    76.520368   -11862.307   -11102.531    379.59602     102002.7      46.7237      46.7237      46.7237 
    2000    91.837089   -11711.167    -10799.31    628.48596     102002.7      46.7237      46.7237      46.7237 
    3000    92.701512    -11749.95   -10829.509    909.06948     102002.7      46.7237      46.7237      46.7237 
    4000    91.464282   -11736.484   -10828.328    679.71464     102002.7      46.7237      46.7237      46.7237 
    5000    89.800077   -11744.703   -10853.071    865.67156     102002.7      46.7237      46.7237      46.7237 
    6000    91.982208   -11721.882   -10808.584    966.01745     102002.7      46.7237      46.7237      46.7237 
    7000    92.612279   -11729.354     -10809.8    559.58017     102002.7      46.7237      46.7237      46.7237 
    8000     90.45432   -11742.649   -10844.521    616.65078     102002.7      46.7237      46.7237      46.7237 
    9000     91.40988   -11723.224   -10815.608    553.61885     102002.7      46.7237      46.7237      46.7237 
   10000    93.374166   -11763.899   -10836.779    445.29371     102002.7      46.7237      46.7237      46.7237 
   11000    90.489716   -11736.412   -10837.932    698.40653     102002.7      46.7237      46.7237      46.7237 
   12000    91.109584   -11768.588   -10863.953    386.13437     102002.7      46.7237      46.7237      46.7237 
   13000    90.348091   -11748.903    -10851.83    766.87041     102002.7      46.7237      46.7237      46.7237 
   14000    91.378632    -11744.28   -10836.974       763.95     102002.7      46.7237      46.7237      46.7237 
   15000     92.40428   -11765.141   -10847.651    478.98552     102002.7      46.7237      46.7237      46.7237 
   16000    90.843545   -11768.822   -10866.829    769.02006     102002.7      46.7237      46.7237      46.7237 
   17000    89.028536   -11733.735   -10849.763     516.4556     102002.7      46.7237      46.7237      46.7237 
   18000    91.226573   -11774.086    -10868.29    428.98764     102002.7      46.7237      46.7237      46.7237 
   19000    90.101188   -11732.431   -10837.809    802.62956     102002.7      46.7237      46.7237      46.7237 
   20000    92.381876   -11743.495   -10826.228     800.0968     102002.7      46.7237      46.7237      46.7237 
   21000    92.594445   -11726.778     -10807.4    699.31935     102002.7      46.7237      46.7237      46.7237 
   22000    90.940817   -11748.919   -10845.961     599.8309     102002.7      46.7237      46.7237      46.7237 
   23000    89.639222   -11755.654   -10865.619    679.53657     102002.7      46.7237      46.7237      46.7237 
   24000    92.336488   -11732.632   -10815.816     736.4489     102002.7      46.7237      46.7237      46.7237 
   25000    90.291604   -11749.297   -10852.785    649.83413     102002.7      46.7237      46.7237      46.7237 
   26000    92.769551   -11753.523   -10832.406    714.37473     102002.7      46.7237      46.7237      46.7237 
   27000    93.697496   -11763.572   -10833.242    719.06349     102002.7      46.7237      46.7237      46.7237 
   28000    90.002591   -11758.972    -10865.33    818.83673     102002.7      46.7237      46.7237      46.7237 
   29000    93.991363   -11755.129   -10821.882    760.60814     102002.7      46.7237      46.7237      46.7237 
   30000    91.834619   -11778.833       -10867    611.98502     102002.7      46.7237      46.7237      46.7237 
   31000    92.369333   -11748.758   -10831.616    534.65104     102002.7      46.7237      46.7237      46.7237 
   32000    91.904409   -11742.599   -10830.073     434.8547     102002.7      46.7237      46.7237      46.7237 
   33000    89.889992   -11769.121   -10876.596    662.72131     102002.7      46.7237      46.7237      46.7237 
   34000    89.849963   -11747.578   -10855.451    424.17515     102002.7      46.7237      46.7237      46.7237 
   35000    91.412312   -11748.394   -10840.754    773.30476     102002.7      46.7237      46.7237      46.7237 
   36000    89.600779   -11751.469   -10861.815    963.22227     102002.7      46.7237      46.7237      46.7237 
   37000    90.009054   -11768.183   -10874.476    701.20976     102002.7      46.7237      46.7237      46.7237 
   38000     90.88348   -11780.088   -10877.699     620.7192     102002.7      46.7237      46.7237      46.7237 
   39000    92.079845   -11763.813   -10849.545    870.76843     102002.7      46.7237      46.7237      46.7237 
   40000    92.950877   -11753.102   -10830.185    715.06838     102002.7      46.7237      46.7237      46.7237 
   41000    90.889954   -11770.285   -10867.832    898.57456     102002.7      46.7237      46.7237      46.7237 
   42000    94.018757   -11759.693   -10826.173    519.30967     102002.7      46.7237      46.7237      46.7237 
   43000    91.360022   -11739.718   -10832.597    492.75346     102002.7      46.7237      46.7237      46.7237 
   44000    91.352069   -11753.124   -10846.082    617.51759     102002.7      46.7237      46.7237      46.7237 
   45000    88.815763   -11757.761   -10875.903    245.08747     102002.7      46.7237      46.7237      46.7237 
   46000    93.184559   -11741.718   -10816.481    815.86513     102002.7      46.7237      46.7237      46.7237 
   47000    92.725432   -11765.695   -10845.017    608.47204     102002.7      46.7237      46.7237      46.7237 
   48000    91.103096   -11755.301   -10850.731    659.67406     102002.7      46.7237      46.7237      46.7237 
   49000      90.2338   -11795.008    -10899.07      704.997     102002.7      46.7237      46.7237      46.7237 
   50000    89.235771   -11753.853   -10867.824    741.59844     102002.7      46.7237      46.7237      46.7237 
   51000    92.202393   -11741.217   -10825.732    677.68449     102002.7      46.7237      46.7237      46.7237 
   52000    90.443536   -11751.235   -10853.214    744.48963     102002.7      46.7237      46.7237      46.7237 
   53000    91.933906   -11772.278   -10859.459    425.48237     102002.7      46.7237      46.7237      46.7237 
   54000    89.653284   -11765.127   -10874.952     653.7349     102002.7      46.7237      46.7237      46.7237 
   55000    91.384678   -11766.959   -10859.593    663.32932     102002.7      46.7237      46.7237      46.7237 
   56000    91.827074   -11760.652   -10848.894     764.0882     102002.7      46.7237      46.7237      46.7237 
   57000     89.88403   -11773.903   -10881.437    532.69279     102002.7      46.7237      46.7237      46.7237 
   58000    91.101489   -11757.979   -10853.425    731.05656     102002.7      46.7237      46.7237      46.7237 
   59000    89.940851   -11748.066   -10855.036    524.60005     102002.7      46.7237      46.7237      46.7237 
   60000    90.144112   -11775.189   -10880.141     608.9631     102002.7      46.7237      46.7237      46.7237 
   61000    89.959628   -11779.335   -10886.119    665.18607     102002.7      46.7237      46.7237      46.7237 
   62000    90.263092   -11747.953   -10851.724    493.20062     102002.7      46.7237      46.7237      46.7237 
   63000    91.608337   -11777.036   -10867.449    802.34726     102002.7      46.7237      46.7237      46.7237 
   64000    91.035511   -11752.277   -10848.378    1009.2089     102002.7      46.7237      46.7237      46.7237 
   65000    90.145465    -11764.49   -10869.429     723.5974     102002.7      46.7237      46.7237      46.7237 
   66000    91.327546   -11780.358    -10873.56    648.24321     102002.7      46.7237      46.7237      46.7237 
   67000    92.084464    -11767.43   -10853.116    611.14924     102002.7      46.7237      46.7237      46.7237 
   68000    88.806429   -11736.699   -10854.933    567.75637     102002.7      46.7237      46.7237      46.7237 
   69000    92.437648   -11760.942   -10843.121    826.76994     102002.7      46.7237      46.7237      46.7237 
   70000    89.812568   -11771.766    -10880.01    883.67907     102002.7      46.7237      46.7237      46.7237 
   71000    90.442336   -11777.741   -10879.732    381.75912     102002.7      46.7237      46.7237      46.7237 
   72000      91.2239   -11767.519    -10861.75    739.34097     102002.7      46.7237      46.7237      46.7237 
   73000    88.130665   -11770.428   -10895.372    464.76921     102002.7      46.7237      46.7237      46.7237 
   74000    90.016743   -11764.706   -10870.923    769.57582     102002.7      46.7237      46.7237      46.7237 
   75000    92.043656    -11773.08   -10859.172    740.57678     102002.7      46.7237      46.7237      46.7237 
   76000    91.851248   -11779.189   -10867.191    808.11877     102002.7      46.7237      46.7237      46.7237 
   77000    92.772429   -11753.214   -10832.069    773.59184     102002.7      46.7237      46.7237      46.7237 
   78000    90.663492   -11784.448   -10884.243      418.997     102002.7      46.7237      46.7237      46.7237 
   79000    92.079563   -11779.677   -10865.412    570.49207     102002.7      46.7237      46.7237      46.7237 
   80000    89.334429   -11766.069   -10879.061    704.95771     102002.7      46.7237      46.7237      46.7237 
   81000    94.011223   -11771.306   -10837.861    475.86346     102002.7      46.7237      46.7237      46.7237 
   82000    92.544228   -11758.215   -10839.336    561.45975     102002.7      46.7237      46.7237      46.7237 
   83000     94.06963   -11750.462   -10816.438    840.70694     102002.7      46.7237      46.7237      46.7237 
   84000    90.221695   -11772.083   -10876.265    742.49849     102002.7      46.7237      46.7237      46.7237 
   85000     89.68517   -11750.207   -10859.716    755.70818     102002.7      46.7237      46.7237      46.7237 
   86000    90.730739   -11781.803   -10880.931    723.47507     102002.7      46.7237      46.7237      46.7237 
   87000    91.026075   -11747.936   -10844.131    1036.3313     102002.7      46.7237      46.7237      46.7237 
   88000    92.152735   -11775.854   -10860.862    973.17661     102002.7      46.7237      46.7237      46.7237 
   89000    91.580622   -11756.922    -10847.61    796.76938     102002.7      46.7237      46.7237      46.7237 
   90000    88.669791   -11775.578   -10895.169    908.37268     102002.7      46.7237      46.7237      46.7237 
   91000    91.374072   -11768.806   -10861.546    624.06343     102002.7      46.7237      46.7237      46.7237 
   92000     90.35531   -11786.321   -10889.176    531.04792     102002.7      46.7237      46.7237      46.7237 
   93000    93.602186   -11751.154   -10821.771    848.70845     102002.7      46.7237      46.7237      46.7237 
   94000    92.246336   -11786.736   -10870.815    972.58194     102002.7      46.7237      46.7237      46.7237 
   95000    91.881581   -11756.302   -10844.003    1132.2792     102002.7      46.7237      46.7237      46.7237 
   96000     89.70037   -11766.605   -10875.963    418.95428     102002.7      46.7237      46.7237      46.7237 
   97000    91.697684   -11779.889   -10869.416    520.00017     102002.7      46.7237      46.7237      46.7237 
   98000    90.802724   -11805.519   -10903.932    627.88411     102002.7      46.7237      46.7237      46.7237 
   99000    88.642936   -11773.123    -10892.98    530.84149     102002.7      46.7237      46.7237      46.7237 
  100000    91.115964   -11772.208    -10867.51    712.17711     102002.7      46.7237      46.7237      46.7237 
  101000    90.264342   -11769.176   -10872.934     905.6196     102002.7      46.7237      46.7237      46.7237 
  102000     92.04682   -11774.322   -10860.382    753.40172     102002.7      46.7237      46.7237      46.7237 
  103000    90.770872   -11762.042   -10860.771    651.00127     102002.7      46.7237      46.7237      46.7237 
  104000     90.88129   -11770.779   -10868.411    902.71923     102002.7      46.7237      46.7237      46.7237 
  105000    91.304664   -11756.246   -10849.674     617.6746     102002.7      46.7237      46.7237      46.7237 
  106000    92.833199   -11773.331   -10851.583    513.65898     102002.7      46.7237      46.7237      46.7237 
  107000    91.251864   -11774.155   -10868.108    600.27249     102002.7      46.7237      46.7237      46.7237 
  108000    92.388374   -11790.605   -10873.274    432.02834     102002.7      46.7237      46.7237      46.7237 
  109000    90.350023   -11785.203    -10888.11    486.67007     102002.7      46.7237      46.7237      46.7237 
  110000    92.482733    -11779.57   -10861.302    692.28419     102002.7      46.7237      46.7237      46.7237 
  111000    90.119239   -11768.127   -10873.326    562.83585     102002.7      46.7237      46.7237      46.7237 
  112000    91.864218   -11780.535   -10868.408    830.27055     102002.7      46.7237      46.7237      46.7237 
  113000    93.414108   -11768.288   -10840.772    445.36787     102002.7      46.7237      46.7237      46.7237 
  114000     91.68416   -11788.096   -10877.757    654.76096     102002.7      46.7237      46.7237      46.7237 
  115000    91.886402   -11763.498   -10851.151    945.88219     102002.7      46.7237      46.7237      46.7237 
  116000    91.467898   -11792.027   -10883.835    896.02132     102002.7      46.7237      46.7237      46.7237 
  117000    92.659118   -11751.205   -10831.185    606.35784     102002.7      46.7237      46.7237      46.7237 
  118000    90.219047   -11791.615   -10895.823    626.77866     102002.7      46.7237      46.7237      46.7237 
  119000    89.757542   -11761.546   -10870.336    501.45311     102002.7      46.7237      46.7237      46.7237 
  120000    91.049531    -11769.42   -10865.383    690.95135     102002.7      46.7237      46.7237      46.7237 
  121000    89.839714   -11787.124   -10895.099     670.2948     102002.7      46.7237      46.7237      46.7237 
  122000    92.420982   -11775.574   -10857.919    559.80514     102002.7      46.7237      46.7237      46.7237 
  123000    90.968382   -11761.808   -10858.576     710.6149     102002.7      46.7237      46.7237      46.7237 
  124000    87.947714    -11760.51    -10887.27     735.1965     102002.7      46.7237      46.7237      46.7237 
  125000    90.737812   -11785.599   -10884.657    761.29312     102002.7      46.7237      46.7237      46.7237 
  126000     90.57749   -11779.823   -10880.472    825.26243     102002.7      46.7237      46.7237      46.7237 
  127000    91.859779   -11777.497   -10865.414    529.32294     102002.7      46.7237      46.7237      46.7237 
  128000    91.245073   -11807.201   -10901.221    550.84274     102002.7      46.7237      46.7237      46.7237 
  129000     91.64564   -11783.436    -10873.48    575.09772     102002.7      46.7237      46.7237      46.7237 
  130000    89.418521   -11783.706   -10895.863    803.90718     102002.7      46.7237      46.7237      46.7237 
  131000    89.815755   -11781.619   -10889.832    640.72777     102002.7      46.7237      46.7237      46.7237 
  132000    88.803281   -11799.184    -10917.45     700.2076     102002.7      46.7237      46.7237      46.7237 
  133000     92.61736   -11781.437   -10861.832    919.80983     102002.7      46.7237      46.7237      46.7237 
  134000    89.224817   -11780.628   -10894.707     948.5713     102002.7      46.7237      46.7237      46.7237 
  135000    89.933571    -11769.23   -10876.273    756.24941     102002.7      46.7237      46.7237      46.7237 
  136000    91.855853   -11794.425   -10882.381    609.78213     102002.7      46.7237      46.7237      46.7237 
  137000    89.949213   -11778.839   -10885.726    561.51842     102002.7      46.7237      46.7237      46.7237 
  138000    90.895765   -11780.705   -10878.194    1041.0104     102002.7      46.7237      46.7237      46.7237 
  139000    90.934897   -11776.037   -10873.137    795.26386     102002.7      46.7237      46.7237      46.7237 
  140000    92.870852   -11788.233   -10866.111      666.644     102002.7      46.7237      46.7237      46.7237 
  141000    88.940009   -11779.644   -10896.551    701.54548     102002.7      46.7237      46.7237      46.7237 
  142000    93.577599   -11781.189   -10852.049    573.79471     102002.7      46.7237      46.7237      46.7237 
  143000    91.000794   -11771.806   -10868.252    586.38611     102002.7      46.7237      46.7237      46.7237 
  144000    91.820053   -11773.218    -10861.53    788.34722     102002.7      46.7237      46.7237      46.7237 
  145000    93.145628   -11780.103   -10855.252    631.04617     102002.7      46.7237      46.7237      46.7237 
  146000     91.55079   -11790.495    -10881.48     838.8393     102002.7      46.7237      46.7237      46.7237 
  147000    92.148819   -11771.979   -10857.027    663.55414     102002.7      46.7237      46.7237      46.7237 
  148000    89.570981   -11771.941   -10882.584    519.87958     102002.7      46.7237      46.7237      46.7237 
  149000    89.534802   -11804.456   -10915.458    564.72183     102002.7      46.7237      46.7237      46.7237 
  150000     92.63287   -11789.681   -10869.922    640.65768     102002.7      46.7237      46.7237      46.7237 
  151000    91.364292   -11766.134    -10858.97     718.6952     102002.7      46.7237      46.7237      46.7237 
  152000    90.655376   -11791.911   -10891.787    513.37982     102002.7      46.7237      46.7237      46.7237 
  153000     91.06394   -11763.414   -10859.233    509.50854     102002.7      46.7237      46.7237      46.7237 
  154000    91.979703   -11767.812   -10854.538    686.80209     102002.7      46.7237      46.7237      46.7237 
  155000    90.889997   -11762.675   -10860.222      758.786     102002.7      46.7237      46.7237      46.7237 
  156000    92.722974   -11782.029   -10861.376    728.01658     102002.7      46.7237      46.7237      46.7237 
  157000    92.201136    -11781.37   -10865.898    609.00468     102002.7      46.7237      46.7237      46.7237 
  158000     89.87002   -11815.755   -10923.429    385.37449     102002.7      46.7237      46.7237      46.7237 
  159000    90.522188   -11786.656   -10887.854    636.41346     102002.7      46.7237      46.7237      46.7237 
  160000     91.13125   -11767.171   -10862.322    382.04789     102002.7      46.7237      46.7237      46.7237 
  161000    90.959889   -11789.954   -10886.807    542.73411     102002.7      46.7237      46.7237      46.7237 
  162000    91.286531   -11777.198   -10870.807    609.73916     102002.7      46.7237      46.7237      46.7237 
  163000    91.867226   -11783.079   -10870.922    608.11924     102002.7      46.7237      46.7237      46.7237 
  164000    89.785582   -11778.231   -10886.743    807.18379     102002.7      46.7237      46.7237      46.7237 
  165000    93.877947   -11774.217   -10842.095    761.95737     102002.7      46.7237      46.7237      46.7237 
  166000    90.311955   -11767.333   -10870.619       629.62     102002.7      46.7237      46.7237      46.7237 
  167000    93.231281   -11787.374   -10861.674    525.91723     102002.7      46.7237      46.7237      46.7237 
  168000    90.761324   -11802.071   -10900.895    668.02455     102002.7      46.7237      46.7237      46.7237 
  169000    92.281648   -11785.151    -10868.88    740.83643     102002.7      46.7237      46.7237      46.7237 
  170000    89.381203   -11764.812   -10877.339    767.98676     102002.7      46.7237      46.7237      46.7237 
  171000     91.81353   -11768.915   -10857.291     495.1711     102002.7      46.7237      46.7237      46.7237 
  172000     90.46083   -11777.978   -10879.785    767.25106     102002.7      46.7237      46.7237      46.7237 
  173000    93.450631   -11777.774   -10849.896    570.46733     102002.7      46.7237      46.7237      46.7237 
  174000    90.207079   -11780.931   -10885.258    810.05747     102002.7      46.7237      46.7237      46.7237 
  175000    92.660875   -11757.354   -10837.317    904.24562     102002.7      46.7237      46.7237      46.7237 
  176000     89.44193   -11775.002   -10886.926    1017.5707     102002.7      46.7237      46.7237      46.7237 
  177000    88.642951    -11761.33   -10881.188      803.942     102002.7      46.7237      46.7237      46.7237 
  178000    91.137529   -11778.539   -10873.628    884.03229     102002.7      46.7237      46.7237      46.7237 
  179000    91.528591   -11800.755   -10891.961    945.54348     102002.7      46.7237      46.7237      46.7237 
  180000    91.252283   -11785.779   -10879.728    663.09366     102002.7      46.7237      46.7237      46.7237 
  181000    91.312034    -11762.29   -10855.646    685.79943     102002.7      46.7237      46.7237      46.7237 
  182000    90.032002   -11790.755   -10896.821    887.77962     102002.7      46.7237      46.7237      46.7237 
  183000    90.383642   -11785.217   -10887.791    787.82069     102002.7      46.7237      46.7237      46.7237 
  184000    90.743203   -11790.435   -10889.439    745.18579     102002.7      46.7237      46.7237      46.7237 
  185000    92.981559   -11802.882   -10879.661     736.0247     102002.7      46.7237      46.7237      46.7237 
  186000    90.756367   -11770.952   -10869.825    575.39783     102002.7      46.7237      46.7237      46.7237 
  187000    91.131002   -11774.423   -10869.576    866.28115     102002.7      46.7237      46.7237      46.7237 
  188000    91.321717   -11778.701   -10871.961    644.73617     102002.7      46.7237      46.7237      46.7237 
  189000    94.504284   -11770.859   -10832.519     526.6021     102002.7      46.7237      46.7237      46.7237 
  190000    90.193774    -11804.54   -10908.999    567.85933     102002.7      46.7237      46.7237      46.7237 
  191000      88.8697   -11780.902   -10898.508    608.30464     102002.7      46.7237      46.7237      46.7237 
  192000    90.300463   -11789.126   -10892.526    903.62202     102002.7      46.7237      46.7237      46.7237 
  193000    93.274208    -11770.24   -10844.114    783.63978     102002.7      46.7237      46.7237      46.7237 
  194000    90.183067   -11788.109   -10892.674    978.17993     102002.7      46.7237      46.7237      46.7237 
  195000    92.049904   -11784.071     -10870.1    962.44497     102002.7      46.7237      46.7237      46.7237 
  196000    93.086127   -11791.706   -10867.446    620.73871     102002.7      46.7237      46.7237      46.7237 
  197000    89.922205   -11770.502   -10877.657    819.25798     102002.7      46.7237      46.7237      46.7237 
  198000    92.651476   -11764.466   -10844.523    657.93786     102002.7      46.7237      46.7237      46.7237 
  199000    91.075989   -11799.038   -10894.737    652.20886     102002.7      46.7237      46.7237      46.7237 
  200000    89.697066   -11782.088   -10891.479    948.46335     102002.7      46.7237      46.7237      46.7237 
  201000    91.121055    -11792.74   -10887.992    634.18809     102002.7      46.7237      46.7237      46.7237 
  202000    92.154164   -11791.176    -10876.17    748.43307     102002.7      46.7237      46.7237      46.7237 
  203000    89.670731   -11785.768    -10895.42    762.62509     102002.7      46.7237      46.7237      46.7237 
  204000    87.784165   -11758.609   -10886.993    702.91338     102002.7      46.7237      46.7237      46.7237 
  205000      91.5623   -11792.114   -10882.985    630.78116     102002.7      46.7237      46.7237      46.7237 
  206000    89.634574   -11807.692   -10917.703     565.5933     102002.7      46.7237      46.7237      46.7237 
  207000    90.382295   -11772.935   -10875.523    598.43345     102002.7      46.7237      46.7237      46.7237 
  208000    89.239926   -11796.708   -10910.638    676.86276     102002.7      46.7237      46.7237      46.7237 
  209000    89.965116   -11772.587   -10879.316    722.79224     102002.7      46.7237      46.7237      46.7237 
  210000    92.424571   -11790.251    -10872.56    807.10095     102002.7      46.7237      46.7237      46.7237 
  211000    90.759841   -11772.807   -10871.645    658.17883     102002.7      46.7237      46.7237      46.7237 
  212000    91.263511    -11788.94   -10882.777    825.11752     102002.7      46.7237      46.7237      46.7237 
  213000    91.764604   -11783.526   -10872.388    806.08039     102002.7      46.7237      46.7237      46.7237 
  214000    87.666517   -11785.921   -10915.473    775.05207     102002.7      46.7237      46.7237      46.7237 
  215000    91.169693   -11795.381    -10890.15    494.07612     102002.7      46.7237      46.7237      46.7237 
  216000    91.551752   -11781.047   -10872.023    630.37761     102002.7      46.7237      46.7237      46.7237 
  217000    90.524891   -11800.814   -10901.985    832.10318     102002.7      46.7237      46.7237      46.7237 
  218000     91.07609   -11787.844   -10883.542    678.38263     102002.7      46.7237      46.7237      46.7237 
  219000      90.8592   -11779.918    -10877.77    1030.7794     102002.7      46.7237      46.7237      46.7237 
  220000    90.441747    -11772.12   -10874.117     1100.531     102002.7      46.7237      46.7237      46.7237 
  221000    90.175808    -11781.22   -10885.857    702.34438     102002.7      46.7237      46.7237      46.7237 
  222000    92.109179    -11787.14    -10872.58    819.96324     102002.7      46.7237      46.7237      46.7237 
  223000    89.998543   -11782.444   -10888.841    628.81915     102002.7      46.7237      46.7237      46.7237 
  224000    89.697256   -11797.588   -10906.977    614.38288     102002.7      46.7237      46.7237      46.7237 
  225000     90.69778   -11782.538   -10881.993    883.42472     102002.7      46.7237      46.7237      46.7237 
  226000    89.245104   -11785.119   -10898.997      662.795     102002.7      46.7237      46.7237      46.7237 
  227000    91.520156   -11779.952   -10871.241    703.07134     102002.7      46.7237      46.7237      46.7237 
  228000    89.130418   -11787.214   -10902.232    549.93589     102002.7      46.7237      46.7237      46.7237 
  229000    90.907804   -11783.523   -10880.892    604.89099     102002.7      46.7237      46.7237      46.7237 
  230000    89.893268   -11806.908   -10914.351    797.36786     102002.7      46.7237      46.7237      46.7237 
  231000    92.762798   -11756.318   -10835.269    922.06208     102002.7      46.7237      46.7237      46.7237 
  232000    90.894791   -11785.664   -10883.163    728.31929     102002.7      46.7237      46.7237      46.7237 
  233000    91.938901   -11761.419    -10848.55    971.63677     102002.7      46.7237      46.7237      46.7237 
  234000    91.860994   -11794.361   -10882.266    739.36931     102002.7      46.7237      46.7237      46.7237 
  235000    90.972648   -11758.851   -10855.576    713.73941     102002.7      46.7237      46.7237      46.7237 
  236000    90.655735   -11776.366   -10876.238    825.34221     102002.7      46.7237      46.7237      46.7237 
  237000    91.904243   -11786.727   -10874.203    685.25112     102002.7      46.7237      46.7237      46.7237 
  238000    89.373772   -11764.339    -10876.94    374.63121     102002.7      46.7237      46.7237      46.7237 
  239000    88.987669   -11801.165   -10917.599    697.44818     102002.7      46.7237      46.7237      46.7237 
  240000    91.222722   -11775.072   -10869.314    881.13671     102002.7      46.7237      46.7237      46.7237 
  241000    89.468232   -11789.305   -10900.968    886.65268     102002.7      46.7237      46.7237      46.7237 
  242000    93.002043   -11774.979   -10851.555    679.34045     102002.7      46.7237      46.7237      46.7237 
  243000    90.520542   -11800.424   -10901.639    749.81301     102002.7      46.7237      46.7237      46.7237 
  244000    91.455307   -11774.212   -10866.145    756.21083     102002.7      46.7237      46.7237      46.7237 
  245000    94.717948    -11784.92   -10844.459    838.52696     102002.7      46.7237      46.7237      46.7237 
  246000    91.878186   -11799.131   -10886.865    814.88773     102002.7      46.7237      46.7237      46.7237 
  247000     88.93668   -11770.144   -10887.085     758.9602     102002.7      46.7237      46.7237      46.7237 
  248000    89.970004   -11797.154   -10903.835    825.29781     102002.7      46.7237      46.7237      46.7237 
  249000    92.929882   -11787.434   -10864.726    869.27864     102002.7      46.7237      46.7237      46.7237 
  250000    90.557736   -11775.654     -10876.5    844.39162     102002.7      46.7237      46.7237      46.7237 
  251000    90.721286   -11794.691   -10893.912    782.44954     102002.7      46.7237      46.7237      46.7237 
  252000    90.958692   -11809.482   -10906.346    750.57168     102002.7      46.7237      46.7237      46.7237 
  253000    89.441082   -11799.648   -10911.581    898.76486     102002.7      46.7237      46.7237      46.7237 
  254000    88.659877   -11807.084   -10926.774    471.43284     102002.7      46.7237      46.7237      46.7237 
  255000    90.373315   -11785.231   -10887.907    711.27318     102002.7      46.7237      46.7237      46.7237 
  256000    92.749142   -11765.162   -10844.248    641.86665     102002.7      46.7237      46.7237      46.7237 
  257000    90.082851   -11800.189   -10905.749    812.97912     102002.7      46.7237      46.7237      46.7237 
  258000    91.347637    -11788.06   -10881.062    581.12046     102002.7      46.7237      46.7237      46.7237 
  259000    91.751926   -11787.916   -10876.904    660.41656     102002.7      46.7237      46.7237      46.7237 
  260000    93.304791   -11780.516   -10854.086    840.96148     102002.7      46.7237      46.7237      46.7237 
  261000    91.294243   -11786.285   -10879.817    663.33335     102002.7      46.7237      46.7237      46.7237 
  262000    91.456942   -11779.849   -10871.765    669.92519     102002.7      46.7237      46.7237      46.7237 
  263000    94.154052   -11783.109   -10848.246    721.00106     102002.7      46.7237      46.7237      46.7237 
  264000    91.072255   -11781.451   -10877.187    587.26406     102002.7      46.7237      46.7237      46.7237 
  265000    89.575804   -11783.186   -10893.781    709.76383     102002.7      46.7237      46.7237      46.7237 
  266000    88.570288    -11818.53   -10939.109    663.57586     102002.7      46.7237      46.7237      46.7237 
  267000     90.58504   -11802.772   -10903.346    737.61681     102002.7      46.7237      46.7237      46.7237 
  268000    93.251846   -11786.139   -10860.234    953.89886     102002.7      46.7237      46.7237      46.7237 
  269000    89.466704   -11787.078   -10898.756    773.97915     102002.7      46.7237      46.7237      46.7237 
  270000    91.788585   -11778.536    -10867.16    914.42119     102002.7      46.7237      46.7237      46.7237 
  271000    88.356542   -11775.614   -10898.315    768.79723     102002.7      46.7237      46.7237      46.7237 
  272000    90.045572   -11767.316   -10873.246    699.68993     102002.7      46.7237      46.7237      46.7237 
  273000    89.866999   -11769.751   -10877.455    752.47503     102002.7      46.7237      46.7237      46.7237 
  274000    91.304432   -11779.285   -10872.716    693.73943     102002.7      46.7237      46.7237      46.7237 
  275000    90.263474   -11814.358   -10918.125    645.46752     102002.7      46.7237      46.7237      46.7237 
  276000    91.170677   -11778.318   -10873.077    840.38632     102002.7      46.7237      46.7237      46.7237 
  277000    92.242868   -11790.406    -10874.52    701.16772     102002.7      46.7237      46.7237      46.7237 
  278000    88.905979   -11793.077   -10910.322    704.23487     102002.7      46.7237      46.7237      46.7237 
  279000    92.194813   -11794.579   -10879.169    463.96068     102002.7      46.7237      46.7237      46.7237 
  280000     91.18527   -11810.755   -10905.369    682.49191     102002.7      46.7237      46.7237      46.7237 
  281000    88.055829   -11764.015   -10889.702    850.04857     102002.7      46.7237      46.7237      46.7237 
  282000    88.932267   -11780.282   -10897.266    728.79815     102002.7      46.7237      46.7237      46.7237 
  283000    91.521456   -11787.177   -10878.453    736.90516     102002.7      46.7237      46.7237      46.7237 
  284000    90.631321   -11773.726    -10873.84    588.32526     102002.7      46.7237      46.7237      46.7237 
  285000    89.113671     -11766.8   -10881.983    455.08538     102002.7      46.7237      46.7237      46.7237 
  286000    90.596261   -11794.954   -10895.417    529.87612     102002.7      46.7237      46.7237      46.7237 
  287000    90.751003   -11784.711   -10883.637    582.68763     102002.7      46.7237      46.7237      46.7237 
  288000    88.543491   -11782.828   -10903.672    606.92909     102002.7      46.7237      46.7237      46.7237 
  289000    90.378589   -11782.377   -10885.001    990.60745     102002.7      46.7237      46.7237      46.7237 
  290000     89.56086   -11792.113   -10902.857    652.91347     102002.7      46.7237      46.7237      46.7237 
  291000    90.362184   -11755.528   -10858.315    540.60105     102002.7      46.7237      46.7237      46.7237 
  292000    92.100161   -11792.425   -10877.955    547.47098     102002.7      46.7237      46.7237      46.7237 
  293000    90.920701   -11752.233   -10849.474    608.35236     102002.7      46.7237      46.7237      46.7237 
  294000     91.72487   -11776.566   -10865.822    862.30423     102002.7      46.7237      46.7237      46.7237 
  295000    91.260846   -11785.362   -10879.226    624.73182     102002.7      46.7237      46.7237      46.7237 
  296000    91.400913    -11810.43   -10902.903    505.96753     102002.7      46.7237      46.7237      46.7237 
  297000    93.958455   -11780.935   -10848.014    919.68408     102002.7      46.7237      46.7237      46.7237 
  298000    90.613831   -11797.999   -10898.288    739.68204     102002.7      46.7237      46.7237      46.7237 
  299000    91.414942   -11782.096   -10874.429    652.48608     102002.7      46.7237      46.7237      46.7237 
  300000     90.85445   -11796.732   -10894.631     655.0924     102002.7      46.7237      46.7237      46.7237 
  301000     91.77936   -11782.622   -10871.338    863.55206     102002.7      46.7237      46.7237      46.7237 
  302000    88.729322   -11772.194   -10891.194     700.9922     102002.7      46.7237      46.7237      46.7237 
  303000    90.385329   -11773.694   -10876.251    841.61031     102002.7      46.7237      46.7237      46.7237 
  304000    91.950122    -11760.52    -10847.54    738.92669     102002.7      46.7237      46.7237      46.7237 
  305000    90.418024   -11788.712   -10890.945    492.01613     102002.7      46.7237      46.7237      46.7237 
  306000    90.871539   -11754.414   -10852.143    805.91708     102002.7      46.7237      46.7237      46.7237 
  307000    91.415483   -11788.642   -10880.971    627.66153     102002.7      46.7237      46.7237      46.7237 
  308000     91.76587   -11797.047   -10885.897    577.21674     102002.7      46.7237      46.7237      46.7237 
  309000     88.49176   -11776.072    -10897.43    820.61593     102002.7      46.7237      46.7237      46.7237 
  310000    91.058748    -11798.82   -10894.691    557.21586     102002.7      46.7237      46.7237      46.7237 
  311000    92.520024   -11769.023   -10850.385    1006.6991     102002.7      46.7237      46.7237      46.7237 
  312000     89.78699   -11776.795   -10885.293    869.17412     102002.7      46.7237      46.7237      46.7237 
  313000    89.063888   -11798.711   -10914.389    551.40321     102002.7      46.7237      46.7237      46.7237 
  314000    92.303839   -11781.541   -10865.049    889.07154     102002.7      46.7237      46.7237      46.7237 
  315000    91.256161    -11781.86    -10875.77    508.70728     102002.7      46.7237      46.7237      46.7237 
  316000    92.364579    -11784.12   -10867.025    747.63471     102002.7      46.7237      46.7237      46.7237 
  317000    90.920853   -11780.483   -10877.723    783.77794     102002.7      46.7237      46.7237      46.7237 
  318000    91.774665   -11797.218   -10885.981    660.28787     102002.7      46.7237      46.7237      46.7237 
  319000    90.837502   -11792.149   -10890.216    874.57711     102002.7      46.7237      46.7237      46.7237 
  320000    90.919039   -11785.175   -10882.432    856.12961     102002.7      46.7237      46.7237      46.7237 
  321000    90.671883     -11779.3   -10879.012    625.15686     102002.7      46.7237      46.7237      46.7237 
  322000    89.687433   -11786.725   -10896.211    885.67558     102002.7      46.7237      46.7237      46.7237 
  323000    90.271428   -11791.132    -10894.82    676.03383     102002.7      46.7237      46.7237      46.7237 
  324000    89.362867   -11770.545   -10883.254    634.64099     102002.7      46.7237      46.7237      46.7237 
  325000    90.664497   -11779.424    -10879.21    787.53705     102002.7      46.7237      46.7237      46.7237 
  326000    92.782581   -11785.661   -10864.416    598.21865     102002.7      46.7237      46.7237      46.7237 
  327000    92.210803   -11774.521   -10858.953    675.00427     102002.7      46.7237      46.7237      46.7237 
  328000    89.740723   -11779.053    -10888.01    1113.9941     102002.7      46.7237      46.7237      46.7237 
  329000    92.116704   -11786.721   -10872.087    686.35448     102002.7      46.7237      46.7237      46.7237 
  330000    90.280638   -11794.094    -10897.69    677.54349     102002.7      46.7237      46.7237      46.7237 
  331000    90.747391   -11766.741   -10865.703    878.25288     102002.7      46.7237      46.7237      46.7237 
  332000    90.540977   -11778.794   -10879.806    677.54152     102002.7      46.7237      46.7237      46.7237 
  333000    91.400933   -11791.438   -10883.911    805.47791     102002.7      46.7237      46.7237      46.7237 
  334000    89.005552   -11786.674   -10902.931    596.20879     102002.7      46.7237      46.7237      46.7237 
  335000    88.536941   -11779.715   -10900.625    712.04103     102002.7      46.7237      46.7237      46.7237 
  336000     89.38069   -11767.252   -10879.784    850.13092     102002.7      46.7237      46.7237      46.7237 
  337000    91.344814    -11792.64    -10885.67    617.37735     102002.7      46.7237      46.7237      46.7237 
  338000    88.194595   -11784.417   -10908.726    690.15027     102002.7      46.7237      46.7237      46.7237 
  339000    91.219603   -11782.121   -10876.394    736.07136     102002.7      46.7237      46.7237      46.7237 
  340000     90.67871   -11786.384   -10886.028    633.38694     102002.7      46.7237      46.7237      46.7237 
  341000    91.295214   -11772.484   -10866.006    843.32009     102002.7      46.7237      46.7237      46.7237 
  342000    91.879018   -11779.481   -10867.207    933.21813     102002.7      46.7237      46.7237      46.7237 
  343000    91.030323   -11804.021   -10900.174    655.09033     102002.7      46.7237      46.7237      46.7237 
  344000    91.684793   -11786.581   -10876.235    989.57321     102002.7      46.7237      46.7237      46.7237 
  345000    90.651653   -11781.146   -10881.058    717.03187     102002.7      46.7237      46.7237      46.7237 
  346000    89.329969   -11752.609   -10865.644    1077.4074     102002.7      46.7237      46.7237      46.7237 
  347000    90.383237   -11792.333   -10894.911    775.97408     102002.7      46.7237      46.7237      46.7237 
  348000    89.301109   -11791.509   -10904.832    754.24638     102002.7      46.7237      46.7237      46.7237 
  349000    90.025481   -11783.615   -10889.745    1021.7624     102002.7      46.7237      46.7237      46.7237 
  350000    87.816022   -11780.146   -10908.213    725.01273     102002.7      46.7237      46.7237      46.7237 
  351000    90.745456   -11781.096   -10880.077    1233.9868     102002.7      46.7237      46.7237      46.7237 
  352000    86.777063   -11777.964   -10916.347    693.82713     102002.7      46.7237      46.7237      46.7237 
  353000     91.51626   -11792.355   -10883.683    778.22464     102002.7      46.7237      46.7237      46.7237 
  354000     92.80848   -11780.125   -10858.622    841.78203     102002.7      46.7237      46.7237      46.7237 
  355000    91.572367   -11801.236   -10892.007    927.55974     102002.7      46.7237      46.7237      46.7237 
  356000    91.949533   -11772.092   -10859.118    801.78013     102002.7      46.7237      46.7237      46.7237 
  357000    90.011757   -11793.304   -10899.571    866.35443     102002.7      46.7237      46.7237      46.7237 
  358000     92.36636    -11788.55   -10871.438    718.77022     102002.7      46.7237      46.7237      46.7237 
  359000     89.24492   -11766.487   -10880.367    736.44106     102002.7      46.7237      46.7237      46.7237 
  360000    92.148559   -11792.255   -10877.304    944.65012     102002.7      46.7237      46.7237      46.7237 
  361000    92.720487   -11789.452   -10868.823    787.82154     102002.7      46.7237      46.7237      46.7237 
  362000    90.886054   -11787.105    -10884.69    730.39826     102002.7      46.7237      46.7237      46.7237 
  363000    90.497653   -11784.532   -10885.974     761.4184     102002.7      46.7237      46.7237      46.7237 
  364000    91.821924    -11749.11   -10837.403    778.79288     102002.7      46.7237      46.7237      46.7237 
  365000    89.951606   -11803.659   -10910.522    1097.9447     102002.7      46.7237      46.7237      46.7237 
  366000     91.22787   -11793.557   -10887.748    814.06632     102002.7      46.7237      46.7237      46.7237 
  367000    90.820675   -11793.413   -10891.647    668.81006     102002.7      46.7237      46.7237      46.7237 
  368000    91.272459   -11789.097   -10882.846    303.64657     102002.7      46.7237      46.7237      46.7237 
  369000    89.875638   -11780.129   -10887.746    511.30268     102002.7      46.7237      46.7237      46.7237 
  370000     92.42108   -11794.769   -10877.113    690.92749     102002.7      46.7237      46.7237      46.7237 
  371000    90.231381   -11794.771   -10898.856    904.61603     102002.7      46.7237      46.7237      46.7237 
  372000    91.310043   -11785.237   -10878.612    638.23671     102002.7      46.7237      46.7237      46.7237 
  373000     92.81102   -11782.182   -10860.654    810.52786     102002.7      46.7237      46.7237      46.7237 
  374000    91.465008   -11772.534    -10864.37    875.48087     102002.7      46.7237      46.7237      46.7237 
  375000    89.251699    -11805.57   -10919.383    831.21457     102002.7      46.7237      46.7237      46.7237 
  376000    92.098709   -11788.923   -10874.468    763.62611     102002.7      46.7237      46.7237      46.7237 
  377000     92.52315   -11817.242   -10898.572    844.19546     102002.7      46.7237      46.7237      46.7237 
  378000    94.033071   -11790.265   -10856.603     745.8512     102002.7      46.7237      46.7237      46.7237 
  379000     89.83259    -11793.73   -10901.775    647.47277     102002.7      46.7237      46.7237      46.7237 
  380000    90.017156   -11785.232   -10891.444    638.70255     102002.7      46.7237      46.7237      46.7237 
  381000    91.885604   -11782.841   -10870.501    810.11627     102002.7      46.7237      46.7237      46.7237 
  382000    91.291763   -11797.831   -10891.388    854.38486     102002.7      46.7237      46.7237      46.7237 
  383000    92.608334   -11778.425    -10858.91    982.54798     102002.7      46.7237      46.7237      46.7237 
  384000     90.77314   -11787.141   -10885.847    564.89614     102002.7      46.7237      46.7237      46.7237 
  385000    93.623315   -11792.356   -10862.763    791.21039     102002.7      46.7237      46.7237      46.7237 
  386000    90.696671   -11773.821   -10873.287     895.2459     102002.7      46.7237      46.7237      46.7237 
  387000     91.86183   -11794.159   -10882.056    660.47362     102002.7      46.7237      46.7237      46.7237 
  388000    89.294777   -11772.291   -10885.677     825.7274     102002.7      46.7237      46.7237      46.7237 
  389000    92.221242   -11803.415   -10887.744    725.38552     102002.7      46.7237      46.7237      46.7237 
  390000    92.297019   -11802.132   -10885.707    687.20338     102002.7      46.7237      46.7237      46.7237 
  391000    92.463138   -11799.209   -10881.135    786.09716     102002.7      46.7237      46.7237      46.7237 
  392000    89.221482   -11785.441   -10899.554    810.53861     102002.7      46.7237      46.7237      46.7237 
  393000    91.126589   -11782.838   -10878.035    647.12108     102002.7      46.7237      46.7237      46.7237 
  394000    89.804798   -11777.925   -10886.246      643.283     102002.7      46.7237      46.7237      46.7237 
  395000    91.574811   -11783.478   -10874.225    536.09951     102002.7      46.7237      46.7237      46.7237 
  396000    93.351903   -11799.116   -10872.218    611.45871     102002.7      46.7237      46.7237      46.7237 
  397000    90.615304   -11796.093   -10896.367    782.31522     102002.7      46.7237      46.7237      46.7237 
  398000    91.386716   -11773.949   -10866.564    913.85665     102002.7      46.7237      46.7237      46.7237 
  399000    91.104004    -11777.36   -10872.781    659.90447     102002.7      46.7237      46.7237      46.7237 
  400000     91.67922   -11785.929   -10875.639    818.87029     102002.7      46.7237      46.7237      46.7237 
  401000     90.67976   -11781.438   -10881.071    706.91775     102002.7      46.7237      46.7237      46.7237 
  402000    90.550633   -11775.642   -10876.558    657.39881     102002.7      46.7237      46.7237      46.7237 
  403000    89.585805   -11786.217   -10896.712    644.70516     102002.7      46.7237      46.7237      46.7237 
  404000    90.219354   -11785.943   -10890.148    672.54376     102002.7      46.7237      46.7237      46.7237 
  405000     89.34672   -11785.953   -10898.823    527.83995     102002.7      46.7237      46.7237      46.7237 
  406000    92.474208   -11780.833   -10862.649    612.76882     102002.7      46.7237      46.7237      46.7237 
  407000     90.48338   -11786.503   -10888.086    862.69885     102002.7      46.7237      46.7237      46.7237 
  408000    92.263189   -11774.721   -10858.633    982.11855     102002.7      46.7237      46.7237      46.7237 
  409000    92.277601   -11771.298   -10855.067    663.17131     102002.7      46.7237      46.7237      46.7237 
  410000    87.759007   -11793.153   -10921.787    791.29675     102002.7      46.7237      46.7237      46.7237 
  411000    93.419755   -11807.069   -10879.497    612.53526     102002.7      46.7237      46.7237      46.7237 
  412000    91.130786   -11798.845   -10894.001    620.54256     102002.7      46.7237      46.7237      46.7237 
  413000     90.93784   -11767.409    -10864.48      755.379     102002.7      46.7237      46.7237      46.7237 
  414000    92.126393   -11800.272   -10885.542    781.51625     102002.7      46.7237      46.7237      46.7237 
  415000    91.655832   -11770.599   -10860.541    958.54344     102002.7      46.7237      46.7237      46.7237 
  416000    89.426031   -11767.342   -10879.424    910.68474     102002.7      46.7237      46.7237      46.7237 
  417000    91.482315    -11793.26   -10884.925     772.9497     102002.7      46.7237      46.7237      46.7237 
  418000    91.644436   -11791.174   -10881.229    975.95916     102002.7      46.7237      46.7237      46.7237 
  419000    88.630009   -11790.729   -10910.714    665.29977     102002.7      46.7237      46.7237      46.7237 
  420000    91.499496   -11795.323   -10886.817    574.19512     102002.7      46.7237      46.7237      46.7237 
  421000    91.489927   -11771.248   -10862.838    770.80127     102002.7      46.7237      46.7237      46.7237 
  422000    92.345033    -11802.03   -10885.129    763.95055     102002.7      46.7237      46.7237      46.7237 
  423000    91.827434   -11780.866   -10869.104    755.21099     102002.7      46.7237      46.7237      46.7237 
  424000    91.315262   -11790.825   -10884.149    799.72346     102002.7      46.7237      46.7237      46.7237 
  425000     90.51816   -11769.733   -10870.971    768.76804     102002.7      46.7237      46.7237      46.7237 
  426000    91.892888   -11782.228   -10869.816    731.89198     102002.7      46.7237      46.7237      46.7237 
  427000    88.845752   -11783.035   -10900.878    739.76619     102002.7      46.7237      46.7237      46.7237 
  428000     91.36594   -11792.789   -10885.609    779.64323     102002.7      46.7237      46.7237      46.7237 
  429000    90.298259   -11786.193   -10889.614    413.23175     102002.7      46.7237      46.7237      46.7237 
  430000    93.566507   -11787.662   -10858.632    750.67934     102002.7      46.7237      46.7237      46.7237 
  431000    90.597998   -11792.358   -10892.803    1065.6737     102002.7      46.7237      46.7237      46.7237 
  432000    88.675279   -11794.331   -10913.867    799.66314     102002.7      46.7237      46.7237      46.7237 
  433000    91.608007   -11802.797   -10893.214    488.71994     102002.7      46.7237      46.7237      46.7237 
  434000    91.651562    -11816.06   -10906.044     473.5482     102002.7      46.7237      46.7237      46.7237 
  435000    89.248756    -11795.18   -10909.022    531.58967     102002.7      46.7237      46.7237      46.7237 
  436000    90.413474   -11813.036   -10915.314    597.72062     102002.7      46.7237      46.7237      46.7237 
  437000    90.729792   -11785.466   -10884.603    853.64291     102002.7      46.7237      46.7237      46.7237 
  438000    92.595507   -11777.049   -10857.661    595.20481     102002.7      46.7237      46.7237      46.7237 
  439000    90.170883   -11810.375   -10915.061    691.28014     102002.7      46.7237      46.7237      46.7237 
  440000    91.070511   -11788.975   -10884.729    760.01126     102002.7      46.7237      46.7237      46.7237 
  441000    91.322024   -11804.704   -10897.961    461.71263     102002.7      46.7237      46.7237      46.7237 
  442000    88.851942   -11799.062   -10916.844     665.1233     102002.7      46.7237      46.7237      46.7237 
  443000    93.307796   -11788.295   -10861.834    727.44578     102002.7      46.7237      46.7237      46.7237 
  444000    91.252609   -11793.396   -10887.341    769.07541     102002.7      46.7237      46.7237      46.7237 
  445000    91.344926   -11794.877   -10887.906    629.69512     102002.7      46.7237      46.7237      46.7237 
  446000    91.234427   -11794.503    -10888.63    684.79161     102002.7      46.7237      46.7237      46.7237 
  447000    91.022268   -11795.544   -10891.777    761.96962     102002.7      46.7237      46.7237      46.7237 
  448000    88.595794   -11790.614    -10910.94    1027.0978     102002.7      46.7237      46.7237      46.7237 
  449000    89.792821   -11780.596   -10889.036    706.31326     102002.7      46.7237      46.7237      46.7237 
  450000    91.380916   -11806.072   -10898.744    531.81709     102002.7      46.7237      46.7237      46.7237 
  451000    93.790375   -11789.071   -10857.819      549.771     102002.7      46.7237      46.7237      46.7237 
  452000     90.22747   -11787.397   -10891.522    400.64787     102002.7      46.7237      46.7237      46.7237 
  453000    92.293736   -11783.249   -10866.858    784.15144     102002.7      46.7237      46.7237      46.7237 
  454000    91.544645   -11814.796   -10905.842    610.02955     102002.7      46.7237      46.7237      46.7237 
  455000    91.693906   -11791.946    -10881.51    1059.6128     102002.7      46.7237      46.7237      46.7237 
  456000    90.335588   -11804.634   -10907.685    845.53466     102002.7      46.7237      46.7237      46.7237 
  457000    90.087049   -11792.493   -10898.011    845.15494     102002.7      46.7237      46.7237      46.7237 
  458000    89.194225   -11811.379   -10925.763    539.99747     102002.7      46.7237      46.7237      46.7237 
  459000    90.753474   -11795.617   -10894.518    600.67119     102002.7      46.7237      46.7237      46.7237 
  460000    89.990372   -11809.504   -10915.983     507.2073     102002.7      46.7237      46.7237      46.7237 
  461000    94.676922    -11794.17   -10854.115     716.7995     102002.7      46.7237      46.7237      46.7237 
  462000    91.772281   -11778.428   -10867.214    594.14586     102002.7      46.7237      46.7237      46.7237 
  463000    90.774699    -11800.06   -10898.751    759.90295     102002.7      46.7237      46.7237      46.7237 
  464000    90.887109   -11775.861   -10873.436    702.08433     102002.7      46.7237      46.7237      46.7237 
  465000    90.621044   -11805.745   -10905.962      657.197     102002.7      46.7237      46.7237      46.7237 
  466000     90.53169   -11800.068   -10901.172    594.05835     102002.7      46.7237      46.7237      46.7237 
  467000    92.024715   -11820.807   -10907.086    867.13343     102002.7      46.7237      46.7237      46.7237 
  468000     88.58158   -11792.176   -10912.643    340.64079     102002.7      46.7237      46.7237      46.7237 
  469000    91.831792   -11794.295    -10882.49    471.33536     102002.7      46.7237      46.7237      46.7237 
  470000    87.978053   -11789.226   -10915.685    672.80985     102002.7      46.7237      46.7237      46.7237 
  471000    88.810666   -11802.627   -10920.819    584.21923     102002.7      46.7237      46.7237      46.7237 
  472000    89.969356   -11790.824   -10897.511    915.98172     102002.7      46.7237      46.7237      46.7237 
  473000    90.567912   -11765.982   -10866.726    880.20363     102002.7      46.7237      46.7237      46.7237 
  474000    91.782506   -11813.928   -10902.612    525.32306     102002.7      46.7237      46.7237      46.7237 
  475000    92.462379    -11785.06   -10866.994    869.86536     102002.7      46.7237      46.7237      46.7237 
  476000    91.077583   -11787.741   -10883.425    722.22322     102002.7      46.7237      46.7237      46.7237 
  477000    90.638297   -11790.035    -10890.08    911.07335     102002.7      46.7237      46.7237      46.7237 
  478000    92.264675   -11801.377   -10885.274    878.01237     102002.7      46.7237      46.7237      46.7237 
  479000    91.003241   -11816.512   -10912.934    499.36271     102002.7      46.7237      46.7237      46.7237 
  480000    89.479783   -11813.567   -10925.115    599.78948     102002.7      46.7237      46.7237      46.7237 
  481000    89.239903   -11772.191   -10886.121    473.06472     102002.7      46.7237      46.7237      46.7237 
  482000     90.03905   -11808.523   -10914.518    649.65088     102002.7      46.7237      46.7237      46.7237 
  483000     90.89766   -11787.118   -10884.588     660.8437     102002.7      46.7237      46.7237      46.7237 
  484000    92.536425   -11809.064   -10890.263    715.40871     102002.7      46.7237      46.7237      46.7237 
  485000    90.265433   -11801.876   -10905.623    572.31197     102002.7      46.7237      46.7237      46.7237 
  486000    90.504323    -11774.18   -10875.556    609.23917     102002.7      46.7237      46.7237      46.7237 
  487000    91.942787   -11826.597    -10913.69    507.68443     102002.7      46.7237      46.7237      46.7237 
  488000    93.210128   -11803.365   -10877.875    628.89191     102002.7      46.7237      46.7237      46.7237 
  489000    88.605346   -11784.442   -10904.673    727.50296     102002.7      46.7237      46.7237      46.7237 
  490000    86.833465   -11807.901   -10945.725    815.83522     102002.7      46.7237      46.7237      46.7237 
  491000    91.477086   -11786.603    -10878.32    917.07515     102002.7      46.7237      46.7237      46.7237 
  492000    91.712579   -11800.492   -10889.871    812.54556     102002.7      46.7237      46.7237      46.7237 
  493000     91.82113   -11778.063   -10866.364    846.81407     102002.7      46.7237      46.7237      46.7237 
  494000    93.848561   -11781.876   -10850.046     868.6209     102002.7      46.7237      46.7237      46.7237 
  495000    90.524869   -11787.991   -10889.163    680.49026     102002.7      46.7237      46.7237      46.7237 
  496000    89.329592   -11800.441    -10913.48    886.08066     102002.7      46.7237      46.7237      46.7237 
  497000    91.520844   -11808.332   -10899.614    565.75513     102002.7      46.7237      46.7237      46.7237 
  498000    92.052792   -11799.033   -10885.033    589.85253     102002.7      46.7237      46.7237      46.7237 
  499000    91.539423   -11790.009   -10881.107     741.8975     102002.7      46.7237      46.7237      46.7237 
  500000    91.557387   -11794.358   -10885.278    663.65836     102002.7      46.7237      46.7237      46.7237 
  500500    92.694277   -11841.428    -10921.06    647.20194     102002.7      46.7237      46.7237      46.7237 
Loop time of 2025.84 on 16 procs for 500000 steps with 3332 atoms

Performance: 21.324 ns/day, 1.125 hours/ns, 246.811 timesteps/s
99.8% CPU use with 16 MPI tasks x no OpenMP threads

MPI task timing breakdown:
Section |  min time  |  avg time  |  max time  |%varavg| %total
---------------------------------------------------------------
Pair    | 957.22     | 1220.3     | 1663.7     | 481.2 | 60.23
Bond    | 127.15     | 174.95     | 225.02     | 189.0 |  8.64
Neigh   | 15.214     | 15.24      | 15.256     |   0.3 |  0.75
Comm    | 103.45     | 597.2      | 893.83     | 750.6 | 29.48
Output  | 0.021649   | 0.022528   | 0.026579   |   0.7 |  0.00
Modify  | 8.9865     | 10.963     | 13.018     |  39.2 |  0.54
Other   |            | 7.214      |            |       |  0.36

Nlocal:    208.25 ave 229 max 180 min
Histogram: 2 0 1 1 3 1 1 3 3 1
Nghost:    4183.19 ave 4206 max 4167 min
Histogram: 3 3 0 2 2 2 0 1 1 2
Neighs:    11476.5 ave 16662 max 7049 min
Histogram: 1 0 3 4 2 2 0 2 1 1

Total # of neighbors = 183624
Ave neighs/atom = 55.1092
Ave special neighs/atom = 3.45738
Neighbor list builds = 4041
Dangerous builds = 0
Neighbor list info ...
  update every 1 steps, delay 10 steps, check yes
  max neighbors/atom: 2000, page size: 100000
  master list distance cutoff = 16
  ghost atom cutoff = 16
  binsize = 8, bins = 6 6 6
  3 neighbor lists, perpetual/occasional/extra = 3 0 0
  (1) pair buck6d/coul/gauss/dsf, perpetual, skip from (3)
      attributes: half, newton on
      pair build: skip
      stencil: none
      bin: none
  (2) pair lj/cut, perpetual, skip from (3)
      attributes: half, newton on
      pair build: skip
      stencil: none
      bin: none
  (3) neighbor class addition, perpetual
      attributes: half, newton on
      pair build: half/bin/newton
      stencil: half/bin/3d/newton
      bin: standard
Setting up Verlet run ...
  Unit style    : real
  Current step  : 500500
  Time step     : 1
WARNING: Inconsistent image flags (../domain.cpp:786)
Per MPI rank memory allocation (min/avg/max) = 22.8 | 23.2 | 23.45 Mbytes
Step Time TotEng KinEng PotEng E_mol E_pair Temp Pxx Pyy Pzz Pxy Pxz Pyz Cella Cellb Cellc CellAlpha CellBeta CellGamma Volume Press 
  500500       500000    -10921.06    920.36873   -11841.428    4114.6919    -15956.12    92.694277    241.86603    951.52648    748.21329   -75.617944    201.26937   -98.696947      46.7237      46.7237      46.7237           90           90           90     102002.7    647.20194 
  501000       500500    -10896.85    899.64379   -11796.494    4151.5787   -15948.073    90.606979    818.39479    834.35039    511.69384    135.79335    -105.8745   -221.98973      46.7237      46.7237      46.7237           90           90           90     102002.7    721.47967 
  502000       501500   -10896.147    897.37232   -11793.519    4168.3247   -15961.844    90.378209    565.46358      861.557    657.09105    66.322447   -40.744803   -109.83168      46.7237      46.7237      46.7237           90           90           90     102002.7    694.70387 
  503000       502500   -10898.311    893.80096   -11792.112    4154.1288    -15946.24    90.018523    305.16841    223.20348     698.6016    -75.16535   -128.40859   -68.279523      46.7237      46.7237      46.7237           90           90           90     102002.7    408.99116 
  504000       503500   -10896.911    897.45855    -11794.37    4153.1828   -15947.553    90.386894    607.24941    667.44655    739.90908   -121.18588     144.0729   -211.14965      46.7237      46.7237      46.7237           90           90           90     102002.7    671.53501 
  505000       504500   -10917.991    884.73758   -11802.728    4163.0866   -15965.815    89.105711    535.33528    739.35748    973.78663    86.352266    6.6140583     148.2545      46.7237      46.7237      46.7237           90           90           90     102002.7    749.49313 
  506000       505500   -10872.234     904.0461    -11776.28    4147.6603   -15923.941    91.050354    1158.0403    384.62613    795.43151    98.730107    203.27201    0.3224764      46.7237      46.7237      46.7237           90           90           90     102002.7    779.36597 
  507000       506500    -10898.23    904.94783   -11803.178    4133.7459   -15936.924    91.141172    702.02953    825.36045    924.33957    59.246394    238.51469   -193.78243      46.7237      46.7237      46.7237           90           90           90     102002.7    817.24318 
  508000       507500   -10895.314    896.99621    -11792.31    4155.9267   -15948.236    90.340331    774.93737    851.39069    911.24347    -36.16441    157.38127   -73.852936      46.7237      46.7237      46.7237           90           90           90     102002.7    845.85718 
  509000       508500   -10928.431     882.4909   -11810.922    4147.7869   -15958.709    88.879439    504.46141    376.60709    635.01106   -123.47844     264.1044    68.700688      46.7237      46.7237      46.7237           90           90           90     102002.7    505.35985 
  510000       509500   -10901.047    905.44199   -11806.489    4139.8128   -15946.301     91.19094     739.6352    1251.2695    560.52599    147.96486   -48.550227    28.861726      46.7237      46.7237      46.7237           90           90           90     102002.7    850.47689 
  511000       510500   -10869.071    923.93202   -11793.004     4139.377    -15932.38    93.053151    1007.7266    629.13231    1569.3749   -95.809354    78.631676   -74.617751      46.7237      46.7237      46.7237           90           90           90     102002.7    1068.7446 
  512000       511500   -10889.579    904.08158   -11793.661     4144.627   -15938.288    91.053929    479.60839     507.5801    1130.5808   -96.462476    -222.9489    44.002637      46.7237      46.7237      46.7237           90           90           90     102002.7    705.92312 
  513000       512500   -10881.882    898.51228   -11780.394    4144.4164    -15924.81     90.49302    650.77835    289.95471    935.41253    -61.83555    11.238378    162.09505      46.7237      46.7237      46.7237           90           90           90     102002.7    625.38186 
  514000       513500    -10909.21    897.84684   -11807.057    4142.3736   -15949.431       90.426      863.082     284.8217    945.87865    84.206184    358.09037   -104.33684      46.7237      46.7237      46.7237           90           90           90     102002.7    697.92745 
  515000       514500   -10867.756    917.34264   -11785.099    4136.9058   -15922.005    92.389506    601.01501    618.04397    483.94093    61.209702   -44.149421    71.966682      46.7237      46.7237      46.7237           90           90           90     102002.7    567.66664 
  516000       515500   -10910.443    896.36087   -11806.804    4135.7294   -15942.533    90.276343    786.86911    450.92026      700.281    166.95696   -79.343431    36.908236      46.7237      46.7237      46.7237           90           90           90     102002.7    646.02346 
  517000       516500   -10884.859    916.67583   -11801.535    4137.4743   -15939.009    92.322349    640.51872    544.45562    546.07721    78.706763    43.312689   -52.529324      46.7237      46.7237      46.7237           90           90           90     102002.7    577.01718 
  518000       517500   -10882.334    916.15859   -11798.492     4148.466   -15946.958    92.270255    610.65071    811.03957    520.69729   -13.102728   -104.11465    124.47098      46.7237      46.7237      46.7237           90           90           90     102002.7    647.46252 
  519000       518500   -10882.409    910.59467   -11793.004    4147.1444   -15940.149    91.709889    836.31906    626.10777    762.16034   -101.28593    16.528542   -126.68146      46.7237      46.7237      46.7237           90           90           90     102002.7    741.52906 
  520000       519500   -10914.084    878.38731   -11792.472    4116.5458   -15909.017    88.466148    1029.7908    1262.3006    1087.4527   -286.83045    185.50865   -227.15411      46.7237      46.7237      46.7237           90           90           90     102002.7    1126.5147 
  521000       520500   -10879.353    907.84516   -11787.199     4146.213   -15933.412    91.432975    928.83657    669.93953    666.92111   -59.310903    111.63875    -81.86395      46.7237      46.7237      46.7237           90           90           90     102002.7     755.2324 
  522000       521500   -10908.615    883.09389   -11791.709    4139.5148   -15931.224    88.940168     665.4807    838.95574    815.03285   -98.189535    177.89087   -34.332738      46.7237      46.7237      46.7237           90           90           90     102002.7    773.15643 
  523000       522500   -10849.605    911.39236   -11760.997    4150.4767   -15911.474    91.790228    420.69945    689.68012    997.71632    130.17544    97.519072    63.768401      46.7237      46.7237      46.7237           90           90           90     102002.7    702.69863 
  524000       523500   -10895.176    902.36783   -11797.543    4131.5328   -15929.076    90.881329    367.13811    392.44071    771.28018   -45.213515    73.066172   -159.15757      46.7237      46.7237      46.7237           90           90           90     102002.7    510.28633 
  525000       524500   -10868.505    909.52941   -11778.034    4148.9267   -15926.961    91.602602    534.24721    1093.7986     957.7062   -116.31499    96.850577   -11.694372      46.7237      46.7237      46.7237           90           90           90     102002.7    861.91733 
  526000       525500   -10916.454    882.75717   -11799.211    4145.1152   -15944.326    88.906255    359.78623    484.57449    654.89526   -201.44021    10.006044    50.158383      46.7237      46.7237      46.7237           90           90           90     102002.7    499.75199 
  527000       526500   -10905.599    903.42557   -11809.025    4130.4819   -15939.507    90.987859    383.00895    373.72668    650.56868    120.82895    9.2358585    19.358866      46.7237      46.7237      46.7237           90           90           90     102002.7    469.10144 
  528000       527500   -10871.575     916.8523   -11788.427    4122.0291   -15910.456    92.340122    815.70845     935.6592    947.13513    52.214952    232.19653   -58.251945      46.7237      46.7237      46.7237           90           90           90     102002.7    899.50093 
  529000       528500   -10877.474    918.14081   -11795.615    4132.7082   -15928.323    92.469893    663.37264    393.96008    420.33578    -14.75506    13.571791   -134.75394      46.7237      46.7237      46.7237           90           90           90     102002.7    492.55617 
  530000       529500   -10894.365    914.57425   -11808.939    4131.2559   -15940.195    92.110689    762.16112    300.29175    1121.3595   -126.55867    257.19003   -62.304811      46.7237      46.7237      46.7237           90           90           90     102002.7    727.93746 
  531000       530500    -10903.51     892.6289   -11796.139    4146.2035   -15942.343     89.90048    369.70897    544.21597    1070.4889   -83.602832    70.031781    46.830798      46.7237      46.7237      46.7237           90           90           90     102002.7    661.47127 
  532000       531500   -10883.643    912.03722   -11795.681    4148.4022   -15944.083    91.855175    439.37764    640.32336    704.45521    21.739861   -115.23456   -70.396753      46.7237      46.7237      46.7237           90           90           90     102002.7    594.71874 
  533000       532500   -10879.864     918.2157    -11798.08    4123.9743   -15922.054    92.477436     976.5187    721.73028    1074.7965    135.24199   -75.949024   -121.51174      46.7237      46.7237      46.7237           90           90           90     102002.7     924.3485 
  534000       533500   -10901.462    889.67204   -11791.134    4145.1858    -15936.32    89.602682    699.91661    562.18226    849.10252    174.54444   -35.104256   -53.480608      46.7237      46.7237      46.7237           90           90           90     102002.7    703.73379 
  535000       534500   -10877.073    913.82239   -11790.895    4147.0909   -15937.986    92.034967    499.47521    457.99619    560.10463    26.020409  -0.93754555    -116.7458      46.7237      46.7237      46.7237           90           90           90     102002.7    505.85868 
  536000       535500   -10894.029    881.13346   -11775.163    4130.4242   -15905.587    88.742724    814.99507    854.36164    1167.7732    19.316343    -136.8379   -28.997851      46.7237      46.7237      46.7237           90           90           90     102002.7    945.70996 
  537000       536500   -10892.307    895.29616   -11787.603    4139.4216   -15927.025     90.16911    321.69038    724.19911    788.14781   -173.29692   -50.088383       136.86      46.7237      46.7237      46.7237           90           90           90     102002.7    611.34577 
  538000       537500   -10847.245     927.0337   -11774.279    4157.8982   -15932.177    93.365535    864.72848     677.2995    1018.4996   -28.269772    48.708593   -35.308211      46.7237      46.7237      46.7237           90           90           90     102002.7    853.50921 
  539000       538500   -10878.037    915.51976   -11793.557    4134.2197   -15927.776    92.205916    600.28086    257.59667    775.91109   -54.200619   -169.51557    -164.2121      46.7237      46.7237      46.7237           90           90           90     102002.7    544.59621 
  540000       539500   -10899.318    895.15806   -11794.476    4140.7977   -15935.274    90.155202    728.14353    774.55871     983.0341   -53.638175   -34.904385   -23.003278      46.7237      46.7237      46.7237           90           90           90     102002.7    828.57878 
  541000       540500   -10916.394    903.57868   -11819.972    4133.4502   -15953.422    91.003279    730.26808    542.30266    894.87115   -98.892762    -37.34387   -4.8977145      46.7237      46.7237      46.7237           90           90           90     102002.7    722.48063 
  542000       541500   -10870.574    912.38792   -11782.962    4132.2808   -15915.243    91.890496    1232.5699    835.40153    1106.0412    73.466059     159.2898   -44.432909      46.7237      46.7237      46.7237           90           90           90     102002.7    1058.0042 
  543000       542500   -10906.207    876.36719   -11782.574    4149.7131   -15932.288    88.262693    688.39181    1006.0777     854.9115    -75.45949   -17.318182    23.011314      46.7237      46.7237      46.7237           90           90           90     102002.7    849.79366 
  544000       543500   -10871.997    905.86188   -11777.859    4149.4252   -15927.284    91.233229    798.40279    639.16461    1050.7366   -16.746234    65.495465   -42.147403      46.7237      46.7237      46.7237           90           90           90     102002.7    829.43466 
  545000       544500   -10899.523    896.36752   -11795.891    4142.4918   -15938.382    90.277012    1209.5861    508.16311    879.51052    49.726368   -86.376668   -170.20885      46.7237      46.7237      46.7237           90           90           90     102002.7    865.75325 
  546000       545500   -10844.636    925.62999   -11770.266    4166.0783   -15936.345    93.224161    477.85528    961.36111    1382.2012    90.964445     56.36124    -12.49138      46.7237      46.7237      46.7237           90           90           90     102002.7    940.47251 
  547000       546500   -10909.714    896.57753   -11806.292    4121.1605   -15927.452    90.298163    496.84794    257.14608    1145.9409   -38.134074    80.021513    41.687861      46.7237      46.7237      46.7237           90           90           90     102002.7    633.31165 
  548000       547500   -10827.689    937.90565   -11765.594    4143.5007   -15909.095    94.460495    1036.9934    552.98696    1162.8256    348.93045   -63.789458    288.67348      46.7237      46.7237      46.7237           90           90           90     102002.7    917.60197 
  549000       548500   -10901.937    890.23532   -11792.172    4125.9806   -15918.153    89.659412    927.61093    1071.9847    730.17881   -26.092978   -100.22457   -255.21596      46.7237      46.7237      46.7237           90           90           90     102002.7     909.9248 
  550000       549500   -10910.505    897.93877   -11808.444    4122.5499   -15930.994    90.435259    654.91632    612.95547    762.36405     211.6108   -52.459887   -168.43087      46.7237      46.7237      46.7237           90           90           90     102002.7    676.74528 
  551000       550500   -10908.303    883.14764   -11791.451    4139.6337   -15931.084    88.945581    587.24109    539.15898    429.58554    58.200611    171.44099    19.669378      46.7237      46.7237      46.7237           90           90           90     102002.7    518.66187 
  552000       551500   -10895.772    897.00912   -11792.781    4161.7011   -15954.482     90.34163    458.89304    739.05105    1126.4193    143.57451     67.87887    101.28645      46.7237      46.7237      46.7237           90           90           90     102002.7     774.7878 
  553000       552500   -10863.722    914.45851   -11778.181     4165.143   -15943.324    92.099033    939.48134    581.84661    932.52578   -82.577613    68.382065    306.79083      46.7237      46.7237      46.7237           90           90           90     102002.7    817.95124 
  554000       553500   -10905.767    905.21429   -11810.982    4133.2366   -15944.218    91.168008    586.35662    240.80717    295.12433    166.13754   -84.430131   -235.91097      46.7237      46.7237      46.7237           90           90           90     102002.7    374.09604 
  555000       554500   -10895.149    918.45649   -11813.606    4136.6557   -15950.261    92.501687    953.59685    328.21131    975.72421    246.56121    138.02132    27.372517      46.7237      46.7237      46.7237           90           90           90     102002.7    752.51079 
[...]
  936000       935500    -10903.81    894.43261   -11798.243    4125.9638   -15924.207    90.082139    1109.2991    817.33065    469.80971    117.18897   -216.92672   -22.247275      46.7237      46.7237      46.7237           90           90           90     102002.7    798.81316 
  937000       936500   -10902.437    898.26932   -11800.706    4140.3893   -15941.095    90.468551    990.41699    389.93371     550.9472    -51.52818    13.721846   -172.41795      46.7237      46.7237      46.7237           90           90           90     102002.7    643.76597 
  938000       937500   -10881.373    908.65657   -11790.029     4167.115   -15957.144    91.514695    914.03543    767.75637    350.08078    18.644147    65.217455   -89.849917      46.7237      46.7237      46.7237           90           90           90     102002.7    677.29086 
  939000       938500   -10891.868    891.50472   -11783.373    4139.1554   -15922.529    89.787259    845.41672    830.71789    640.63749    31.574343    -369.0066   -255.49902      46.7237      46.7237      46.7237           90           90           90     102002.7    772.25737 
  940000       939500    -10882.83    928.30101   -11811.131    4153.9812   -15965.113     93.49317    889.81956    732.30973     878.6982    -76.29436   -9.2377459    114.58245      46.7237      46.7237      46.7237           90           90           90     102002.7    833.60916 
  941000       940500   -10922.927    899.05261   -11821.979    4118.7968   -15940.776    90.547439    840.76511    1077.6547    688.54819   -136.83314    263.94699   -98.253023      46.7237      46.7237      46.7237           90           90           90     102002.7    868.98935 
  942000       941500   -10904.526    908.72148   -11813.248    4139.0861   -15952.334    91.521232    869.06879    559.93095    934.49324    -102.4863   -1.0274645    64.840833      46.7237      46.7237      46.7237           90           90           90     102002.7    787.83099 
  943000       942500   -10895.569    896.41836   -11791.988    4139.8406   -15931.828    90.282132    835.07083    824.19739    917.91586   -156.72342    195.78598   -80.057538      46.7237      46.7237      46.7237           90           90           90     102002.7    859.06136 
  944000       943500   -10875.774    930.11246   -11805.887    4143.1191   -15949.006     93.67561    490.39515    491.73331    950.82461   -84.572005    74.899658    197.02608      46.7237      46.7237      46.7237           90           90           90     102002.7    644.31769 
  945000       944500   -10909.054    890.61978   -11799.674    4136.6911   -15936.365    89.698132    1032.4218    426.90833    1013.6077    66.714823   -79.280318    205.77236      46.7237      46.7237      46.7237           90           90           90     102002.7    824.31262 
  946000       945500   -10888.036      904.347   -11792.383    4133.6592   -15926.042     91.08066    1024.2424    521.80416    781.52284    35.990261    16.904402     60.05136      46.7237      46.7237      46.7237           90           90           90     102002.7    775.85647 
  947000       946500   -10919.454    878.32261   -11797.777    4132.1097   -15929.886    88.459632    1404.8881    805.89522    1161.0337   -81.840232    89.725309     20.29399      46.7237      46.7237      46.7237           90           90           90     102002.7     1123.939 
  948000       947500   -10909.949    877.39095    -11787.34    4143.8237   -15931.164    88.365801    755.98558    436.96991     887.1279    72.277858    169.84777   -118.85515      46.7237      46.7237      46.7237           90           90           90     102002.7    693.36113 
  949000       948500   -10881.694     914.3368   -11796.031    4139.1411   -15935.172    92.086775    1236.8265    408.75045    1052.2833    159.75198   -19.611943   -6.4398996      46.7237      46.7237      46.7237           90           90           90     102002.7    899.28674 
  950000       949500    -10913.16    876.48868   -11789.648    4139.0452   -15928.694    88.274929    1418.5885    737.24715    602.37994   -85.491963   -141.77808   -98.078739      46.7237      46.7237      46.7237           90           90           90     102002.7    919.40519 
  951000       950500   -10906.523    888.50692    -11795.03    4137.8638   -15932.894    89.485337    802.51991    366.11623    912.53974    56.190376    91.561194   -42.495313      46.7237      46.7237      46.7237           90           90           90     102002.7     693.7253 
  952000       951500   -10868.437    928.50918   -11796.947    4138.1445   -15935.091    93.514136     778.1904    795.77423    576.65182   -263.36344   -8.4558546   -77.338373      46.7237      46.7237      46.7237           90           90           90     102002.7    716.87215 
  953000       952500   -10871.508    925.20363   -11796.712    4136.7426   -15933.455     93.18122    767.98493    520.39363    621.48432    178.55847   -75.367579     -59.0365      46.7237      46.7237      46.7237           90           90           90     102002.7    636.62096 
  954000       953500   -10891.602    901.22139   -11792.823    4133.4568    -15926.28    90.765867    1020.4492    544.54844    1043.4336    70.573934    54.049814    141.90801      46.7237      46.7237      46.7237           90           90           90     102002.7     869.4771 
  955000       954500   -10896.484    886.79064   -11783.274    4140.9952   -15924.269    89.312483    519.41914    535.01158    665.20573   -209.85382    114.92626   -68.309876      46.7237      46.7237      46.7237           90           90           90     102002.7    573.21215 
  956000       955500   -10893.023    906.09975   -11799.122    4140.8446   -15939.967    91.257187    656.72996    467.99461     385.3492   -47.764339    3.3528723   -32.142078      46.7237      46.7237      46.7237           90           90           90     102002.7    503.35792 
  957000       956500   -10892.823    918.24199   -11811.065    4136.5848    -15947.65    92.480084     751.6647    644.33071    321.41471   -137.48184    183.83969    -83.83548      46.7237      46.7237      46.7237           90           90           90     102002.7    572.47004 
  958000       957500   -10888.131    911.05514   -11799.186    4151.0155   -15950.202    91.756265    700.76592    437.47041    482.81728   -69.431616    185.03884   -200.97136      46.7237      46.7237      46.7237           90           90           90     102002.7     540.3512 
  959000       958500   -10876.805    903.57764   -11780.383    4159.3641   -15939.747    91.003174    991.91235    736.10019    475.63604    134.69344   -50.998807   -7.6360563      46.7237      46.7237      46.7237           90           90           90     102002.7    734.54953 
  960000       959500   -10871.912    915.92528   -11787.838    4138.7145   -15926.552    92.246758    789.26296    670.54139     689.3498    70.558506   -134.37527   -53.168061      46.7237      46.7237      46.7237           90           90           90     102002.7    716.38471 
  961000       960500   -10913.042    881.58775    -11794.63    4144.0949   -15938.725    88.788478    873.57833    155.87847    621.01498   -173.81974   -87.367314   -142.36349      46.7237      46.7237      46.7237           90           90           90     102002.7    550.15726 
  962000       961500   -10897.551    898.96585   -11796.517    4154.7167   -15951.234    90.538701    635.19336    785.86669    747.41828    220.00868   -64.652957    117.63605      46.7237      46.7237      46.7237           90           90           90     102002.7    722.82611 
  963000       962500   -10859.512    909.33206   -11768.844    4158.9611   -15927.805    91.582726    1022.1025    613.50569    843.30438   -78.211695    46.147945   -13.526957      46.7237      46.7237      46.7237           90           90           90     102002.7     826.3042 
  964000       963500   -10890.711    893.55617   -11784.267    4149.8474   -15934.115    89.993869    1148.9899    630.28846    830.24912   -69.638243    192.75703    174.47186      46.7237      46.7237      46.7237           90           90           90     102002.7     869.8425 
  965000       964500   -10937.299    901.07813   -11838.377    4123.9903   -15962.367    90.751438    882.73247    480.68763    1023.5599     104.5551    -138.3929   -48.849029      46.7237      46.7237      46.7237           90           90           90     102002.7    795.66001 
  966000       965500   -10880.363    908.01806   -11788.381    4145.0136   -15933.395    91.450388     560.0589    339.22551    667.72063   -58.462859   -122.21895   -326.48563      46.7237      46.7237      46.7237           90           90           90     102002.7    522.33502 
  967000       966500   -10902.898    899.06847   -11801.966     4145.434     -15947.4    90.549036    517.79982     543.4894    611.58994   -10.672267    118.03535    83.844339      46.7237      46.7237      46.7237           90           90           90     102002.7    557.62639 
  968000       967500   -10850.475    924.93883   -11775.414    4139.0739   -15914.488    93.154551    1150.5895    308.23825    1167.6713     164.6827   -1.2358107   -81.343873      46.7237      46.7237      46.7237           90           90           90     102002.7    875.49967 
  969000       968500   -10893.558    906.57396   -11800.132    4136.8306   -15936.963    91.304946    927.19984    413.67444    869.51754   -165.14861    152.04898    195.22584      46.7237      46.7237      46.7237           90           90           90     102002.7    736.79727 
  970000       969500   -10901.174    901.54426   -11802.719    4156.0338   -15958.752    90.798384    614.03428    760.49346    1305.1219    -124.5849   -68.295805   -57.808442      46.7237      46.7237      46.7237           90           90           90     102002.7    893.21655 
  971000       970500   -10898.505    900.54603   -11799.051    4154.2169   -15953.268    90.697847    566.55696    624.16118    594.24459    21.926109   -101.69559    36.443378      46.7237      46.7237      46.7237           90           90           90     102002.7    594.98758 
  972000       971500   -10891.812    907.49071   -11799.303    4152.2841   -15951.587    91.397276    688.50639    607.04579    810.87999    77.371358   -285.24183    104.36434      46.7237      46.7237      46.7237           90           90           90     102002.7    702.14406 
  973000       972500   -10895.681    906.50299   -11802.184    4137.6916   -15939.875    91.297799    883.13852    798.50865    480.65988   -16.303606   -17.860543   -194.19661      46.7237      46.7237      46.7237           90           90           90     102002.7    720.76901 
  974000       973500    -10867.35    921.64468   -11788.994    4148.5897   -15937.584    92.822783    878.26995    1126.3031    943.23816   -233.64294   -106.34363   -271.88465      46.7237      46.7237      46.7237           90           90           90     102002.7    982.60374 
  975000       974500   -10900.985    906.66879   -11807.654    4137.1465     -15944.8    91.314497    771.67472    1090.8581    1097.2909   -143.52705   -43.232283   -175.01788      46.7237      46.7237      46.7237           90           90           90     102002.7     986.6079 
  976000       975500   -10905.291    889.74705   -11795.038    4154.6992   -15949.737    89.610236    806.26801    1002.4701    795.46762    59.092369   -143.49812     61.86998      46.7237      46.7237      46.7237           90           90           90     102002.7    868.06858 
  977000       976500   -10897.565    903.70275   -11801.268     4142.336   -15943.604    91.015775    887.73784    691.08502    1130.1753    175.64815   -119.55445   -217.74788      46.7237      46.7237      46.7237           90           90           90     102002.7    902.99937 
  978000       977500   -10886.417    902.00385    -11788.42    4151.8872   -15940.308    90.844671    788.93616    612.06671    1028.8074   -114.65954    39.617804    -146.5235      46.7237      46.7237      46.7237           90           90           90     102002.7    809.93675 
  979000       978500   -10919.812    866.51859   -11786.331    4138.0289    -15924.36    87.270798    1041.0813    1052.6257    1018.5628   -134.57955   -383.85212   -130.93796      46.7237      46.7237      46.7237           90           90           90     102002.7    1037.4233 
  980000       979500   -10884.203    919.07353   -11803.276    4161.2806   -15964.557    92.563832    881.69616    719.62566    949.25403    48.358155    175.41304    226.43992      46.7237      46.7237      46.7237           90           90           90     102002.7    850.19195 
  981000       980500   -10908.826    915.16777   -11823.994    4119.6667   -15943.661    92.170466    618.62225    682.63407    607.13323    148.01987    44.923908    266.33803      46.7237      46.7237      46.7237           90           90           90     102002.7    636.12985 
  982000       981500   -10897.136    894.64263   -11791.779    4143.7165   -15935.495    90.103291    824.12076     761.9683    915.37197    191.39677    234.00069    44.815981      46.7237      46.7237      46.7237           90           90           90     102002.7    833.82034 
  983000       982500   -10901.202    892.68856    -11793.89    4150.5894    -15944.48    89.906489    944.11331    336.87514    628.73495     92.02449    11.459935    74.900801      46.7237      46.7237      46.7237           90           90           90     102002.7    636.57447 
  984000       983500   -10894.212    891.56727   -11785.779    4149.3515   -15935.131    89.793558    1119.0755    513.36647    734.00036   -258.36027   -32.756499   -107.48586      46.7237      46.7237      46.7237           90           90           90     102002.7    788.81411 
  985000       984500   -10899.905    894.78172   -11794.687     4135.827   -15930.514    90.117299    980.27273    408.51917    982.46056    8.4909917    8.8324406    45.011275      46.7237      46.7237      46.7237           90           90           90     102002.7    790.41749 
  986000       985500   -10882.524    929.50596    -11812.03    4124.0758   -15936.105    93.614526    380.28036    677.55694    835.27467   -34.409324    243.99247   -165.35293      46.7237      46.7237      46.7237           90           90           90     102002.7    631.03732 
  987000       986500   -10920.985    890.74467    -11811.73    4149.1855   -15960.915    89.710711    268.47887    326.84923    547.80683   -297.36996   -101.96495      39.1778      46.7237      46.7237      46.7237           90           90           90     102002.7    381.04498 
  988000       987500   -10920.059    909.06467   -11829.124    4121.3676   -15950.492    91.555796    950.35715    862.05665    952.86718    36.428575    19.627822   -80.353716      46.7237      46.7237      46.7237           90           90           90     102002.7    921.76033 
  989000       988500   -10891.358     918.1082   -11809.466    4106.0607   -15915.527    92.466609     572.9787    873.84131    778.02827   -108.10498   -1.3127423     216.3679      46.7237      46.7237      46.7237           90           90           90     102002.7    741.61609 
  990000       989500   -10910.713    896.35946   -11807.073    4146.2115   -15953.284      90.2762    444.90811    1134.6323    723.27459    7.1197108    157.05249   -7.8687242      46.7237      46.7237      46.7237           90           90           90     102002.7    767.60501 
  991000       990500   -10896.241    892.23197   -11788.473    4137.1412   -15925.614    89.860503    634.84873    779.46015    855.81027    119.59004     122.0066     -68.6011      46.7237      46.7237      46.7237           90           90           90     102002.7    756.70638 
  992000       991500   -10914.348    906.06817   -11820.416    4139.8543    -15960.27    91.254006    725.36979    689.53971    800.47408   -146.61617    75.175532    128.23656      46.7237      46.7237      46.7237           90           90           90     102002.7    738.46119 
  993000       992500   -10895.313    905.85261   -11801.165    4129.3325   -15930.498    91.232297    906.60238    649.25007    902.79948   -140.91915    85.959651    21.957477      46.7237      46.7237      46.7237           90           90           90     102002.7    819.55064 
  994000       993500   -10895.404    913.81575    -11809.22    4135.9937   -15945.214    92.034298    601.80556    836.03585    662.92794   -168.97522   -214.92874    194.48356      46.7237      46.7237      46.7237           90           90           90     102002.7    700.25645 
  995000       994500   -10857.405    930.42375   -11787.828    4152.3709   -15940.199    93.706961    797.28878    552.84136    475.69305   -241.17655    12.053248    289.37836      46.7237      46.7237      46.7237           90           90           90     102002.7    608.60773 
  996000       995500   -10915.749    901.58312   -11817.332     4131.491   -15948.823    90.802298    710.79015    349.53623    929.14171    95.772405    110.56978   -74.410446      46.7237      46.7237      46.7237           90           90           90     102002.7    663.15603 
  997000       996500   -10888.507    913.50501   -11802.012    4140.3898   -15942.401    92.003002    831.39759     914.4538    805.33005   -58.711527    300.89682   -1.4532799      46.7237      46.7237      46.7237           90           90           90     102002.7    850.39381 
  998000       997500   -10913.854    884.15115   -11798.005    4138.0615   -15936.067    89.046649    668.44064    684.37165    1082.4428   -18.717252    176.65145    200.54975      46.7237      46.7237      46.7237           90           90           90     102002.7     811.7517 
  999000       998500   -10870.453    918.28649    -11788.74    4135.9018   -15924.642    92.484565    609.22646    796.29676    962.16347   -204.96786   -73.678819    25.674991      46.7237      46.7237      46.7237           90           90           90     102002.7     789.2289 
 1000000       999500    -10913.12    896.78433   -11809.905     4130.413   -15940.318    90.318991    616.98215    813.41835    1303.2347    195.71706   -376.52942    73.051177      46.7237      46.7237      46.7237           90           90           90     102002.7    911.21172 
 1000500      1000000   -10884.142    925.81627   -11809.959    4122.2891   -15932.248    93.242922    1036.0406     523.7155    521.93847   -152.47261    -122.3506    11.384959      46.7237      46.7237      46.7237           90           90           90     102002.7    693.89818 
Loop time of 2400.13 on 16 procs for 500000 steps with 3332 atoms

Performance: 17.999 ns/day, 1.333 hours/ns, 208.322 timesteps/s
99.8% CPU use with 16 MPI tasks x no OpenMP threads

MPI task timing breakdown:
Section |  min time  |  avg time  |  max time  |%varavg| %total
---------------------------------------------------------------
Pair    | 1205.8     | 1549.6     | 1973.8     | 520.9 | 64.56
Bond    | 108.58     | 184.31     | 239.75     | 315.3 |  7.68
Neigh   | 15.342     | 15.377     | 15.406     |   0.5 |  0.64
Comm    | 161.83     | 618.24     | 1001.1     | 946.1 | 25.76
Output  | 0.13588    | 0.14436    | 0.1451     |   0.6 |  0.01
Modify  | 23.888     | 25.398     | 26.634     |  18.9 |  1.06
Other   |            | 7.088      |            |       |  0.30

Nlocal:    208.25 ave 250 max 157 min
Histogram: 1 1 0 2 2 3 3 1 2 1
Nghost:    4180.81 ave 4232 max 4132 min
Histogram: 1 1 2 3 2 1 1 2 2 1
Neighs:    11462.4 ave 17249 max 6767 min
Histogram: 2 3 2 1 2 1 0 0 4 1

Total # of neighbors = 183399
Ave neighs/atom = 55.0417
Ave special neighs/atom = 3.45738
Neighbor list builds = 4078
Dangerous builds = 0
Total wall time: 1:13:50
