LAMMPS (30 Mar 2018)
Reading data file ...
  orthogonal box = (0 0 0) to (46.7237 46.7237 46.7237)
  2 by 2 by 4 MPI processor grid
  reading atoms ...
  2118 atoms
  scanning bonds ...
  5 = max bonds/atom
  scanning angles ...
  10 = max angles/atom
  scanning dihedrals ...
  32 = max dihedrals/atom
  scanning impropers ...
  3 = max impropers/atom
  reading bonds ...
  2064 bonds
  reading angles ...
  3696 angles
  reading dihedrals ...
  6240 dihedrals
  reading impropers ...
  1008 impropers
Finding 1-2 1-3 1-4 neighbors ...
  special bond factors lj:   0          0          0         
  special bond factors coul: 0          0          0         
  5 = max # of 1-2 neighbors
  8 = max # of 1-3 neighbors
  20 = max # of 1-4 neighbors
  19 = max # of special neighbors
Finding 1-2 1-3 1-4 neighbors ...
  special bond factors lj:   0          0          1         
  special bond factors coul: 1          1          1         
  5 = max # of 1-2 neighbors
  8 = max # of 1-3 neighbors
  19 = max # of special neighbors
WARNING: Using 'neigh_modify every 1 delay 0 check yes' setting during minimization (../min.cpp:168)
Neighbor list info ...
  update every 1 steps, delay 0 steps, check yes
  max neighbors/atom: 2000, page size: 100000
  master list distance cutoff = 16
  ghost atom cutoff = 16
  binsize = 8, bins = 6 6 6
  3 neighbor lists, perpetual/occasional/extra = 3 0 0
  (1) pair buck6d/coul/gauss/dsf, perpetual, skip from (3)
      attributes: half, newton on
      pair build: skip
      stencil: none
      bin: none
  (2) pair lj/cut, perpetual, skip from (3)
      attributes: half, newton on
      pair build: skip
      stencil: none
      bin: none
  (3) neighbor class addition, perpetual
      attributes: half, newton on
      pair build: half/bin/newton
      stencil: half/bin/3d/newton
      bin: standard
Setting up cg style minimization ...
  Unit style    : real
  Current step  : 0
WARNING: Inconsistent image flags (../domain.cpp:786)
Per MPI rank memory allocation (min/avg/max) = 22.92 | 23.38 | 23.82 Mbytes
Step Temp E_pair E_mol TotEng Press 
       0            0   -12617.606    6482.8914    -6134.715    6038.1205 
     501            0   -12812.465    3731.5472   -9080.9174   -728.42603 
Loop time of 3.21774 on 16 procs for 501 steps with 2118 atoms

99.9% CPU use with 16 MPI tasks x no OpenMP threads

Minimization stats:
  Stopping criterion = max force evaluations
  Energy initial, next-to-last, final = 
        -6134.71496033     -9080.81052396     -9080.91741575
  Force two-norm initial, final = 2575.31 14.857
  Force max component initial, final = 151.989 2.93911
  Final line search alpha, max atom move = 0.00305805 0.00898796
  Iterations, force evaluations = 501 1001

MPI task timing breakdown:
Section |  min time  |  avg time  |  max time  |%varavg| %total
---------------------------------------------------------------
Pair    | 1.2432     | 1.9021     | 2.4839     |  24.6 | 59.11
Bond    | 0.27798    | 0.36237    | 0.43224    |   6.6 | 11.26
Neigh   | 0.028344   | 0.028474   | 0.028766   |   0.1 |  0.88
Comm    | 0.28199    | 0.88395    | 1.5571     |  36.6 | 27.47
Output  | 0          | 0          | 0          |   0.0 |  0.00
Modify  | 0          | 0          | 0          |   0.0 |  0.00
Other   |            | 0.04085    |            |       |  1.27

Nlocal:    132.375 ave 155 max 108 min
Histogram: 1 2 1 1 1 5 0 3 0 2
Nghost:    2610.25 ave 2637 max 2587 min
Histogram: 3 1 0 0 3 5 2 0 0 2
Neighs:    11461.2 ave 14913 max 7770 min
Histogram: 2 1 1 2 3 1 0 2 1 3

Total # of neighbors = 183380
Ave neighs/atom = 86.5817
Ave special neighs/atom = 5.43909
Neighbor list builds = 16
Dangerous builds = 0
Neighbor list info ...
  update every 1 steps, delay 10 steps, check yes
  max neighbors/atom: 2000, page size: 100000
  master list distance cutoff = 16
  ghost atom cutoff = 16
  binsize = 8, bins = 6 6 6
  3 neighbor lists, perpetual/occasional/extra = 3 0 0
  (1) pair buck6d/coul/gauss/dsf, perpetual, skip from (3)
      attributes: half, newton on
      pair build: skip
      stencil: none
      bin: none
  (2) pair lj/cut, perpetual, skip from (3)
      attributes: half, newton on
      pair build: skip
      stencil: none
      bin: none
  (3) neighbor class addition, perpetual
      attributes: half, newton on
      pair build: half/bin/newton
      stencil: half/bin/3d/newton
      bin: standard
Setting up Verlet run ...
  Unit style    : real
  Current step  : 501
  Time step     : 1
WARNING: Inconsistent image flags (../domain.cpp:786)
Per MPI rank memory allocation (min/avg/max) = 22.57 | 22.67 | 23.15 Mbytes
Step Temp PotEng TotEng Press Volume Lx Ly Lz 
     501          130   -9080.9174   -8260.5687   -360.78863     102002.7      46.7237      46.7237      46.7237 
    1000    111.91936   -8358.6966   -7652.4435     -570.754     102002.7      46.7237      46.7237      46.7237 
    2000    142.86304   -8255.9445   -7354.4251   -545.07381     102002.7      46.7237      46.7237      46.7237 
    3000    127.01978   -8200.4858   -7398.9434   -931.97045     102002.7      46.7237      46.7237      46.7237 
    4000    126.18915   -8217.2611   -7420.9603    -474.4231     102002.7      46.7237      46.7237      46.7237 
    5000     131.3394    -8225.503   -7396.7022   -874.94008     102002.7      46.7237      46.7237      46.7237 
    6000    133.02546   -8194.1805     -7354.74   -472.87786     102002.7      46.7237      46.7237      46.7237 
    7000    128.44567   -8219.9781   -7409.4377   -569.67002     102002.7      46.7237      46.7237      46.7237 
    8000    131.18882   -8179.5485   -7351.6979    -487.7995     102002.7      46.7237      46.7237      46.7237 
    9000    130.64199   -8207.0925   -7382.6926   -459.63801     102002.7      46.7237      46.7237      46.7237 
   10000    130.44191   -8236.7911   -7413.6538   -947.34779     102002.7      46.7237      46.7237      46.7237 
   11000    127.24128   -8209.2252    -7406.285   -570.97139     102002.7      46.7237      46.7237      46.7237 
   12000    131.63074   -8204.9387   -7374.2994   -764.22131     102002.7      46.7237      46.7237      46.7237 
   13000    129.14274   -8227.5038   -7412.5647   -714.63063     102002.7      46.7237      46.7237      46.7237 
   14000     128.6745   -8208.0146   -7396.0302   -392.10148     102002.7      46.7237      46.7237      46.7237 
   15000    128.80188    -8207.103   -7394.3148   -916.22543     102002.7      46.7237      46.7237      46.7237 
   16000     130.5314   -8173.6295   -7349.9274   -455.80055     102002.7      46.7237      46.7237      46.7237 
   17000    135.08026   -8182.9496   -7330.5425   -811.83091     102002.7      46.7237      46.7237      46.7237 
   18000    131.65235   -8207.6178   -7376.8421   -738.35215     102002.7      46.7237      46.7237      46.7237 
   19000    128.04293   -8186.3746   -7378.3758   -1090.2595     102002.7      46.7237      46.7237      46.7237 
   20000    136.90119    -8165.741   -7301.8432   -832.87293     102002.7      46.7237      46.7237      46.7237 
   21000    131.84973   -8185.3187   -7353.2975   -527.35067     102002.7      46.7237      46.7237      46.7237 
   22000    130.19746   -8196.8044   -7375.2097   -990.82747     102002.7      46.7237      46.7237      46.7237 
   23000     128.8704    -8182.128   -7368.9075   -607.43035     102002.7      46.7237      46.7237      46.7237 
   24000    122.74026   -8186.1184   -7411.5814   -745.28207     102002.7      46.7237      46.7237      46.7237 
   25000    133.49321   -8187.0861   -7344.6939   -625.72613     102002.7      46.7237      46.7237      46.7237 
   26000    128.40257   -8202.6325   -7392.3642   -1036.8792     102002.7      46.7237      46.7237      46.7237 
   27000    129.30477   -8189.5317   -7373.5701   -942.90829     102002.7      46.7237      46.7237      46.7237 
   28000     127.8987   -8207.4065   -7400.3177   -801.02314     102002.7      46.7237      46.7237      46.7237 
   29000    129.85045   -8192.4013   -7372.9963   -864.20795     102002.7      46.7237      46.7237      46.7237 
   30000    129.75265   -8208.6259   -7389.8381   -1096.5692     102002.7      46.7237      46.7237      46.7237 
   31000    130.32419   -8161.4749   -7339.0804   -1134.7288     102002.7      46.7237      46.7237      46.7237 
   32000    129.00361   -8195.5529   -7381.4918   -604.03777     102002.7      46.7237      46.7237      46.7237 
   33000    128.68788    -8178.872   -7366.8033   -1088.6996     102002.7      46.7237      46.7237      46.7237 
   34000    130.38191   -8216.1607   -7393.4019   -626.33416     102002.7      46.7237      46.7237      46.7237 
   35000    127.18076   -8187.4074   -7384.8492    -675.1849     102002.7      46.7237      46.7237      46.7237 
   36000    130.95835   -8177.8332   -7351.4369   -909.71521     102002.7      46.7237      46.7237      46.7237 
   37000    130.97665   -8187.6611   -7361.1493   -717.40589     102002.7      46.7237      46.7237      46.7237 
   38000    130.87419   -8215.4216   -7389.5564   -1011.1954     102002.7      46.7237      46.7237      46.7237 
   39000    130.42542   -8195.4701   -7372.4368     -650.136     102002.7      46.7237      46.7237      46.7237 
   40000    133.68689   -8186.3558   -7342.7414   -1018.4479     102002.7      46.7237      46.7237      46.7237 
   41000    129.61667   -8183.2986   -7365.3688   -816.80744     102002.7      46.7237      46.7237      46.7237 
   42000    135.61049   -8200.1602   -7344.4071   -833.74002     102002.7      46.7237      46.7237      46.7237 
   43000    127.90273   -8181.9703   -7374.8561   -795.82118     102002.7      46.7237      46.7237      46.7237 
   44000     127.7075   -8185.2371   -7379.3549   -429.54643     102002.7      46.7237      46.7237      46.7237 
   45000    131.37559   -8206.5553   -7377.5261   -901.81913     102002.7      46.7237      46.7237      46.7237 
   46000     130.6947   -8187.7934   -7363.0608   -826.28446     102002.7      46.7237      46.7237      46.7237 
   47000    127.67695   -8195.7526   -7390.0632   -789.63471     102002.7      46.7237      46.7237      46.7237 
   48000    135.52265   -8170.5532   -7315.3545   -701.66187     102002.7      46.7237      46.7237      46.7237 
   49000    129.34821   -8219.2857     -7403.05   -984.90598     102002.7      46.7237      46.7237      46.7237 
   50000    132.89883   -8175.3063   -7336.6648   -880.17217     102002.7      46.7237      46.7237      46.7237 
   51000    132.29344    -8227.219   -7392.3978   -778.28776     102002.7      46.7237      46.7237      46.7237 
   52000    131.39548   -8219.3768   -7390.2221     -465.257     102002.7      46.7237      46.7237      46.7237 
   53000    127.93463   -8215.0966    -7407.781   -675.24659     102002.7      46.7237      46.7237      46.7237 
   54000    129.22432   -8203.9085   -7388.4547   -955.54867     102002.7      46.7237      46.7237      46.7237 
   55000    128.95382    -8194.518   -7380.7711   -857.17572     102002.7      46.7237      46.7237      46.7237 
   56000    130.25992   -8176.3834   -7354.3945   -940.61687     102002.7      46.7237      46.7237      46.7237 
   57000      128.152   -8179.1642    -7370.477   -720.93492     102002.7      46.7237      46.7237      46.7237 
   58000    133.18233   -8205.1597   -7364.7293   -725.76832     102002.7      46.7237      46.7237      46.7237 
   59000    128.76447     -8186.33   -7373.7779   -651.34564     102002.7      46.7237      46.7237      46.7237 
   60000    128.65307   -8191.8091     -7379.96   -788.78807     102002.7      46.7237      46.7237      46.7237 
   61000    134.37938   -8204.3136   -7356.3293   -865.37239     102002.7      46.7237      46.7237      46.7237 
   62000    132.43388   -8199.8887   -7364.1812   -758.96873     102002.7      46.7237      46.7237      46.7237 
   63000    127.17431   -8207.5162   -7404.9986   -881.64392     102002.7      46.7237      46.7237      46.7237 
   64000    131.92209   -8223.8406   -7391.3628   -951.39828     102002.7      46.7237      46.7237      46.7237 
   65000     130.8211   -8171.8606   -7346.3304   -819.13769     102002.7      46.7237      46.7237      46.7237 
   66000    128.93051   -8169.7936   -7356.1938   -688.78377     102002.7      46.7237      46.7237      46.7237 
   67000    127.80046   -8194.2337   -7387.7649   -772.63679     102002.7      46.7237      46.7237      46.7237 
   68000    129.52457    -8204.824   -7387.4755   -724.29982     102002.7      46.7237      46.7237      46.7237 
   69000    131.46715    -8190.386    -7360.779   -615.69935     102002.7      46.7237      46.7237      46.7237 
   70000     132.3168   -8190.1601   -7355.1915   -642.51597     102002.7      46.7237      46.7237      46.7237 
   71000    133.15159   -8187.2188   -7346.9824   -418.80613     102002.7      46.7237      46.7237      46.7237 
   72000    133.90258   -8207.1619   -7362.1865   -608.16491     102002.7      46.7237      46.7237      46.7237 
   73000    127.53466   -8189.0883   -7384.2968   -632.87937     102002.7      46.7237      46.7237      46.7237 
   74000    128.22491   -8180.0508   -7370.9036   -801.18778     102002.7      46.7237      46.7237      46.7237 
   75000    133.50185   -8164.4075   -7321.9608   -542.78099     102002.7      46.7237      46.7237      46.7237 
   76000    129.53039   -8209.8171   -7392.4318   -747.25882     102002.7      46.7237      46.7237      46.7237 
   77000    129.40758   -8205.0766   -7388.4663    -961.2447     102002.7      46.7237      46.7237      46.7237 
   78000    131.36649   -8179.4807   -7350.5089   -936.64886     102002.7      46.7237      46.7237      46.7237 
   79000    133.08135   -8174.7683    -7334.975   -746.27011     102002.7      46.7237      46.7237      46.7237 
   80000    130.65929   -8192.0971    -7367.588   -700.92946     102002.7      46.7237      46.7237      46.7237 
   81000    131.04807   -8180.6908   -7353.7284   -773.78088     102002.7      46.7237      46.7237      46.7237 
   82000    129.19052   -8172.0576    -7356.817   -947.42817     102002.7      46.7237      46.7237      46.7237 
   83000    132.74465   -8192.1666    -7354.498   -376.88936     102002.7      46.7237      46.7237      46.7237 
   84000     129.2265   -8197.6595   -7382.1918   -766.15225     102002.7      46.7237      46.7237      46.7237 
   85000    129.44494   -8199.3916   -7382.5456   -751.86685     102002.7      46.7237      46.7237      46.7237 
   86000    134.49986   -8194.7087   -7345.9641   -518.19617     102002.7      46.7237      46.7237      46.7237 
   87000    131.29546   -8198.5986    -7370.075   -744.67814     102002.7      46.7237      46.7237      46.7237 
   88000    130.10905   -8185.2957   -7364.2588   -645.06158     102002.7      46.7237      46.7237      46.7237 
   89000     131.2654   -8191.5758    -7363.242   -590.29664     102002.7      46.7237      46.7237      46.7237 
   90000    124.32744   -8215.2755   -7430.7228   -880.12152     102002.7      46.7237      46.7237      46.7237 
   91000    130.83755   -8175.0816   -7349.4475   -916.42808     102002.7      46.7237      46.7237      46.7237 
   92000    134.37374    -8199.326   -7351.3774   -1065.6768     102002.7      46.7237      46.7237      46.7237 
   93000    133.69488   -8193.1449   -7349.4801   -847.65643     102002.7      46.7237      46.7237      46.7237 
   94000    130.89262   -8178.2303   -7352.2489   -812.84534     102002.7      46.7237      46.7237      46.7237 
   95000    124.49556   -8194.7766   -7409.1629   -800.33587     102002.7      46.7237      46.7237      46.7237 
   96000    132.97034   -8190.4836   -7351.3909   -612.71068     102002.7      46.7237      46.7237      46.7237 
   97000     129.4106   -8180.3011   -7363.6717   -992.75589     102002.7      46.7237      46.7237      46.7237 
   98000    131.85263   -8195.0887   -7363.0492   -1099.9597     102002.7      46.7237      46.7237      46.7237 
   99000    130.21476   -8171.7706   -7350.0667   -776.71858     102002.7      46.7237      46.7237      46.7237 
  100000    126.91193    -8187.839   -7386.9772   -1024.3595     102002.7      46.7237      46.7237      46.7237 
  101000    132.96732   -8179.8476    -7340.774   -787.32445     102002.7      46.7237      46.7237      46.7237 
  102000    130.24852    -8205.889    -7383.972   -584.27204     102002.7      46.7237      46.7237      46.7237 
  103000    128.56074   -8231.8512   -7420.5847   -965.14835     102002.7      46.7237      46.7237      46.7237 
  104000    129.37368   -8204.6501   -7388.2537    -1158.979     102002.7      46.7237      46.7237      46.7237 
  105000    131.68198   -8211.2683   -7380.3057   -782.51519     102002.7      46.7237      46.7237      46.7237 
  106000    125.68756   -8211.7702   -7418.6345   -948.74967     102002.7      46.7237      46.7237      46.7237 
  107000    128.98373   -8212.3482   -7398.4124   -952.52374     102002.7      46.7237      46.7237      46.7237 
  108000    127.55427   -8178.6556   -7373.7403   -885.24332     102002.7      46.7237      46.7237      46.7237 
  109000    132.60094   -8194.1536   -7357.3919   -1043.7647     102002.7      46.7237      46.7237      46.7237 
  110000    127.37399   -8223.9963   -7420.2187   -692.39681     102002.7      46.7237      46.7237      46.7237 
  111000    130.04815   -8221.8714   -7401.2189   -719.87106     102002.7      46.7237      46.7237      46.7237 
  112000    127.51379   -8206.5636   -7401.9037   -829.35755     102002.7      46.7237      46.7237      46.7237 
  113000    135.07436   -8169.3674   -7316.9975   -887.08388     102002.7      46.7237      46.7237      46.7237 
  114000    126.36682   -8197.5692   -7400.1472   -850.00014     102002.7      46.7237      46.7237      46.7237 
  115000    130.90347   -8204.4843   -7378.4343   -644.13419     102002.7      46.7237      46.7237      46.7237 
  116000    128.63013   -8183.7002   -7371.9958   -955.11692     102002.7      46.7237      46.7237      46.7237 
  117000    128.63199   -8200.2777   -7388.5616   -791.08405     102002.7      46.7237      46.7237      46.7237 
  118000    126.96611   -8203.9911   -7402.7874   -805.11554     102002.7      46.7237      46.7237      46.7237 
  119000    133.43462   -8187.5143   -7345.4918   -880.89746     102002.7      46.7237      46.7237      46.7237 
  120000    134.58848   -8207.5229   -7358.2191   -736.95326     102002.7      46.7237      46.7237      46.7237 
  121000    130.50623   -8199.9031   -7376.3598   -825.89367     102002.7      46.7237      46.7237      46.7237 
  122000    127.47204    -8220.801   -7416.4046    -759.2951     102002.7      46.7237      46.7237      46.7237 
  123000    127.34356   -8200.2663   -7396.6807   -668.50948     102002.7      46.7237      46.7237      46.7237 
  124000    133.45044   -8198.6109   -7356.4886    -506.9151     102002.7      46.7237      46.7237      46.7237 
  125000    130.40174   -8173.5862   -7350.7023   -460.62755     102002.7      46.7237      46.7237      46.7237 
  126000    127.57731   -8197.0175   -7391.9569   -863.06784     102002.7      46.7237      46.7237      46.7237 
  127000    128.78023    -8192.843   -7380.1915    -752.0116     102002.7      46.7237      46.7237      46.7237 
  128000    129.08842   -8227.9812   -7413.3848   -713.07042     102002.7      46.7237      46.7237      46.7237 
  129000    127.84994   -8191.4213   -7384.6403    -920.2072     102002.7      46.7237      46.7237      46.7237 
  130000    128.29349   -8201.1065   -7391.5265   -757.94398     102002.7      46.7237      46.7237      46.7237 
  131000    127.29338   -8169.2993   -7366.0304   -867.49824     102002.7      46.7237      46.7237      46.7237 
  132000     130.3722    -8184.124   -7361.4265    -1035.956     102002.7      46.7237      46.7237      46.7237 
  133000    127.09718    -8203.313   -7401.2821   -904.46379     102002.7      46.7237      46.7237      46.7237 
  134000    130.01855   -8171.4365   -7350.9708   -798.32542     102002.7      46.7237      46.7237      46.7237 
  135000    130.95129   -8187.3156   -7360.9639   -844.25746     102002.7      46.7237      46.7237      46.7237 
  136000    125.35837   -8199.0656   -7408.0073   -553.40024     102002.7      46.7237      46.7237      46.7237 
  137000    132.11916   -8201.4577   -7367.7362   -713.88299     102002.7      46.7237      46.7237      46.7237 
  138000    128.87851   -8179.8263   -7366.5546    -1007.983     102002.7      46.7237      46.7237      46.7237 
  139000     130.4186   -8186.3616   -7363.3713   -836.43115     102002.7      46.7237      46.7237      46.7237 
  140000    129.59916   -8193.6132   -7375.7939   -1092.5135     102002.7      46.7237      46.7237      46.7237 
  141000    130.92099   -8182.6394   -7356.4789    -1103.855     102002.7      46.7237      46.7237      46.7237 
  142000     127.6034   -8206.5991   -7401.3738   -1081.9716     102002.7      46.7237      46.7237      46.7237 
  143000    134.64292   -8182.8512   -7333.2039   -1299.4849     102002.7      46.7237      46.7237      46.7237 
  144000    130.80611   -8192.0461   -7366.6105   -865.79788     102002.7      46.7237      46.7237      46.7237 
  145000    129.37063   -8161.6505   -7345.2733   -936.36901     102002.7      46.7237      46.7237      46.7237 
  146000    134.01136   -8170.7494   -7325.0875   -996.49921     102002.7      46.7237      46.7237      46.7237 
  147000    135.39223   -8221.5358   -7367.1601   -879.48524     102002.7      46.7237      46.7237      46.7237 
  148000    126.88292   -8194.9037   -7394.2249   -886.28277     102002.7      46.7237      46.7237      46.7237 
  149000    128.00285   -8224.2746   -7416.5287   -519.03718     102002.7      46.7237      46.7237      46.7237 
  150000    129.67859   -8188.9405     -7370.62   -799.08183     102002.7      46.7237      46.7237      46.7237 
  151000    128.31855   -8196.2508   -7386.5127   -784.55273     102002.7      46.7237      46.7237      46.7237 
  152000    133.13673   -8192.7345   -7352.5918   -811.43333     102002.7      46.7237      46.7237      46.7237 
  153000    132.22378   -8219.7493   -7385.3677   -604.04501     102002.7      46.7237      46.7237      46.7237 
  154000    125.94626   -8204.0946   -7409.3264   -762.13173     102002.7      46.7237      46.7237      46.7237 
  155000    131.80796     -8205.55   -7373.7923   -852.95679     102002.7      46.7237      46.7237      46.7237 
  156000    135.06488   -8194.8913   -7342.5813   -815.02275     102002.7      46.7237      46.7237      46.7237 
  157000    129.22765   -8214.1144   -7398.6395   -1089.2701     102002.7      46.7237      46.7237      46.7237 
  158000     128.4625   -8204.5689   -7393.9223   -451.54551     102002.7      46.7237      46.7237      46.7237 
  159000     131.1043    -8207.429   -7380.1117   -825.01196     102002.7      46.7237      46.7237      46.7237 
  160000    135.13816   -8179.3312   -7326.5587   -799.26001     102002.7      46.7237      46.7237      46.7237 
  161000    128.20892   -8190.2548   -7381.2085   -253.57082     102002.7      46.7237      46.7237      46.7237 
  162000    129.63172   -8191.4822   -7373.4574   -1023.4285     102002.7      46.7237      46.7237      46.7237 
  163000    131.58831   -8201.9809   -7371.6093   -752.85648     102002.7      46.7237      46.7237      46.7237 
  164000    129.87354   -8208.7296   -7389.1789   -954.63309     102002.7      46.7237      46.7237      46.7237 
  165000    131.09011   -8176.5402   -7349.3124   -992.37944     102002.7      46.7237      46.7237      46.7237 
  166000    131.47526   -8173.4049   -7343.7467   -639.36109     102002.7      46.7237      46.7237      46.7237 
  167000    133.66276   -8203.7985   -7360.3364   -798.11999     102002.7      46.7237      46.7237      46.7237 
  168000    128.11167   -8219.6331   -7411.2005   -453.58935     102002.7      46.7237      46.7237      46.7237 
  169000    131.18835   -8193.7921   -7365.9444   -664.71668     102002.7      46.7237      46.7237      46.7237 
  170000    130.20475   -8194.3986   -7372.7578   -423.25327     102002.7      46.7237      46.7237      46.7237 
  171000    126.66088   -8192.8272   -7393.5496   -699.50084     102002.7      46.7237      46.7237      46.7237 
  172000    131.70349   -8193.2949   -7362.1965   -542.07029     102002.7      46.7237      46.7237      46.7237 
  173000     131.7314    -8172.948   -7341.6734   -632.29483     102002.7      46.7237      46.7237      46.7237 
  174000    130.83396   -8209.8741   -7384.2628   -908.31873     102002.7      46.7237      46.7237      46.7237 
  175000    128.38799   -8190.4626   -7380.2863   -304.50183     102002.7      46.7237      46.7237      46.7237 
  176000     130.7645   -8201.3012   -7376.1282    -872.0062     102002.7      46.7237      46.7237      46.7237 
  177000    128.56956   -8200.7061    -7389.384   -649.89918     102002.7      46.7237      46.7237      46.7237 
  178000    128.00862   -8214.0054    -7406.223   -733.00555     102002.7      46.7237      46.7237      46.7237 
  179000    130.47467   -8172.1933   -7348.8492   -839.31516     102002.7      46.7237      46.7237      46.7237 
  180000    128.81093    -8209.767   -7396.9217   -660.70248     102002.7      46.7237      46.7237      46.7237 
  181000    132.48516   -8187.2367   -7351.2056   -859.48721     102002.7      46.7237      46.7237      46.7237 
  182000    129.46882   -8212.3058    -7395.309   -689.77839     102002.7      46.7237      46.7237      46.7237 
  183000    129.91411   -8165.2102   -7345.4034   -590.68683     102002.7      46.7237      46.7237      46.7237 
  184000     128.5281    -8214.223   -7403.1625   -970.57234     102002.7      46.7237      46.7237      46.7237 
  185000    127.77732   -8185.8272   -7379.5044   -525.90515     102002.7      46.7237      46.7237      46.7237 
  186000    137.73068   -8229.0571   -7359.9248   -875.90001     102002.7      46.7237      46.7237      46.7237 
  187000    128.00544   -8207.7727   -7400.0104   -682.93662     102002.7      46.7237      46.7237      46.7237 
  188000    129.59967   -8206.4923   -7388.6698   -645.93428     102002.7      46.7237      46.7237      46.7237 
  189000    130.87054   -8154.8956   -7329.0535   -838.96797     102002.7      46.7237      46.7237      46.7237 
  190000    130.81824   -8177.5242    -7352.012   -964.89405     102002.7      46.7237      46.7237      46.7237 
  191000    126.39844   -8192.6811   -7395.0595    -905.6813     102002.7      46.7237      46.7237      46.7237 
  192000    129.27115   -8164.0243   -7348.2749   -514.54724     102002.7      46.7237      46.7237      46.7237 
  193000    128.33608    -8191.057   -7381.2082   -766.98347     102002.7      46.7237      46.7237      46.7237 
  194000    126.68149   -8179.3982   -7379.9906   -143.63276     102002.7      46.7237      46.7237      46.7237 
  195000     128.2047   -8208.2374   -7399.2177   -536.56038     102002.7      46.7237      46.7237      46.7237 
  196000     127.9146   -8210.4484   -7403.2594      -666.23     102002.7      46.7237      46.7237      46.7237 
  197000    132.56045   -8154.2491   -7317.7429   -1090.6649     102002.7      46.7237      46.7237      46.7237 
  198000    129.47612   -8177.4279    -7360.385   -1033.1969     102002.7      46.7237      46.7237      46.7237 
  199000    130.18493   -8219.3387    -7397.823   -473.99203     102002.7      46.7237      46.7237      46.7237 
  200000    129.68265   -8192.9554   -7374.6092    -783.6874     102002.7      46.7237      46.7237      46.7237 
  201000    127.52306   -8200.9824   -7396.2641    -786.7986     102002.7      46.7237      46.7237      46.7237 
  202000    129.94627   -8216.5187    -7396.509   -388.23152     102002.7      46.7237      46.7237      46.7237 
  203000    131.04364   -8173.5282   -7346.5937   -723.12728     102002.7      46.7237      46.7237      46.7237 
  204000    129.19364   -8187.8974   -7372.6371   -674.75255     102002.7      46.7237      46.7237      46.7237 
  205000    132.01527   -8164.7646   -7331.6987   -599.34283     102002.7      46.7237      46.7237      46.7237 
  206000    128.65063    -8204.968   -7393.1343   -586.01595     102002.7      46.7237      46.7237      46.7237 
  207000    128.87607   -8212.1691   -7398.9127   -408.67972     102002.7      46.7237      46.7237      46.7237 
  208000    130.46378     -8179.94   -7356.6647   -706.40648     102002.7      46.7237      46.7237      46.7237 
  209000    129.17606   -8200.2159   -7385.0666   -813.06387     102002.7      46.7237      46.7237      46.7237 
  210000     127.8251   -8188.1672   -7381.5429   -577.40072     102002.7      46.7237      46.7237      46.7237 
  211000    133.40822   -8164.3063   -7322.4504   -1045.4469     102002.7      46.7237      46.7237      46.7237 
  212000    126.21452   -8169.1458   -7372.6849    -529.9337     102002.7      46.7237      46.7237      46.7237 
  213000    130.51361   -8191.8822   -7368.2924   -784.78394     102002.7      46.7237      46.7237      46.7237 
  214000    130.19968   -8217.1087   -7395.4999   -730.35698     102002.7      46.7237      46.7237      46.7237 
  215000    129.70567    -8174.463   -7355.9716   -859.57842     102002.7      46.7237      46.7237      46.7237 
  216000    129.49898   -8187.6746   -7370.4875   -718.43877     102002.7      46.7237      46.7237      46.7237 
  217000    131.67618   -8169.5704   -7338.6444    -812.7571     102002.7      46.7237      46.7237      46.7237 
  218000    129.19793   -8194.6683   -7379.3809   -676.18484     102002.7      46.7237      46.7237      46.7237 
  219000    129.18258   -8200.8302   -7385.6397   -809.05648     102002.7      46.7237      46.7237      46.7237 
  220000    128.17226   -8204.8828   -7396.0678   -1052.5607     102002.7      46.7237      46.7237      46.7237 
  221000    130.60835   -8203.4229   -7379.2353   -710.87468     102002.7      46.7237      46.7237      46.7237 
  222000    126.81284   -8190.3432   -7390.1066   -773.56758     102002.7      46.7237      46.7237      46.7237 
  223000    131.69453   -8189.8044   -7358.7625   -1012.9105     102002.7      46.7237      46.7237      46.7237 
  224000    130.99394   -8165.5942   -7338.9733   -720.04901     102002.7      46.7237      46.7237      46.7237 
  225000    128.04326   -8202.5413   -7394.5403   -1015.7466     102002.7      46.7237      46.7237      46.7237 
  226000    126.18561   -8169.7962   -7373.5176   -1076.8297     102002.7      46.7237      46.7237      46.7237 
  227000    133.93943   -8208.6828   -7363.4748   -808.05006     102002.7      46.7237      46.7237      46.7237 
  228000    130.24656   -8219.3654   -7397.4608   -740.34944     102002.7      46.7237      46.7237      46.7237 
  229000     128.4458   -8177.1977   -7366.6565   -874.36964     102002.7      46.7237      46.7237      46.7237 
  230000    129.80262   -8196.7873   -7377.6841   -578.39395     102002.7      46.7237      46.7237      46.7237 
  231000    127.52691   -8207.1555   -7402.4129   -905.38378     102002.7      46.7237      46.7237      46.7237 
  232000    128.11955   -8193.8748   -7385.3924    -660.2078     102002.7      46.7237      46.7237      46.7237 
  233000    130.44936   -8234.5798   -7411.3954   -1003.4002     102002.7      46.7237      46.7237      46.7237 
  234000    130.59335   -8202.4604   -7378.3675   -944.30845     102002.7      46.7237      46.7237      46.7237 
  235000    129.02174   -8158.7838   -7344.6083   -701.97929     102002.7      46.7237      46.7237      46.7237 
  236000    128.98105   -8217.4524   -7403.5336   -902.71674     102002.7      46.7237      46.7237      46.7237 
  237000    133.99859   -8206.0492   -7360.4678   -1099.0502     102002.7      46.7237      46.7237      46.7237 
  238000    134.02672   -8197.0808    -7351.322   -791.39829     102002.7      46.7237      46.7237      46.7237 
  239000    129.92314   -8208.9943   -7389.1306   -1025.7794     102002.7      46.7237      46.7237      46.7237 
  240000    135.90287   -8205.5637   -7347.9656   -911.92057     102002.7      46.7237      46.7237      46.7237 
  241000    132.39006    -8188.406   -7352.9751   -971.15925     102002.7      46.7237      46.7237      46.7237 
  242000    130.67981   -8206.7296    -7382.091   -830.79178     102002.7      46.7237      46.7237      46.7237 
  243000    127.79014   -8200.8402   -7394.4365    -564.0157     102002.7      46.7237      46.7237      46.7237 
  244000    132.56575   -8166.1185   -7329.5789   -946.06146     102002.7      46.7237      46.7237      46.7237 
  245000      132.098   -8197.9668   -7364.3789    -686.0523     102002.7      46.7237      46.7237      46.7237 
  246000    132.77305   -8180.0381   -7342.1904   -612.19138     102002.7      46.7237      46.7237      46.7237 
  247000    128.22677   -8153.2692   -7344.1103   -799.12217     102002.7      46.7237      46.7237      46.7237 
  248000    127.79175   -8156.7988    -7350.385   -842.55986     102002.7      46.7237      46.7237      46.7237 
  249000    129.95216    -8190.623   -7370.5762   -581.91761     102002.7      46.7237      46.7237      46.7237 
  250000    130.25959   -8186.7451   -7364.7582   -578.21615     102002.7      46.7237      46.7237      46.7237 
  251000    129.91056   -8161.5258   -7341.7415   -913.01257     102002.7      46.7237      46.7237      46.7237 
  252000    125.71324   -8176.4016   -7383.1039   -875.92157     102002.7      46.7237      46.7237      46.7237 
  253000    130.98694   -8188.0192   -7361.4425   -671.43032     102002.7      46.7237      46.7237      46.7237 
  254000    129.95721    -8193.971   -7373.8923   -872.72643     102002.7      46.7237      46.7237      46.7237 
  255000    128.07446   -8180.2769    -7372.079   -824.88206     102002.7      46.7237      46.7237      46.7237 
  256000    132.51445   -8195.6184   -7359.4025   -961.21271     102002.7      46.7237      46.7237      46.7237 
  257000    134.17185   -8221.9163   -7375.2416   -346.07448     102002.7      46.7237      46.7237      46.7237 
  258000    130.43454   -8185.3971   -7362.3062   -673.21471     102002.7      46.7237      46.7237      46.7237 
  259000    126.81355   -8181.4395   -7381.1984   -951.28463     102002.7      46.7237      46.7237      46.7237 
  260000    129.74835   -8218.8665   -7400.1058   -779.49786     102002.7      46.7237      46.7237      46.7237 
  261000    134.31685   -8206.5539   -7358.9642   -817.66053     102002.7      46.7237      46.7237      46.7237 
  262000    128.43348   -8214.7483    -7404.285   -910.48297     102002.7      46.7237      46.7237      46.7237 
  263000    131.21321   -8212.6348   -7384.6303   -1054.9315     102002.7      46.7237      46.7237      46.7237 
  264000    130.43586   -8178.9327   -7355.8335   -613.19441     102002.7      46.7237      46.7237      46.7237 
  265000    127.04927    -8188.983   -7387.2545   -796.09241     102002.7      46.7237      46.7237      46.7237 
  266000    131.91595   -8174.4554   -7342.0163   -761.19813     102002.7      46.7237      46.7237      46.7237 
  267000    130.47543   -8202.6149    -7379.266   -531.90771     102002.7      46.7237      46.7237      46.7237 
  268000    134.40626   -8199.0266   -7350.8727   -856.32416     102002.7      46.7237      46.7237      46.7237 
  269000    131.86569   -8195.0726   -7362.9507   -762.02977     102002.7      46.7237      46.7237      46.7237 
  270000    129.58561    -8170.773   -7353.0392   -941.36318     102002.7      46.7237      46.7237      46.7237 
  271000    132.61756    -8172.838   -7335.9715   -875.96823     102002.7      46.7237      46.7237      46.7237 
  272000    129.39461   -8195.1591   -7378.6306   -779.09292     102002.7      46.7237      46.7237      46.7237 
  273000    133.53618    -8186.865   -7344.2017   -768.23218     102002.7      46.7237      46.7237      46.7237 
  274000    129.34313   -8195.7384   -7379.5347   -584.50537     102002.7      46.7237      46.7237      46.7237 
  275000    129.02421   -8151.7434   -7337.5523   -1084.5045     102002.7      46.7237      46.7237      46.7237 
  276000    129.05689   -8221.8714    -7407.474   -435.27728     102002.7      46.7237      46.7237      46.7237 
  277000    128.42755   -8166.1827   -7355.7567    -541.6626     102002.7      46.7237      46.7237      46.7237 
  278000    128.52998   -8202.4796   -7391.4073   -395.85316     102002.7      46.7237      46.7237      46.7237 
  279000    129.59827   -8207.0037     -7389.19   -585.90859     102002.7      46.7237      46.7237      46.7237 
  280000    130.09176   -8154.6078   -7333.6801   -902.30038     102002.7      46.7237      46.7237      46.7237 
  281000    132.60376   -8182.1863   -7345.4069    -420.6395     102002.7      46.7237      46.7237      46.7237 
  282000    131.78713   -8202.9419   -7371.3157   -517.11364     102002.7      46.7237      46.7237      46.7237 
  283000    127.52101    -8180.958   -7376.2526   -604.68382     102002.7      46.7237      46.7237      46.7237 
  284000    127.46975   -8188.5845   -7384.2026   -634.76069     102002.7      46.7237      46.7237      46.7237 
  285000     127.1494   -8149.9488   -7347.5884     -587.035     102002.7      46.7237      46.7237      46.7237 
  286000    131.18513   -8187.8062   -7359.9788   -716.46073     102002.7      46.7237      46.7237      46.7237 
  287000    129.52733   -8192.8639   -7375.4979   -898.35799     102002.7      46.7237      46.7237      46.7237 
  288000    130.32181   -8168.4102   -7346.0308   -1109.2985     102002.7      46.7237      46.7237      46.7237 
  289000    130.87437   -8176.6464   -7350.7801   -947.68039     102002.7      46.7237      46.7237      46.7237 
  290000    126.09326   -8172.8579   -7377.1621   -951.16604     102002.7      46.7237      46.7237      46.7237 
  291000    130.28327   -8168.7076   -7346.5713   -619.18382     102002.7      46.7237      46.7237      46.7237 
  292000    124.28502   -8168.3858   -7384.1008   -930.29416     102002.7      46.7237      46.7237      46.7237 
  293000    129.74244   -8172.5297   -7353.8062   -979.43685     102002.7      46.7237      46.7237      46.7237 
  294000    132.39524   -8184.2817   -7348.8181   -602.58398     102002.7      46.7237      46.7237      46.7237 
  295000    128.89625   -8155.3468   -7341.9631   -558.52195     102002.7      46.7237      46.7237      46.7237 
  296000    130.84439   -8154.6813   -7329.0041   -519.84404     102002.7      46.7237      46.7237      46.7237 
  297000    131.17182   -8199.2604    -7371.517   -644.70538     102002.7      46.7237      46.7237      46.7237 
  298000    128.98397    -8171.106   -7357.1688   -648.54613     102002.7      46.7237      46.7237      46.7237 
  299000    134.93786   -8182.4892   -7330.9807   -689.63556     102002.7      46.7237      46.7237      46.7237 
  300000    130.26177   -8163.7258   -7341.7252   -554.02011     102002.7      46.7237      46.7237      46.7237 
  301000    129.18405   -8196.0442   -7380.8444   -541.66646     102002.7      46.7237      46.7237      46.7237 
  302000    132.00291   -8162.8264   -7329.8385   -733.88611     102002.7      46.7237      46.7237      46.7237 
  303000    130.17531   -8190.3132   -7368.8582    -663.2201     102002.7      46.7237      46.7237      46.7237 
  304000    126.14136   -8190.3886   -7394.3893   -680.41566     102002.7      46.7237      46.7237      46.7237 
  305000    128.22834   -8181.5702   -7372.4013   -644.58856     102002.7      46.7237      46.7237      46.7237 
  306000    127.78045   -8220.7094   -7414.3668   -427.55858     102002.7      46.7237      46.7237      46.7237 
  307000    127.19933   -8175.7087   -7373.0332   -748.47269     102002.7      46.7237      46.7237      46.7237 
  308000    128.82415   -8200.2728   -7387.3442    -743.1198     102002.7      46.7237      46.7237      46.7237 
  309000    134.34942   -8201.7351   -7353.9399   -816.25034     102002.7      46.7237      46.7237      46.7237 
  310000    129.35927   -8204.2914   -7387.9859    -672.3211     102002.7      46.7237      46.7237      46.7237 
  311000    134.11394   -8176.1355   -7329.8262   -931.22543     102002.7      46.7237      46.7237      46.7237 
  312000    128.77298    -8184.223   -7371.6172   -850.71706     102002.7      46.7237      46.7237      46.7237 
  313000    129.86172   -8144.2923   -7324.8161   -715.71477     102002.7      46.7237      46.7237      46.7237 
  314000    128.36588   -8179.3143   -7369.2775    -786.6105     102002.7      46.7237      46.7237      46.7237 
  315000    128.15856    -8177.606   -7368.8774   -1071.4564     102002.7      46.7237      46.7237      46.7237 
  316000    129.13166   -8159.7992   -7344.9301   -787.87607     102002.7      46.7237      46.7237      46.7237 
  317000    132.35724   -8170.3963   -7335.1725   -929.94362     102002.7      46.7237      46.7237      46.7237 
  318000    131.40598   -8196.0248   -7366.8038   -799.69657     102002.7      46.7237      46.7237      46.7237 
  319000    127.78479   -8164.9601   -7358.5902   -768.68595     102002.7      46.7237      46.7237      46.7237 
  320000    127.85601   -8145.6276   -7338.8083    -877.7443     102002.7      46.7237      46.7237      46.7237 
  321000    126.97088   -8192.2809    -7391.047   -886.80988     102002.7      46.7237      46.7237      46.7237 
  322000    131.93195   -8186.1253   -7353.5852   -775.37856     102002.7      46.7237      46.7237      46.7237 
  323000     132.0366   -8185.4667   -7352.2662   -725.59386     102002.7      46.7237      46.7237      46.7237 
  324000     132.1732   -8201.5414    -7367.479   -599.09194     102002.7      46.7237      46.7237      46.7237 
  325000    128.16767   -8188.3977   -7379.6116   -936.54516     102002.7      46.7237      46.7237      46.7237 
  326000    134.76877   -8167.0038   -7316.5624    -810.1409     102002.7      46.7237      46.7237      46.7237 
  327000    130.81288   -8156.1425   -7330.6642   -889.33118     102002.7      46.7237      46.7237      46.7237 
  328000    129.37185   -8159.5705   -7343.1856   -1014.7386     102002.7      46.7237      46.7237      46.7237 
  329000    131.15892   -8226.7067   -7399.0447   -709.71794     102002.7      46.7237      46.7237      46.7237 
  330000    133.37963   -8185.2809   -7343.6054   -762.24793     102002.7      46.7237      46.7237      46.7237 
  331000    129.17246   -8185.9508   -7370.8242   -754.82706     102002.7      46.7237      46.7237      46.7237 
  332000    134.08743   -8184.0238   -7337.8818   -720.15208     102002.7      46.7237      46.7237      46.7237 
  333000    126.41457   -8191.5063   -7393.7829   -888.82552     102002.7      46.7237      46.7237      46.7237 
  334000    128.80786   -8184.4946   -7371.6687   -633.22625     102002.7      46.7237      46.7237      46.7237 
  335000    128.82588   -8182.8916    -7369.952   -486.85433     102002.7      46.7237      46.7237      46.7237 
  336000    131.78404   -8168.0579   -7336.4512   -958.90424     102002.7      46.7237      46.7237      46.7237 
  337000    132.43941   -8191.0763    -7355.334   -733.20599     102002.7      46.7237      46.7237      46.7237 
  338000    130.10991   -8226.2711   -7405.2288   -926.56806     102002.7      46.7237      46.7237      46.7237 
  339000    134.15565   -8189.4021   -7342.8296   -696.54151     102002.7      46.7237      46.7237      46.7237 
  340000    127.19195   -8167.2446   -7364.6157      -813.16     102002.7      46.7237      46.7237      46.7237 
  341000    127.22214   -8181.2076   -7378.3882   -857.53602     102002.7      46.7237      46.7237      46.7237 
  342000    134.54123   -8177.2353   -7328.2297   -974.63628     102002.7      46.7237      46.7237      46.7237 
  343000    129.81057   -8145.5986   -7326.4452    -914.4205     102002.7      46.7237      46.7237      46.7237 
  344000    131.92209   -8190.5976   -7358.1197   -718.49354     102002.7      46.7237      46.7237      46.7237 
  345000    130.50368   -8158.5379   -7335.0107   -607.66067     102002.7      46.7237      46.7237      46.7237 
  346000    132.50074   -8181.0558   -7344.9265    -655.9876     102002.7      46.7237      46.7237      46.7237 
  347000    129.43839   -8187.8002   -7370.9954   -501.77871     102002.7      46.7237      46.7237      46.7237 
  348000    130.92665   -8151.1092    -7324.913   -555.21253     102002.7      46.7237      46.7237      46.7237 
  349000    131.39812   -8191.6758   -7362.5044   -644.30694     102002.7      46.7237      46.7237      46.7237 
  350000    125.36972   -8148.8501   -7357.7202   -775.02609     102002.7      46.7237      46.7237      46.7237 
  351000    130.77239   -8183.5398    -7358.317   -498.31584     102002.7      46.7237      46.7237      46.7237 
  352000     133.7097   -8206.6766   -7362.9183   -720.12444     102002.7      46.7237      46.7237      46.7237 
  353000    125.11624   -8194.6889   -7405.1585   -706.58222     102002.7      46.7237      46.7237      46.7237 
  354000    128.55694   -8169.6787   -7358.4362   -477.17478     102002.7      46.7237      46.7237      46.7237 
  355000    129.62883   -8149.7292   -7331.7226   -212.66781     102002.7      46.7237      46.7237      46.7237 
  356000    135.16128   -8162.8627   -7309.9444   -759.31708     102002.7      46.7237      46.7237      46.7237 
  357000    127.34164   -8168.8461   -7365.2727   -388.63285     102002.7      46.7237      46.7237      46.7237 
  358000    131.30308   -8176.8792   -7348.3076   -669.33842     102002.7      46.7237      46.7237      46.7237 
  359000    130.25462   -8184.3371   -7362.3816   -711.95714     102002.7      46.7237      46.7237      46.7237 
  360000    129.58383   -8182.7094   -7364.9868   -664.23173     102002.7      46.7237      46.7237      46.7237 
  361000    134.05707   -8172.3299   -7326.3795   -901.43204     102002.7      46.7237      46.7237      46.7237 
  362000    129.78304   -8205.6232   -7386.6436   -620.82713     102002.7      46.7237      46.7237      46.7237 
  363000    130.19556   -8171.9449   -7350.3621   -785.39738     102002.7      46.7237      46.7237      46.7237 
  364000    125.79711   -8190.1258   -7396.2989   -1130.7684     102002.7      46.7237      46.7237      46.7237 
  365000    130.52715   -8156.2132    -7332.538   -671.31292     102002.7      46.7237      46.7237      46.7237 
  366000    131.96712   -8160.7882   -7328.0262   -955.81788     102002.7      46.7237      46.7237      46.7237 
  367000    129.36822   -8179.7787   -7363.4167   -965.26029     102002.7      46.7237      46.7237      46.7237 
  368000    128.50838   -8163.0558   -7352.1197   -1013.8055     102002.7      46.7237      46.7237      46.7237 
  369000    131.78059   -8192.5126   -7360.9276   -1002.0055     102002.7      46.7237      46.7237      46.7237 
  370000     132.1811   -8190.6329   -7356.5206   -986.42893     102002.7      46.7237      46.7237      46.7237 
  371000    129.04673    -8187.766   -7373.4327   -972.43034     102002.7      46.7237      46.7237      46.7237 
  372000    128.10336   -8227.0422   -7418.6619   -761.31876     102002.7      46.7237      46.7237      46.7237 
  373000    131.46796   -8177.3355   -7347.7234   -694.59279     102002.7      46.7237      46.7237      46.7237 
  374000    131.29176    -8172.872   -7344.3717   -621.52893     102002.7      46.7237      46.7237      46.7237 
  375000    129.18991   -8150.2967   -7335.0599    -835.8612     102002.7      46.7237      46.7237      46.7237 
  376000    129.64294   -8150.6657   -7332.5702   -651.43759     102002.7      46.7237      46.7237      46.7237 
  377000    130.24455   -8196.3005   -7374.4086   -738.94577     102002.7      46.7237      46.7237      46.7237 
  378000    129.01397   -8237.8521   -7423.7256   -519.67243     102002.7      46.7237      46.7237      46.7237 
  379000    130.74887   -8180.8207   -7355.7463   -865.24816     102002.7      46.7237      46.7237      46.7237 
  380000     126.2885   -8194.1329   -7397.2051   -481.15429     102002.7      46.7237      46.7237      46.7237 
  381000     125.0397   -8178.0735   -7389.0261    -838.0283     102002.7      46.7237      46.7237      46.7237 
  382000    134.34555   -8199.8262   -7352.0554   -754.52348     102002.7      46.7237      46.7237      46.7237 
  383000    132.33908    -8203.209   -7368.0998   -545.69749     102002.7      46.7237      46.7237      46.7237 
  384000     130.3677   -8185.0413   -7362.3723   -821.81457     102002.7      46.7237      46.7237      46.7237 
  385000    127.40251   -8169.1205   -7365.1629   -674.90491     102002.7      46.7237      46.7237      46.7237 
  386000    130.34723   -8170.5297   -7347.9898   -811.91601     102002.7      46.7237      46.7237      46.7237 
  387000    130.78262   -8201.5044    -7376.217    -957.7345     102002.7      46.7237      46.7237      46.7237 
  388000    132.26043   -8171.2213   -7336.6084    -855.2319     102002.7      46.7237      46.7237      46.7237 
  389000    129.17725   -8174.1339    -7358.977   -1029.9083     102002.7      46.7237      46.7237      46.7237 
  390000    132.68345   -8190.3504   -7353.0681   -924.12546     102002.7      46.7237      46.7237      46.7237 
  391000    132.84171   -8180.6322   -7342.3512   -581.66662     102002.7      46.7237      46.7237      46.7237 
  392000    127.51316   -8194.7132   -7390.0574   -1093.2928     102002.7      46.7237      46.7237      46.7237 
  393000    130.91934   -8211.3119   -7385.1618   -713.38363     102002.7      46.7237      46.7237      46.7237 
  394000    133.12515   -8195.7088   -7355.6393   -754.71374     102002.7      46.7237      46.7237      46.7237 
  395000    128.72594   -8205.1491   -7392.8401   -731.85727     102002.7      46.7237      46.7237      46.7237 
  396000    124.01894    -8197.614    -7415.008   -487.04151     102002.7      46.7237      46.7237      46.7237 
  397000     131.4164   -8183.6001   -7354.3134    -777.5549     102002.7      46.7237      46.7237      46.7237 
  398000    130.21045   -8186.0071   -7364.3304   -487.82843     102002.7      46.7237      46.7237      46.7237 
  399000    128.57629   -8209.0947   -7397.7301   -385.57995     102002.7      46.7237      46.7237      46.7237 
  400000    133.58111   -8214.4197   -7371.4728   -744.31323     102002.7      46.7237      46.7237      46.7237 
  401000    131.47316   -8197.0624   -7367.4175   -450.93661     102002.7      46.7237      46.7237      46.7237 
  402000    130.98634    -8167.905   -7341.3321   -272.95521     102002.7      46.7237      46.7237      46.7237 
  403000    130.12352   -8185.4618   -7364.3336   -722.33448     102002.7      46.7237      46.7237      46.7237 
  404000    128.16885   -8167.1609   -7358.3674   -762.44968     102002.7      46.7237      46.7237      46.7237 
  405000     133.0722   -8176.2993   -7336.5638   -691.02271     102002.7      46.7237      46.7237      46.7237 
  406000    129.13369   -8170.9955   -7356.1135   -734.19705     102002.7      46.7237      46.7237      46.7237 
  407000    127.16978   -8176.5306   -7374.0417    -522.5859     102002.7      46.7237      46.7237      46.7237 
  408000    128.62645   -8181.0639   -7369.3828   -545.24604     102002.7      46.7237      46.7237      46.7237 
  409000    131.36483   -8193.4262   -7364.4649   -620.36854     102002.7      46.7237      46.7237      46.7237 
  410000    130.98778   -8214.8621     -7388.28   -672.03188     102002.7      46.7237      46.7237      46.7237 
  411000    134.65258    -8181.128   -7331.4198   -634.85502     102002.7      46.7237      46.7237      46.7237 
  412000     130.0676   -8202.5062   -7381.7309    -577.6279     102002.7      46.7237      46.7237      46.7237 
  413000    127.72595   -8189.5157    -7383.517   -872.88778     102002.7      46.7237      46.7237      46.7237 
  414000    130.63087    -8191.463   -7367.1333   -911.97022     102002.7      46.7237      46.7237      46.7237 
  415000    129.26402   -8208.2155   -7392.5111   -1035.3212     102002.7      46.7237      46.7237      46.7237 
  416000    125.78035   -8187.0597   -7393.3385   -1150.3503     102002.7      46.7237      46.7237      46.7237 
  417000    131.34122   -8187.2219   -7358.4096   -723.57937     102002.7      46.7237      46.7237      46.7237 
  418000    127.57599    -8200.222   -7395.1697   -649.21748     102002.7      46.7237      46.7237      46.7237 
  419000    134.95182   -8190.1155    -7338.519   -737.51067     102002.7      46.7237      46.7237      46.7237 
  420000    127.86285   -8216.5585    -7409.696   -1155.9436     102002.7      46.7237      46.7237      46.7237 
  421000    130.87632   -8200.6519   -7374.7733   -383.05255     102002.7      46.7237      46.7237      46.7237 
  422000    133.95849   -8201.5311   -7356.2028   -735.82331     102002.7      46.7237      46.7237      46.7237 
  423000    126.93897   -8192.1712   -7391.1387   -671.06857     102002.7      46.7237      46.7237      46.7237 
  424000    131.32233   -8217.6665   -7388.9734   -918.83154     102002.7      46.7237      46.7237      46.7237 
  425000    131.65603   -8197.0953   -7366.2964   -668.72756     102002.7      46.7237      46.7237      46.7237 
  426000    128.57158   -8190.1853   -7378.8505   -1065.7513     102002.7      46.7237      46.7237      46.7237 
  427000    129.28519    -8204.434    -7388.596   -872.95771     102002.7      46.7237      46.7237      46.7237 
  428000    131.62866   -8203.6984   -7373.0722   -695.95761     102002.7      46.7237      46.7237      46.7237 
  429000    129.85842   -8182.8006   -7363.3454   -1096.1834     102002.7      46.7237      46.7237      46.7237 
  430000    128.02696   -8182.1762   -7374.2781   -460.66206     102002.7      46.7237      46.7237      46.7237 
  431000    129.42424   -8193.4273   -7376.7118   -954.61743     102002.7      46.7237      46.7237      46.7237 
  432000     134.2519   -8197.0949   -7349.9151   -571.04002     102002.7      46.7237      46.7237      46.7237 
  433000    130.88622   -8182.0541   -7356.1129   -636.63626     102002.7      46.7237      46.7237      46.7237 
  434000    129.22187   -8185.9069   -7370.4685   -807.36227     102002.7      46.7237      46.7237      46.7237 
  435000    126.27935   -8189.3001     -7392.43   -797.49962     102002.7      46.7237      46.7237      46.7237 
  436000    131.90878   -8180.7063   -7348.3124   -1046.6057     102002.7      46.7237      46.7237      46.7237 
  437000    125.26883   -8185.1146   -7394.6213   -918.61701     102002.7      46.7237      46.7237      46.7237 
  438000    127.69456   -8163.9839   -7358.1833    -973.3857     102002.7      46.7237      46.7237      46.7237 
  439000    132.21773   -8169.7207   -7335.3772   -738.94211     102002.7      46.7237      46.7237      46.7237 
  440000    127.91365   -8176.8259   -7369.6429   -1054.5629     102002.7      46.7237      46.7237      46.7237 
  441000    133.16091    -8184.143   -7343.8477   -695.74887     102002.7      46.7237      46.7237      46.7237 
  442000    125.97855   -8165.0038   -7370.0319   -832.12137     102002.7      46.7237      46.7237      46.7237 
  443000    127.57062   -8195.6287   -7390.6102   -925.51626     102002.7      46.7237      46.7237      46.7237 
  444000    131.81511   -8187.8429   -7356.0401   -657.45859     102002.7      46.7237      46.7237      46.7237 
  445000    130.65154   -8197.8867   -7373.4265   -790.01836     102002.7      46.7237      46.7237      46.7237 
  446000    131.96394   -8184.9803   -7352.2384   -1013.5363     102002.7      46.7237      46.7237      46.7237 
  447000    127.81191   -8233.4901   -7426.9491   -698.17632     102002.7      46.7237      46.7237      46.7237 
  448000    131.33825   -8215.7043   -7386.9107   -823.62642     102002.7      46.7237      46.7237      46.7237 
  449000    124.75897   -8189.3806   -7402.1048   -814.16064     102002.7      46.7237      46.7237      46.7237 
  450000    132.43682   -8177.6462   -7341.9201    -742.7804     102002.7      46.7237      46.7237      46.7237 
  451000    134.25739   -8190.4756   -7343.2612   -943.95865     102002.7      46.7237      46.7237      46.7237 
  452000    136.19805   -8188.0014   -7328.5406   -623.59511     102002.7      46.7237      46.7237      46.7237 
  453000    132.53845   -8205.8281   -7369.4608   -807.28445     102002.7      46.7237      46.7237      46.7237 
  454000    130.20448   -8207.1447   -7385.5056   -1055.6596     102002.7      46.7237      46.7237      46.7237 
  455000    130.68857    -8179.359   -7354.6652    -749.9979     102002.7      46.7237      46.7237      46.7237 
  456000    132.12521   -8170.5652   -7336.8056   -888.00075     102002.7      46.7237      46.7237      46.7237 
  457000    126.33517   -8173.6929   -7376.4707   -684.36567     102002.7      46.7237      46.7237      46.7237 
  458000    129.13413   -8199.2874   -7384.4026   -388.38115     102002.7      46.7237      46.7237      46.7237 
  459000    130.39652   -8188.9794   -7366.1285   -766.73106     102002.7      46.7237      46.7237      46.7237 
  460000    131.76464   -8187.4607   -7355.9765   -464.34934     102002.7      46.7237      46.7237      46.7237 
  461000    134.36239    -8224.447   -7376.5699   -703.39332     102002.7      46.7237      46.7237      46.7237 
  462000    130.62081   -8180.2318   -7355.9656   -352.71345     102002.7      46.7237      46.7237      46.7237 
  463000    128.93778    -8178.213   -7364.5673   -543.04097     102002.7      46.7237      46.7237      46.7237 
  464000    133.80682   -8196.6941    -7352.323   -761.86723     102002.7      46.7237      46.7237      46.7237 
  465000     128.8752   -8194.0565   -7380.8056   -486.00924     102002.7      46.7237      46.7237      46.7237 
  466000    127.93862   -8190.1193   -7382.7787   -542.41426     102002.7      46.7237      46.7237      46.7237 
  467000    132.39861   -8206.3111   -7370.8263   -453.88116     102002.7      46.7237      46.7237      46.7237 
  468000    133.70352   -8199.1738   -7355.4545   -677.56398     102002.7      46.7237      46.7237      46.7237 
  469000    131.55276   -8207.3184   -7377.1712   -540.31144     102002.7      46.7237      46.7237      46.7237 
  470000    126.22838   -8209.7453   -7413.1969   -746.62515     102002.7      46.7237      46.7237      46.7237 
  471000    131.94695   -8202.1191   -7369.4844   -622.53366     102002.7      46.7237      46.7237      46.7237 
  472000    133.06355   -8167.8779    -7328.197   -369.69265     102002.7      46.7237      46.7237      46.7237 
  473000    129.91511   -8213.7138   -7393.9008   -511.33045     102002.7      46.7237      46.7237      46.7237 
  474000    128.43335   -8236.1885   -7425.7259   -305.48717     102002.7      46.7237      46.7237      46.7237 
  475000    129.78298   -8171.2598   -7352.2806   -647.79413     102002.7      46.7237      46.7237      46.7237 
  476000    128.95045   -8196.2004   -7382.4748   -1115.5004     102002.7      46.7237      46.7237      46.7237 
  477000    127.15228   -8196.6257   -7394.2472   -534.20626     102002.7      46.7237      46.7237      46.7237 
  478000     129.4594   -8182.6505   -7365.7132   -885.27925     102002.7      46.7237      46.7237      46.7237 
  479000    128.65092   -8190.4915    -7378.656   -617.10806     102002.7      46.7237      46.7237      46.7237 
  480000    129.99171   -8225.6033   -7405.3069   -860.32909     102002.7      46.7237      46.7237      46.7237 
  481000     131.9604   -8206.4698   -7373.7502   -531.74346     102002.7      46.7237      46.7237      46.7237 
  482000    127.94165   -8194.5263   -7387.1666   -903.25986     102002.7      46.7237      46.7237      46.7237 
  483000     123.0628   -8194.5276   -7417.9552   -781.38431     102002.7      46.7237      46.7237      46.7237 
  484000    129.69434   -8201.9768   -7383.5569   -700.25555     102002.7      46.7237      46.7237      46.7237 
  485000    131.13411   -8197.5055   -7370.0001   -905.93601     102002.7      46.7237      46.7237      46.7237 
  486000    130.40241   -8204.8346   -7381.9465   -757.42243     102002.7      46.7237      46.7237      46.7237 
  487000    128.58119   -8209.3636   -7397.9681    -763.9926     102002.7      46.7237      46.7237      46.7237 
  488000    127.68262   -8171.3456   -7365.6204    -871.2847     102002.7      46.7237      46.7237      46.7237 
  489000    126.29686   -8229.3907   -7432.4101   -807.50366     102002.7      46.7237      46.7237      46.7237 
  490000    129.25323   -8190.8721   -7375.2358   -731.05169     102002.7      46.7237      46.7237      46.7237 
  491000    129.40853   -8192.3801   -7375.7638   -721.01362     102002.7      46.7237      46.7237      46.7237 
  492000    132.01341   -8255.2238   -7422.1697   -601.53149     102002.7      46.7237      46.7237      46.7237 
  493000    132.32146   -8205.7241   -7370.7261   -456.45641     102002.7      46.7237      46.7237      46.7237 
  494000    129.30047    -8200.905   -7384.9705    -511.6604     102002.7      46.7237      46.7237      46.7237 
  495000     129.4487   -8227.1835   -7410.3136   -950.20348     102002.7      46.7237      46.7237      46.7237 
  496000    132.04949   -8197.5365   -7364.2548   -685.20637     102002.7      46.7237      46.7237      46.7237 
  497000    128.64955   -8215.8459   -7404.0191   -744.02674     102002.7      46.7237      46.7237      46.7237 
  498000    138.05541   -8214.6359   -7343.4545   -852.02498     102002.7      46.7237      46.7237      46.7237 
  499000    133.32625   -8176.7398   -7335.4011   -1012.6612     102002.7      46.7237      46.7237      46.7237 
  500000    128.16986   -8220.6721   -7411.8723   -1075.3943     102002.7      46.7237      46.7237      46.7237 
  500501    126.12338   -8187.9712   -7392.0854   -1058.0799     102002.7      46.7237      46.7237      46.7237 
Loop time of 1359.09 on 16 procs for 500000 steps with 2118 atoms

Performance: 31.786 ns/day, 0.755 hours/ns, 367.893 timesteps/s
99.8% CPU use with 16 MPI tasks x no OpenMP threads

MPI task timing breakdown:
Section |  min time  |  avg time  |  max time  |%varavg| %total
---------------------------------------------------------------
Pair    | 687.03     | 795.76     | 919.61     | 249.8 | 58.55
Bond    | 148.61     | 174.36     | 204.75     | 164.6 | 12.83
Neigh   | 8.4133     | 8.4631     | 8.5622     |   1.9 |  0.62
Comm    | 264.53     | 365.73     | 452.32     | 307.6 | 26.91
Output  | 0.020415   | 0.020932   | 0.024118   |   0.6 |  0.00
Modify  | 8.4261     | 9.1462     | 10.176     |  17.6 |  0.67
Other   |            | 5.615      |            |       |  0.41

Nlocal:    132.375 ave 171 max 95 min
Histogram: 1 3 1 2 2 1 1 1 2 2
Nghost:    2694.06 ave 2742 max 2655 min
Histogram: 2 2 1 0 4 2 2 2 0 1
Neighs:    11461.1 ave 13979 max 8392 min
Histogram: 2 2 0 0 2 2 1 4 2 1

Total # of neighbors = 183377
Ave neighs/atom = 86.5803
Ave special neighs/atom = 5.43909
Neighbor list builds = 4872
Dangerous builds = 0
Neighbor list info ...
  update every 1 steps, delay 10 steps, check yes
  max neighbors/atom: 2000, page size: 100000
  master list distance cutoff = 16
  ghost atom cutoff = 16
  binsize = 8, bins = 6 6 6
  3 neighbor lists, perpetual/occasional/extra = 3 0 0
  (1) pair buck6d/coul/gauss/dsf, perpetual, skip from (3)
      attributes: half, newton on
      pair build: skip
      stencil: none
      bin: none
  (2) pair lj/cut, perpetual, skip from (3)
      attributes: half, newton on
      pair build: skip
      stencil: none
      bin: none
  (3) neighbor class addition, perpetual
      attributes: half, newton on
      pair build: half/bin/newton
      stencil: half/bin/3d/newton
      bin: standard
Setting up Verlet run ...
  Unit style    : real
  Current step  : 500501
  Time step     : 1
WARNING: Inconsistent image flags (../domain.cpp:786)
Per MPI rank memory allocation (min/avg/max) = 23.36 | 23.37 | 23.37 Mbytes
Step Time TotEng KinEng PotEng E_mol E_pair Temp Pxx Pyy Pzz Pxy Pxz Pyz Cella Cellb Cellc CellAlpha CellBeta CellGamma Volume Press 
  500501       500000   -7392.0854     795.8858   -8187.9712    4403.1537   -12591.125    126.12338   -984.95266    -1438.648   -750.63896   -330.90775   -68.959796   -24.732746      46.7237      46.7237      46.7237           90           90           90     102002.7   -1058.0799 
  501000       500499   -7386.1191    806.56313   -8192.6823    4401.2739   -12593.956    127.81541   -634.31036    -785.7384   -866.88937   -37.830234    119.84793   -316.98529      46.7237      46.7237      46.7237           90           90           90     102002.7   -762.31271 
  502000       501499   -7374.2735    809.15578   -8183.4293    4410.4619   -12593.891    128.22626   -919.40738   -872.45945   -1391.2702    146.81302    222.62709   -49.327713      46.7237      46.7237      46.7237           90           90           90     102002.7   -1061.0457 
  503000       502499   -7381.8979     817.3769   -8199.2748    4397.9204   -12597.195    129.52906    -741.0407   -1360.9121   -653.96879    196.64635   -8.9159063    60.924126      46.7237      46.7237      46.7237           90           90           90     102002.7   -918.64053 
  504000       503499   -7345.0617    830.04953   -8175.1112    4391.7667   -12566.878    131.53728   -520.88595    -1247.517   -1091.2049    212.63494    150.49924   -355.56824      46.7237      46.7237      46.7237           90           90           90     102002.7   -953.20262 
  505000       504499   -7397.8166    807.84302   -8205.6597    4392.5675   -12598.227    128.01823    -662.0732   -963.45561   -1208.0891    112.40023   -94.193813    -139.1949      46.7237      46.7237      46.7237           90           90           90     102002.7   -944.53931 
  506000       505499    -7397.537    804.82958   -8202.3666    4373.7257   -12576.092    127.54069   -693.20081   -452.18527   -728.95709    54.927207    245.74229    81.743318      46.7237      46.7237      46.7237           90           90           90     102002.7   -624.78106 
  507000       506499   -7335.1173    828.36737   -8163.4847    4431.4086   -12594.893    131.27071   -741.63747   -1306.8776   -858.26215   -137.15858     159.8229   -133.74182      46.7237      46.7237      46.7237           90           90           90     102002.7   -968.92573 
  508000       507499    -7377.572      810.166    -8187.738    4416.7532   -12604.491    128.38635     -741.068   -1070.8063   -1022.6301   -76.902044   -27.808196   -142.46943      46.7237      46.7237      46.7237           90           90           90     102002.7    -944.8348 
  509000       508499   -7386.0062    817.14292   -8203.1492      4384.94   -12588.089    129.49198    -1112.738    -637.8509   -836.40669   -101.04516     216.0312    -19.76556      46.7237      46.7237      46.7237           90           90           90     102002.7   -862.33185 
  510000       509499   -7388.2844    827.64123   -8215.9257    4374.5416   -12590.467    131.15564    -863.8046   -566.91756    -890.4947   -312.51075    28.065084    165.83043      46.7237      46.7237      46.7237           90           90           90     102002.7   -773.73895 
  511000       510499   -7370.2718    828.65887   -8198.9307    4386.4808   -12585.411     131.3169   -1018.4271   -719.66642   -279.40933   -50.244496   -320.70001    -229.5612      46.7237      46.7237      46.7237           90           90           90     102002.7   -672.50096 
  512000       511499   -7368.7992    795.71874   -8164.5179    4429.8496   -12594.368     126.0969   -977.61011   -540.37348   -557.27647   -81.505151   -194.30769    153.60633      46.7237      46.7237      46.7237           90           90           90     102002.7   -691.75335 
  513000       512499   -7392.5311    821.71244   -8214.2435    4365.9802   -12580.224     130.2161   -958.37383    -625.6204   -428.81391   -112.56166    103.26125    78.188406      46.7237      46.7237      46.7237           90           90           90     102002.7   -670.93605 
  514000       513499   -7339.9498    836.55155   -8176.5014    4390.6862   -12567.188    132.56765   -648.52302   -917.31667   -625.61038   -266.07016   -72.669959   -34.911043      46.7237      46.7237      46.7237           90           90           90     102002.7   -730.48336 
  515000       514499   -7362.1518    831.57533   -8193.7272    4382.2206   -12575.948    131.77907   -789.91275   -830.19724   -670.68249   -54.245756    40.654162    249.40141      46.7237      46.7237      46.7237           90           90           90     102002.7   -763.59749 
  516000       515499   -7325.0018    835.26113   -8160.2629    4410.8528   -12571.116    132.36316   -763.88768   -975.91046   -1241.2403    159.40659   -328.16534    370.52907      46.7237      46.7237      46.7237           90           90           90     102002.7   -993.67949 
  517000       516499   -7376.5995    818.63624   -8195.2358    4385.9014   -12581.137    129.72862   -857.60434   -511.89109   -818.14345   -82.684579    47.475602   -37.242926      46.7237      46.7237      46.7237           90           90           90     102002.7   -729.21296 
  518000       517499   -7361.9313    837.01825   -8198.9495    4375.0215   -12573.971     132.6416   -1127.9459   -611.24299   -904.28439    230.19956    111.70844    31.954813      46.7237      46.7237      46.7237           90           90           90     102002.7   -881.15775 
  519000       518499    -7401.619    821.77643   -8223.3955    4372.8247    -12596.22    130.22625   -760.84497   -715.96402   -1195.5913   -12.245378    -95.13387    31.103101      46.7237      46.7237      46.7237           90           90           90     102002.7   -890.80008 
  520000       519499   -7362.3889    828.68144   -8191.0703    4418.4215   -12609.492    131.32048   -626.51447   -779.98545   -1017.3402   -57.873636    27.407353   -53.635601      46.7237      46.7237      46.7237           90           90           90     102002.7    -807.9467 
  521000       520499   -7395.6033    810.75568    -8206.359    4386.1756   -12592.535     128.4798   -871.92085   -392.92193   -704.53358    33.397583   -166.24703   -336.55268      46.7237      46.7237      46.7237           90           90           90     102002.7   -656.45879 
  522000       521499   -7412.5385    812.07731   -8224.6159    4370.1382   -12594.754    128.68923   -1237.4955    -471.1584   -560.13631      13.0779   -137.26081     111.8882      46.7237      46.7237      46.7237           90           90           90     102002.7    -756.2634 
  523000       522499   -7371.7218    839.03386   -8210.7557    4368.2727   -12579.028    132.96102   -440.40505   -1044.1712   -1014.3696    25.491143   -39.999989   -117.50719      46.7237      46.7237      46.7237           90           90           90     102002.7   -832.98197 
  524000       523499   -7374.6411    819.21411   -8193.8553    4416.7328   -12610.588     129.8202   -1089.3904   -961.31205   -187.28852    193.60238    395.07485   -217.23049      46.7237      46.7237      46.7237           90           90           90     102002.7   -745.99698 
  525000       524499   -7345.9003    828.65103   -8174.5513    4420.0758   -12594.627    131.31566   -625.25177   -994.14358   -984.67596    159.74132   -69.479027   -65.926029      46.7237      46.7237      46.7237           90           90           90     102002.7   -868.02377 
  526000       525499   -7327.7309    858.90997   -8186.6409     4423.178   -12609.819    136.11077     -139.549    -1109.877    -830.6989    -41.10318   -240.88742    355.52203      46.7237      46.7237      46.7237           90           90           90     102002.7   -693.37496 
  527000       526499   -7358.2759    813.85175   -8172.1276    4421.1732   -12593.301    128.97043   -1213.9737   -1082.2966    -854.2045    207.03473   -88.071005    161.09178      46.7237      46.7237      46.7237           90           90           90     102002.7   -1050.1583 
  528000       527499   -7376.2497    815.82878   -8192.0785      4413.55   -12605.629    129.28373   -966.44418   -701.41631   -1095.0547    55.782613   -8.2497456   -19.111484      46.7237      46.7237      46.7237           90           90           90     102002.7   -920.97172 
  529000       528499   -7365.6738     819.5924   -8185.2662    4383.7907   -12569.057    129.88014   -645.60111   -81.568931   -727.68266   -165.40052     258.9785   -111.50987      46.7237      46.7237      46.7237           90           90           90     102002.7    -484.9509 
  530000       529499   -7347.7451    831.96784   -8179.7129    4389.5152   -12569.228    131.84127   -652.44164   -1075.8152   -899.53531    271.43079    1.4398585     284.4643      46.7237      46.7237      46.7237           90           90           90     102002.7   -875.93072 
  531000       530499   -7381.9186    815.58413   -8197.5028    4383.8617   -12581.364    129.24496   -494.41562   -695.94795   -418.27778     35.03979   -4.4095001    24.778367      46.7237      46.7237      46.7237           90           90           90     102002.7   -536.21378 
  532000       531499   -7368.0894    810.61919   -8178.7086    4379.2112    -12557.92    128.45817   -717.50417    -1136.865     -1038.76   -348.30924   -79.836235   -125.68282      46.7237      46.7237      46.7237           90           90           90     102002.7   -964.37638 
  533000       532499    -7362.699    820.51357   -8183.2125    4369.3434   -12552.556    130.02612   -544.86631   -1053.1365   -605.11051    -120.2677   -89.667706   -100.17993      46.7237      46.7237      46.7237           90           90           90     102002.7    -734.3711 
  534000       533499   -7327.0092    825.61744   -8152.6267    4418.2409   -12570.868    130.83493   -732.15222    -894.1644   -397.33896   -133.91428   -247.49258   -229.04628      46.7237      46.7237      46.7237           90           90           90     102002.7   -674.55186 
  535000       534499   -7349.7799    807.94533   -8157.7252    4417.9599   -12575.685    128.03444   -898.76158   -863.88979   -1398.5226     -27.4446   -79.701994   -425.48376      46.7237      46.7237      46.7237           90           90           90     102002.7   -1053.7246 
  536000       535499   -7383.5156    799.52708   -8183.0427    4377.8121   -12560.855    126.70041   -632.95179   -1182.2284   -745.44628   -8.0221716    -100.0546     229.4092      46.7237      46.7237      46.7237           90           90           90     102002.7   -853.54215 
  537000       536499   -7364.7671    840.70598   -8205.4731    4367.3013   -12572.774      133.226   -173.23899   -7.9986988    -653.5861    105.90723   -98.856723    120.27697      46.7237      46.7237      46.7237           90           90           90     102002.7    -278.2746 
  538000       537499   -7360.4435    830.32069   -8190.7642    4367.4261    -12558.19    131.58025   -315.34867   -672.18395   -509.56672    314.66663    297.95067   -93.032081      46.7237      46.7237      46.7237           90           90           90     102002.7   -499.03311 
  539000       538499   -7333.3553    837.53835   -8170.8936    4412.5509   -12583.444    132.72402   -263.30964   -860.39107   -735.21488    276.82756   -264.66673   -227.06828      46.7237      46.7237      46.7237           90           90           90     102002.7   -619.63853 
  540000       539499   -7351.5416     830.1573   -8181.6989    4393.0994   -12574.798    131.55436   -769.82928   -636.41814   -290.49113    126.70384    16.305197    199.78701      46.7237      46.7237      46.7237           90           90           90     102002.7   -565.57951 
  541000       540499   -7370.7553    829.91874    -8200.674    4380.7431   -12581.417    131.51655   -1295.2948   -1148.1114   -827.67691   -79.882877    113.88757    254.31179      46.7237      46.7237      46.7237           90           90           90     102002.7    -1090.361 
  542000       541499   -7364.7476    816.67272   -8181.4204    4385.0128   -12566.433    129.41746   -662.19077   -648.61539   -284.12871    169.60644   -425.63544    326.09954      46.7237      46.7237      46.7237           90           90           90     102002.7   -531.64496 
  543000       542499   -7382.6513    806.54557   -8189.1969     4369.256   -12558.453    127.81262   -579.04689   -703.27143   -699.55369   -244.45382   -138.67827   -26.565847      46.7237      46.7237      46.7237           90           90           90     102002.7     -660.624 
  544000       543499   -7324.1181    854.84903   -8178.9672    4382.5635   -12561.531    135.46723   -739.63047   -618.37759   -927.70743    -76.36022    240.08919    299.52812      46.7237      46.7237      46.7237           90           90           90     102002.7   -761.90517 
  545000       544499   -7344.3706    840.87582   -8185.2464    4387.7381   -12572.985    133.25291   -484.45956   -1164.0952   -1254.8694    187.23858   -205.66973    163.40883      46.7237      46.7237      46.7237           90           90           90     102002.7   -967.80805 
  546000       545499   -7389.4106    814.36374   -8203.7743    4366.1464   -12569.921    129.05156   -1099.0813   -958.70978   -1486.5534   -201.45361    98.186293   -269.45715      46.7237      46.7237      46.7237           90           90           90     102002.7   -1181.4482 
  547000       546499   -7415.0543    805.51162   -8220.5659    4372.1876   -12592.753    127.64877   -953.23485   -471.00294   -560.70764   -149.61596    39.530257    -237.4614      46.7237      46.7237      46.7237           90           90           90     102002.7   -661.64848 
  548000       547499   -7363.0274     842.3014   -8205.3288     4370.998   -12576.327    133.47882   -522.71948   -674.78483   -817.14793    179.33716   -20.364287   -170.51575      46.7237      46.7237      46.7237           90           90           90     102002.7   -671.55075 
  549000       548499    -7395.463    795.74017   -8191.2032    4397.1619   -12588.365     126.1003   -389.63888   -1031.9631   -925.13377   -41.106292    49.541933    127.10784      46.7237      46.7237      46.7237           90           90           90     102002.7   -782.24526 
  550000       549499   -7399.5112    806.87057   -8206.3818    4379.5712   -12585.953    127.86413   -990.92643   -1018.8461   -1105.6769    130.23016   -43.461335   -407.88986      46.7237      46.7237      46.7237           90           90           90     102002.7   -1038.4831 
  551000       550499   -7397.8967    808.61219   -8206.5089     4393.541    -12600.05    128.14012   -645.42317   -538.95647   -635.95272   -150.75414    306.74745   -103.25186      46.7237      46.7237      46.7237           90           90           90     102002.7   -606.77746 
  552000       551499    -7373.074    840.13615   -8213.2101    4383.4933   -12596.703     133.1357   -124.51018   -540.53452   -1213.9498   -336.62654     20.98889    137.61356      46.7237      46.7237      46.7237           90           90           90     102002.7   -626.33149 
  553000       552499   -7383.6748    822.87478   -8206.5495    4389.0714   -12595.621     130.4003   -614.55287   -817.57344   -613.42748    75.075127   -112.36736   -94.649064      46.7237      46.7237      46.7237           90           90           90     102002.7   -681.85127 
  554000       553499   -7395.2442    778.24405   -8173.4882    4411.3508   -12584.839     123.3277   -825.66674   -440.52871    -914.3186   -95.177198   -58.605134    88.389439      46.7237      46.7237      46.7237           90           90           90     102002.7   -726.83802 
  555000       554499   -7380.3844    808.46643   -8188.8508     4407.825   -12596.676    128.11702   -522.97435   -895.06971   -857.96024    -86.18054   -56.420382    180.51569      46.7237      46.7237      46.7237           90           90           90     102002.7    -758.6681 
[...]
  936000       935499    -7347.906    855.00525   -8202.9112    4388.7983   -12591.709    135.49199   -619.06328    -910.6299    -871.3626   -69.528777   -18.561521   -162.46678      46.7237      46.7237      46.7237           90           90           90     102002.7   -800.35193 
  937000       936499   -7369.0111    832.30886   -8201.3199    4408.7357   -12610.056    131.89531   -864.47583   -1127.2934   -831.28135    144.21703   -185.91358    -122.1891      46.7237      46.7237      46.7237           90           90           90     102002.7   -941.01685 
  938000       937499   -7362.1962    811.24074   -8173.4369    4393.6494   -12567.086    128.55666   -329.38575   -1292.9478   -1003.7295    349.55787    2.1737917   -6.2702889      46.7237      46.7237      46.7237           90           90           90     102002.7   -875.35434 
  939000       938499   -7388.5304    805.82491   -8194.3553    4383.2541   -12577.609    127.69842   -593.53459   -1133.7408   -525.61064    144.23923   -67.514381    168.27806      46.7237      46.7237      46.7237           90           90           90     102002.7   -750.96201 
  940000       939499   -7355.9566    811.85081   -8167.8074    4414.3713   -12582.179    128.65334   -458.72039   -1000.8824   -1025.7629   -146.44161   -198.57035   -61.187129      46.7237      46.7237      46.7237           90           90           90     102002.7    -828.4552 
  941000       940499   -7368.4397      824.098   -8192.5377    4411.6896   -12604.227    130.59414   -468.79412   -788.06087   -817.11793    269.35413   -105.36231   -519.39885      46.7237      46.7237      46.7237           90           90           90     102002.7    -691.3243 
  942000       941499   -7391.0721    785.38173   -8176.4538    4396.7056   -12573.159    124.45881   -508.78349   -855.59244   -626.91119    94.779379   -124.19984    22.205636      46.7237      46.7237      46.7237           90           90           90     102002.7   -663.76237 
  943000       942499   -7384.2179    812.88314    -8197.101    4364.7388    -12561.84    128.81693   -551.43049   -462.49089   -836.86844    198.01986     -157.911    229.05587      46.7237      46.7237      46.7237           90           90           90     102002.7   -616.92994 
  944000       943499   -7364.7537    827.93028    -8192.684     4379.192   -12571.876    131.20144   -600.96244   -939.34156    -194.6535   -122.41463    82.677076    32.845742      46.7237      46.7237      46.7237           90           90           90     102002.7   -578.31916 
  945000       944499   -7356.3726    827.63707   -8184.0097    4409.1784   -12593.188    131.15498   -753.84791   -791.52118     -520.805    86.694904    206.77086    78.941117      46.7237      46.7237      46.7237           90           90           90     102002.7    -688.7247 
  946000       945499   -7327.1812    846.92347   -8174.1047    4375.0545   -12549.159    134.21128    -665.1163    -993.5049   -550.24434    119.98524   -122.70836   -155.63416      46.7237      46.7237      46.7237           90           90           90     102002.7   -736.28851 
  947000       946499     -7339.87    814.33313   -8154.2031    4406.2119   -12560.415    129.04671   -973.24872   -745.34686   -779.84721    -255.7866    267.40666    118.58044      46.7237      46.7237      46.7237           90           90           90     102002.7   -832.81426 
  948000       947499   -7355.7731    832.80616   -8188.5793    4375.4409    -12564.02    131.97412   -1154.3815   -708.55386   -583.34973   -90.266956    237.68098   -107.09075      46.7237      46.7237      46.7237           90           90           90     102002.7   -815.42838 
  949000       948499   -7323.8548    824.28725   -8148.1421    4415.7424   -12563.884    130.62413   -816.50449   -1044.6629   -455.87652    77.139334    15.955885    86.805878      46.7237      46.7237      46.7237           90           90           90     102002.7   -772.34798 
  950000       949499   -7352.8665    824.61752    -8177.484    4373.5367   -12551.021    130.67647   -899.18012   -404.30526   -210.03974     14.26371   -102.76174    158.01688      46.7237      46.7237      46.7237           90           90           90     102002.7   -504.50837 
  951000       950499   -7378.4374    793.25578   -8171.6932    4401.7391   -12573.432     125.7066   -960.15676   -1442.7335   -630.27832   -231.51814   -197.60934    107.97889      46.7237      46.7237      46.7237           90           90           90     102002.7   -1011.0562 
  952000       951499   -7373.2682    810.83518   -8184.1034    4385.8795   -12569.983    128.49239   -987.80456   -1070.5739   -272.13292    169.50542   -38.377571    165.43436      46.7237      46.7237      46.7237           90           90           90     102002.7   -776.83711 
  953000       952499    -7378.587    806.68947   -8185.2765    4419.9841   -12605.261    127.83543   -1250.6049   -1067.9869   -1069.5975   -304.80757   -62.816907     81.20321      46.7237      46.7237      46.7237           90           90           90     102002.7   -1129.3964 
  954000       953499   -7401.5556     825.2245   -8226.7801    4378.5366   -12605.317    130.77266    -1118.336   -888.50555    -573.5617    -88.35643   -56.503755   -161.94693      46.7237      46.7237      46.7237           90           90           90     102002.7   -860.13442 
  955000       954499   -7354.1151    836.31131   -8190.4264    4398.3156   -12588.742    132.52958   -812.80992    -968.9515   -756.98041    62.921186   -44.893262   -126.82397      46.7237      46.7237      46.7237           90           90           90     102002.7   -846.24728 
  956000       955499    -7379.747     811.9337   -8191.6807    4409.0172   -12600.698    128.66648   -1049.5597   -864.21189   -786.86926   -33.484219   -278.38169    17.538023      46.7237      46.7237      46.7237           90           90           90     102002.7   -900.21361 
  957000       956499   -7373.5074    838.26982   -8211.7772    4385.3464   -12597.124    132.83994   -324.76151   -569.66626   -706.34058   -51.393253    247.74307    114.98644      46.7237      46.7237      46.7237           90           90           90     102002.7   -533.58945 
  958000       957499   -7407.9924    803.47387   -8211.4663      4401.02   -12612.486    127.32585   -862.28473   -1420.0424   -908.77487   -37.197947   -444.94818    450.96152      46.7237      46.7237      46.7237           90           90           90     102002.7   -1063.7007 
  959000       958499   -7362.5224    827.42247   -8189.9449    4391.1104   -12581.055    131.12097   -590.97048   -913.37059   -876.74879   -143.76739   -96.522448     172.8412      46.7237      46.7237      46.7237           90           90           90     102002.7   -793.69662 
  960000       959499   -7365.3586    836.59972   -8201.9584    4380.1355   -12582.094    132.57528   -833.43115    -477.0927   -815.28892    203.20987   -1.7717474   -49.041372      46.7237      46.7237      46.7237           90           90           90     102002.7   -708.60426 
  961000       960499   -7408.8666    783.49565   -8192.3622    4379.6721   -12572.034    124.15992   -925.97612   -693.25172   -725.44689   -106.71694   -124.32242   -2.9255723      46.7237      46.7237      46.7237           90           90           90     102002.7   -781.55824 
  962000       961499    -7351.847    822.11392   -8173.9609    4397.3518   -12571.313    130.27973   -378.18631    35.907686    -472.3739    172.52858    48.794259    61.007431      46.7237      46.7237      46.7237           90           90           90     102002.7   -271.55084 
  963000       962499   -7378.7541    820.46691    -8199.221    4370.3676   -12569.589    130.01873   -915.32371   -806.03957   -1070.7705   -323.17401   -34.822116    217.62932      46.7237      46.7237      46.7237           90           90           90     102002.7   -930.71126 
  964000       963499    -7394.886     792.9846   -8187.8706    4400.3055   -12588.176    125.66363   -620.82948   -765.13626   -887.14199     129.3103     33.55343   -196.62699      46.7237      46.7237      46.7237           90           90           90     102002.7   -757.70257 
  965000       964499   -7384.1376    798.50936    -8182.647    4393.3369   -12575.984    126.53913   -856.33513   -567.97005    -492.8015    401.04195    192.98787    114.10922      46.7237      46.7237      46.7237           90           90           90     102002.7   -639.03556 
  966000       965499    -7386.612    825.99868   -8212.6106    4345.3701   -12557.981    130.89534   -609.00414   -1149.6873   -132.65426    1.0776684    136.93171    239.24713      46.7237      46.7237      46.7237           90           90           90     102002.7   -630.44858 
  967000       966499   -7357.1614    813.04803   -8170.2094    4394.0754   -12564.285    128.84306   -891.59272    -718.1529   -35.118128   -193.14537    129.84863   -13.253497      46.7237      46.7237      46.7237           90           90           90     102002.7   -548.28792 
  968000       967499   -7358.4709    843.28898   -8201.7599    4366.8821   -12568.642    133.63532   -999.89498   -874.32531    -847.1696    92.702261   -322.62026    233.96547      46.7237      46.7237      46.7237           90           90           90     102002.7   -907.12996 
  969000       968499   -7367.4797    824.35484   -8191.8346    4384.4528   -12576.287    130.63484   -1063.7144   -627.21194   -454.73363    218.13819   -97.765241    25.289985      46.7237      46.7237      46.7237           90           90           90     102002.7   -715.21998 
  970000       969499    -7388.731    815.51972   -8204.2507    4394.1732   -12598.424    129.23475   -690.56534   -737.91629   -532.17116    207.22661    249.95375   -158.77986      46.7237      46.7237      46.7237           90           90           90     102002.7   -653.55093 
  971000       970499   -7407.1019    819.56654   -8226.6684     4360.016   -12586.684    129.87605   -979.02726   -1397.5262   -1183.6788   -48.683025    65.594971    14.075914      46.7237      46.7237      46.7237           90           90           90     102002.7   -1186.7441 
  972000       971499   -7341.4661    830.60738   -8172.0735     4416.009   -12588.083    131.62568   -996.67628   -55.646258   -945.12079    208.82588    145.42766   -24.626091      46.7237      46.7237      46.7237           90           90           90     102002.7   -665.81444 
  973000       972499   -7380.9098     810.1681   -8191.0779    4388.2681   -12579.346    128.38668   -783.17802   -745.57738   -572.89052   -241.52778    15.154555    81.820434      46.7237      46.7237      46.7237           90           90           90     102002.7   -700.54864 
  974000       973499   -7375.1606     815.7066   -8190.8672    4390.7886   -12581.656    129.26436   -829.96224   -711.07836   -1217.2918    -56.37396    221.63997   -24.170295      46.7237      46.7237      46.7237           90           90           90     102002.7   -919.44413 
  975000       974499   -7408.3204    817.84464    -8226.165    4373.3964   -12599.561    129.60318   -1035.8186   -771.28463   -934.99563    123.06508   -41.959129   -118.56002      46.7237      46.7237      46.7237           90           90           90     102002.7   -914.03295 
  976000       975499   -7391.6911    799.26634   -8190.9574    4396.5605   -12587.518    126.65909   -1052.2005   -840.07723   -572.71221   -114.07374    105.82056    219.49157      46.7237      46.7237      46.7237           90           90           90     102002.7   -821.66331 
  977000       976499   -7337.7737    839.85644   -8177.6302    4409.5266   -12587.157    133.09137   -920.52327   -1105.3616   -851.98113    141.34947    14.164637   -229.60394      46.7237      46.7237      46.7237           90           90           90     102002.7   -959.28866 
  978000       977499   -7387.0633    820.08478   -8207.1481     4382.704   -12589.852    129.95817   -1002.2327   -915.83721    -1032.123   -106.46938     286.6769   -47.385513      46.7237      46.7237      46.7237           90           90           90     102002.7   -983.39763 
  979000       978499   -7388.5542    814.42539   -8202.9796    4388.7809    -12591.76    129.06133   -532.80156   -605.12383   -941.73023   -96.259498    4.8124783   -180.70098      46.7237      46.7237      46.7237           90           90           90     102002.7   -693.21854 
  980000       979499   -7404.8589    805.24943   -8210.1084    4378.8707   -12588.979    127.60723    -1117.298    -715.8907   -537.45128   -149.64779    226.07014   -132.40373      46.7237      46.7237      46.7237           90           90           90     102002.7   -790.21333 
  981000       980499   -7349.7317    849.79442   -8199.5261    4389.6331   -12589.159    134.66623   -1364.6215   -1221.8704   -827.26459    274.89531    138.27809    91.251335      46.7237      46.7237      46.7237           90           90           90     102002.7   -1137.9188 
  982000       981499   -7373.0182    834.21802   -8207.2362    4416.6906   -12623.927    132.19785   -820.10272   -1010.6491   -1451.2704    7.3539019    142.86487    128.68001      46.7237      46.7237      46.7237           90           90           90     102002.7   -1094.0074 
  983000       982499   -7383.7852    837.12057   -8220.9058    4385.3389   -12606.245    132.65782   -896.82467   -1444.9735   -938.26258    119.54648   -211.63842   -67.761268      46.7237      46.7237      46.7237           90           90           90     102002.7   -1093.3536 
  984000       983499   -7412.0861    797.12122   -8209.2073    4397.8397   -12607.047    126.31915   -788.38434   -757.17502   -498.32678    66.514902   -42.985778   -353.28859      46.7237      46.7237      46.7237           90           90           90     102002.7   -681.29538 
  985000       984499   -7396.5429    800.34494   -8196.8879    4382.7731   -12579.661    126.83001   -456.49798   -759.46729   -399.84405   0.88865959    91.904824   -24.753456      46.7237      46.7237      46.7237           90           90           90     102002.7   -538.60311 
  986000       985499   -7341.9339    834.42568   -8176.3596     4424.082   -12600.442    132.23076   -784.42029   -1438.9904   -1414.0318    99.528965    -81.05138   -10.935697      46.7237      46.7237      46.7237           90           90           90     102002.7   -1212.4808 
  987000       986499   -7375.6008    819.47789   -8195.0787    4417.4973   -12612.576      129.862   -1020.4551   -868.87761   -548.40929     28.09094    26.943314    74.584364      46.7237      46.7237      46.7237           90           90           90     102002.7   -812.58068 
  988000       987499   -7393.6089    802.88435   -8196.4933    4383.2989   -12579.792    127.23243   -1367.0746   -512.52603   -809.60551    22.075873    315.42978    144.94349      46.7237      46.7237      46.7237           90           90           90     102002.7   -896.40206 
  989000       988499    -7336.691    845.55832   -8182.2493    4419.7398   -12601.989    133.99494   -1330.2578   -1068.5722   -972.59368   -19.346008    291.16993    166.90705      46.7237      46.7237      46.7237           90           90           90     102002.7   -1123.8079 
  990000       989499   -7372.1324    807.18245   -8179.3148    4410.3092   -12589.624    127.91355   -382.00196   -721.28349   -647.28256   -137.00484   -189.89739   -152.03343      46.7237      46.7237      46.7237           90           90           90     102002.7   -583.52267 
  991000       990499   -7409.3091    798.30721   -8207.6163    4407.4675   -12615.084     126.5071   -1077.0398   -793.73621   -587.95641   -42.636204    112.69648   -216.68848      46.7237      46.7237      46.7237           90           90           90     102002.7   -819.57746 
  992000       991499   -7400.8777    822.00741   -8222.8851    4395.0869   -12617.972    130.26285   -1168.1113   -1157.4596   -595.31435   -24.298473   -158.61246   -131.67881      46.7237      46.7237      46.7237           90           90           90     102002.7    -973.6284 
  993000       992499   -7403.8097    808.24291   -8212.0526    4370.2142   -12582.267     128.0816   -1016.0077    -721.4905   -742.67801    157.08551   -19.320779   -12.488131      46.7237      46.7237      46.7237           90           90           90     102002.7   -826.72541 
  994000       993499   -7387.6175    798.77091   -8186.3884     4395.263   -12581.651    126.58058   -472.83252   -623.43064   -643.43522    119.76704   -19.767511    296.74075      46.7237      46.7237      46.7237           90           90           90     102002.7   -579.89946 
  995000       994499   -7372.0201    839.12196    -8211.142    4360.8781    -12572.02    132.97498   -403.88408   -847.31403   -670.06245   -195.04065   -128.07306     256.2922      46.7237      46.7237      46.7237           90           90           90     102002.7   -640.42019 
  996000       995499    -7396.036    815.08998   -8211.1259    4377.1264   -12588.252    129.16665    -453.5628   -1095.9853   -628.42341   -332.52466    28.176989    25.670579      46.7237      46.7237      46.7237           90           90           90     102002.7   -725.99049 
  997000       996499   -7401.9792    794.27784   -8196.2571    4399.6818   -12595.939    125.86857   -816.08895   -552.53985   -1199.6613    146.97093   -181.82822   -278.86094      46.7237      46.7237      46.7237           90           90           90     102002.7   -856.09669 
  998000       997499   -7355.4959     835.7324   -8191.2283    4398.1547   -12589.383    132.43784   -907.16662   -646.95175    -740.5247   -161.47777    131.89305   -199.38695      46.7237      46.7237      46.7237           90           90           90     102002.7   -764.88102 
  999000       998499    -7363.399    824.36592   -8187.7649    4396.1035   -12583.868     130.6366   -578.32637   -809.05119   -670.69443    60.063975   -336.13377    82.934016      46.7237      46.7237      46.7237           90           90           90     102002.7     -686.024 
 1000000       999499    -7375.408    824.55139   -8199.9594    4396.4383   -12596.398    130.66599   -1054.8245    -1095.333   -614.31878    91.367152   -511.23155    155.17856      46.7237      46.7237      46.7237           90           90           90     102002.7   -921.49211 
 1000501      1000000   -7379.8061     824.7119    -8204.518    4400.8711   -12605.389    130.69143   -1029.7478   -571.76699   -770.22694   -155.98704   -130.68638    197.63551      46.7237      46.7237      46.7237           90           90           90     102002.7   -790.58058 
Loop time of 1537.6 on 16 procs for 500000 steps with 2118 atoms

Performance: 28.096 ns/day, 0.854 hours/ns, 325.181 timesteps/s
99.8% CPU use with 16 MPI tasks x no OpenMP threads

MPI task timing breakdown:
Section |  min time  |  avg time  |  max time  |%varavg| %total
---------------------------------------------------------------
Pair    | 807.43     | 929.13     | 1077.7     | 258.5 | 60.43
Bond    | 151.99     | 183.29     | 222.8      | 194.4 | 11.92
Neigh   | 8.2548     | 8.3095     | 8.4096     |   2.0 |  0.54
Comm    | 264.1      | 388.2      | 484.46     | 345.8 | 25.25
Output  | 0.10601    | 0.11141    | 0.11188    |   0.4 |  0.01
Modify  | 22.293     | 23.063     | 24.069     |  12.5 |  1.50
Other   |            | 5.507      |            |       |  0.36

Nlocal:    132.375 ave 156 max 103 min
Histogram: 2 1 1 1 1 1 4 1 0 4
Nghost:    2696.56 ave 2723 max 2676 min
Histogram: 3 3 1 1 0 2 1 2 2 1
Neighs:    11454.1 ave 15941 max 8370 min
Histogram: 1 3 3 1 2 2 2 1 0 1

Total # of neighbors = 183266
Ave neighs/atom = 86.5279
Ave special neighs/atom = 5.43909
Neighbor list builds = 4864
Dangerous builds = 0
Total wall time: 0:48:20
