LAMMPS (30 Mar 2018)
Reading data file ...
  orthogonal box = (0 0 0) to (46.7237 46.7237 46.7237)
  2 by 3 by 4 MPI processor grid
  reading atoms ...
  2323 atoms
  scanning bonds ...
  5 = max bonds/atom
  scanning angles ...
  10 = max angles/atom
  scanning dihedrals ...
  32 = max dihedrals/atom
  scanning impropers ...
  3 = max impropers/atom
  reading bonds ...
  2064 bonds
  reading angles ...
  3696 angles
  reading dihedrals ...
  6240 dihedrals
  reading impropers ...
  1008 impropers
Finding 1-2 1-3 1-4 neighbors ...
  special bond factors lj:   0          0          0         
  special bond factors coul: 0          0          0         
  5 = max # of 1-2 neighbors
  8 = max # of 1-3 neighbors
  20 = max # of 1-4 neighbors
  19 = max # of special neighbors
Finding 1-2 1-3 1-4 neighbors ...
  special bond factors lj:   0          0          1         
  special bond factors coul: 1          1          1         
  5 = max # of 1-2 neighbors
  8 = max # of 1-3 neighbors
  19 = max # of special neighbors
WARNING: Using 'neigh_modify every 1 delay 0 check yes' setting during minimization (../min.cpp:168)
Neighbor list info ...
  update every 1 steps, delay 0 steps, check yes
  max neighbors/atom: 2000, page size: 100000
  master list distance cutoff = 16
  ghost atom cutoff = 16
  binsize = 8, bins = 6 6 6
  3 neighbor lists, perpetual/occasional/extra = 3 0 0
  (1) pair buck6d/coul/gauss/dsf, perpetual, skip from (3)
      attributes: half, newton on
      pair build: skip
      stencil: none
      bin: none
  (2) pair lj/cut, perpetual, skip from (3)
      attributes: half, newton on
      pair build: skip
      stencil: none
      bin: none
  (3) neighbor class addition, perpetual
      attributes: half, newton on
      pair build: half/bin/newton
      stencil: half/bin/3d/newton
      bin: standard
Setting up cg style minimization ...
  Unit style    : real
  Current step  : 0
WARNING: Inconsistent image flags (../domain.cpp:786)
Per MPI rank memory allocation (min/avg/max) = 22.91 | 23.28 | 24.46 Mbytes
Step Temp E_pair E_mol TotEng Press 
       0            0    -13147.73    6482.8914   -6664.8391    5973.2815 
     501            0   -13401.706    3744.5901   -9657.1155   -906.55173 
Loop time of 1.49541 on 24 procs for 501 steps with 2323 atoms

98.5% CPU use with 24 MPI tasks x no OpenMP threads

Minimization stats:
  Stopping criterion = max force evaluations
  Energy initial, next-to-last, final = 
         -6664.8390584     -9657.03234465     -9657.11548894
  Force two-norm initial, final = 2574.12 13.4925
  Force max component initial, final = 152.03 2.08571
  Final line search alpha, max atom move = 0.00317788 0.00662813
  Iterations, force evaluations = 501 1001

MPI task timing breakdown:
Section |  min time  |  avg time  |  max time  |%varavg| %total
---------------------------------------------------------------
Pair    | 0.56662    | 0.78374    | 0.98882    |  15.2 | 52.41
Bond    | 0.11088    | 0.15805    | 0.19226    |   4.8 | 10.57
Neigh   | 0.014072   | 0.014812   | 0.016229   |   0.6 |  0.99
Comm    | 0.30133    | 0.50855    | 0.75289    |  19.4 | 34.01
Output  | 0          | 0          | 0          |   0.0 |  0.00
Modify  | 0          | 0          | 0          |   0.0 |  0.00
Other   |            | 0.03027    |            |       |  2.02

Nlocal:    96.7917 ave 117 max 77 min
Histogram: 1 1 4 3 5 2 2 3 1 2
Nghost:    2607.04 ave 2779 max 2512 min
Histogram: 14 2 0 0 0 0 0 0 3 5
Neighs:    7638.5 ave 11235 max 4745 min
Histogram: 2 4 3 3 2 4 2 0 1 3

Total # of neighbors = 183324
Ave neighs/atom = 78.9169
Ave special neighs/atom = 4.9591
Neighbor list builds = 14
Dangerous builds = 0
Neighbor list info ...
  update every 1 steps, delay 10 steps, check yes
  max neighbors/atom: 2000, page size: 100000
  master list distance cutoff = 16
  ghost atom cutoff = 16
  binsize = 8, bins = 6 6 6
  3 neighbor lists, perpetual/occasional/extra = 3 0 0
  (1) pair buck6d/coul/gauss/dsf, perpetual, skip from (3)
      attributes: half, newton on
      pair build: skip
      stencil: none
      bin: none
  (2) pair lj/cut, perpetual, skip from (3)
      attributes: half, newton on
      pair build: skip
      stencil: none
      bin: none
  (3) neighbor class addition, perpetual
      attributes: half, newton on
      pair build: half/bin/newton
      stencil: half/bin/3d/newton
      bin: standard
Setting up Verlet run ...
  Unit style    : real
  Current step  : 501
  Time step     : 1
WARNING: Inconsistent image flags (../domain.cpp:786)
Per MPI rank memory allocation (min/avg/max) = 22.56 | 22.75 | 23.34 Mbytes
Step Temp PotEng TotEng Press Volume Lx Ly Lz 
     501          110   -9657.1155    -8895.757   -565.35067     102002.7      46.7237      46.7237      46.7237 
    1000    92.847361   -8985.9338   -8343.2962   -528.02814     102002.7      46.7237      46.7237      46.7237 
    2000    116.04312    -8843.813   -8040.6274   -771.41901     102002.7      46.7237      46.7237      46.7237 
    3000    109.93458   -8833.2153   -8072.3096   -511.85428     102002.7      46.7237      46.7237      46.7237 
    4000    107.50716   -8820.3467   -8076.2423   -486.63612     102002.7      46.7237      46.7237      46.7237 
    5000    110.78365   -8838.1519   -8071.3694   -897.92573     102002.7      46.7237      46.7237      46.7237 
    6000    110.65132   -8823.3857   -8057.5191   -331.17194     102002.7      46.7237      46.7237      46.7237 
    7000    113.01328   -8846.7707   -8064.5559   -703.07279     102002.7      46.7237      46.7237      46.7237 
    8000    112.52304   -8854.9806    -8076.159   -630.74432     102002.7      46.7237      46.7237      46.7237 
    9000    114.27468   -8862.6779   -8071.7325   -352.02114     102002.7      46.7237      46.7237      46.7237 
   10000    112.64199   -8822.2257   -8042.5807   -1001.7185     102002.7      46.7237      46.7237      46.7237 
   11000    114.07141   -8859.8705    -8070.332   -731.30954     102002.7      46.7237      46.7237      46.7237 
   12000    109.82309   -8858.5214   -8098.3874   -713.51948     102002.7      46.7237      46.7237      46.7237 
   13000    110.37189   -8859.2449   -8095.3123   -898.25943     102002.7      46.7237      46.7237      46.7237 
   14000    111.93801   -8834.9595   -8060.1872   -756.56502     102002.7      46.7237      46.7237      46.7237 
   15000     111.1466   -8842.7121   -8073.4175   -825.62843     102002.7      46.7237      46.7237      46.7237 
   16000    111.25747   -8830.9329   -8060.8709   -1114.4299     102002.7      46.7237      46.7237      46.7237 
   17000    111.12484   -8840.7721   -8071.6281   -877.99204     102002.7      46.7237      46.7237      46.7237 
   18000    108.11197   -8857.1848   -8108.8942   -1004.6266     102002.7      46.7237      46.7237      46.7237 
   19000    108.51225   -8841.1484   -8090.0873   -896.80179     102002.7      46.7237      46.7237      46.7237 
   20000     107.2757   -8831.6679   -8089.1655    -1093.145     102002.7      46.7237      46.7237      46.7237 
   21000    113.37801   -8850.4259   -8065.6867   -770.71525     102002.7      46.7237      46.7237      46.7237 
   22000    109.14328   -8821.6036   -8066.1749    -725.9482     102002.7      46.7237      46.7237      46.7237 
   23000    109.57401   -8850.8306   -8092.4205   -949.19395     102002.7      46.7237      46.7237      46.7237 
   24000    110.77096   -8887.9741   -8121.2795   -456.43058     102002.7      46.7237      46.7237      46.7237 
   25000    110.96088   -8849.9894   -8081.9802   -912.41606     102002.7      46.7237      46.7237      46.7237 
   26000     111.6183   -8858.1568   -8085.5973   -749.80823     102002.7      46.7237      46.7237      46.7237 
   27000    110.16884   -8852.0685   -8089.5414   -636.16248     102002.7      46.7237      46.7237      46.7237 
   28000    110.22269   -8827.3669   -8064.4671   -941.20232     102002.7      46.7237      46.7237      46.7237 
   29000    112.44064    -8854.305   -8076.0537   -768.23316     102002.7      46.7237      46.7237      46.7237 
   30000    110.85198   -8854.5092   -8087.2538    -1085.707     102002.7      46.7237      46.7237      46.7237 
   31000    109.60302   -8851.0921   -8092.4813    -987.2029     102002.7      46.7237      46.7237      46.7237 
   32000    107.83966   -8832.5446   -8086.1388   -832.33056     102002.7      46.7237      46.7237      46.7237 
   33000    104.67925    -8860.575   -8136.0437   -864.32254     102002.7      46.7237      46.7237      46.7237 
   34000    109.22296   -8846.6158   -8090.6355   -988.24111     102002.7      46.7237      46.7237      46.7237 
   35000    111.04537   -8831.2514   -8062.6574   -929.21176     102002.7      46.7237      46.7237      46.7237 
   36000    110.46688   -8819.4819   -8054.8919   -944.82726     102002.7      46.7237      46.7237      46.7237 
   37000    107.99899   -8833.4584   -8085.9498    -817.2066     102002.7      46.7237      46.7237      46.7237 
   38000    109.89399   -8850.5593   -8089.9345    -1043.056     102002.7      46.7237      46.7237      46.7237 
   39000    105.74422   -8872.3482   -8140.4458   -875.03922     102002.7      46.7237      46.7237      46.7237 
   40000    109.30279   -8839.4558    -8082.923   -576.33366     102002.7      46.7237      46.7237      46.7237 
   41000    112.25174   -8839.5337   -8062.5899   -780.34579     102002.7      46.7237      46.7237      46.7237 
   42000    107.68903   -8834.3127   -8088.9494   -761.90284     102002.7      46.7237      46.7237      46.7237 
   43000    115.32165   -8815.9751   -8017.7832   -909.97133     102002.7      46.7237      46.7237      46.7237 
   44000    109.76816   -8853.1195   -8093.3657   -866.22687     102002.7      46.7237      46.7237      46.7237 
   45000       107.59   -8838.3294   -8093.6516    -718.9056     102002.7      46.7237      46.7237      46.7237 
   46000    112.16164    -8841.567   -8065.2469    -549.6514     102002.7      46.7237      46.7237      46.7237 
   47000    106.50359   -8849.0839   -8111.9256     -951.839     102002.7      46.7237      46.7237      46.7237 
   48000    106.68605   -8851.4378   -8113.0166   -921.52538     102002.7      46.7237      46.7237      46.7237 
   49000    111.39433   -8852.5247   -8081.5154   -725.52021     102002.7      46.7237      46.7237      46.7237 
   50000    111.10594    -8849.408   -8080.3948    -961.3096     102002.7      46.7237      46.7237      46.7237 
   51000    111.90103   -8850.4154    -8075.899   -1003.1843     102002.7      46.7237      46.7237      46.7237 
   52000    109.63239   -8850.3849   -8091.5708   -1116.0443     102002.7      46.7237      46.7237      46.7237 
   53000     112.3435   -8812.1727   -8034.5937   -1069.0021     102002.7      46.7237      46.7237      46.7237 
   54000    110.36693   -8856.8043   -8092.9062   -987.89357     102002.7      46.7237      46.7237      46.7237 
   55000    107.47724   -8840.6375   -8096.7402   -532.96293     102002.7      46.7237      46.7237      46.7237 
   56000    108.31103   -8855.1554    -8105.487   -954.66389     102002.7      46.7237      46.7237      46.7237 
   57000     108.6429   -8821.5517   -8069.5863   -943.10177     102002.7      46.7237      46.7237      46.7237 
   58000    112.66732   -8869.6085   -8089.7883   -858.90903     102002.7      46.7237      46.7237      46.7237 
   59000     111.9207   -8864.7277   -8090.0752   -1138.9115     102002.7      46.7237      46.7237      46.7237 
   60000    105.89367   -8856.7518    -8123.815    -606.1745     102002.7      46.7237      46.7237      46.7237 
   61000    108.76654   -8865.5641    -8112.743   -631.89999     102002.7      46.7237      46.7237      46.7237 
   62000      108.016   -8876.2529   -8128.6265   -735.20258     102002.7      46.7237      46.7237      46.7237 
   63000    112.30369   -8842.6157   -8065.3123   -913.73743     102002.7      46.7237      46.7237      46.7237 
   64000    110.69548   -8839.0563   -8072.8841   -958.13364     102002.7      46.7237      46.7237      46.7237 
   65000    106.88482   -8846.4858   -8106.6889   -658.90588     102002.7      46.7237      46.7237      46.7237 
   66000    112.15687   -8849.0449   -8072.7577   -583.91581     102002.7      46.7237      46.7237      46.7237 
   67000    111.49384     -8844.81    -8073.112   -953.49865     102002.7      46.7237      46.7237      46.7237 
   68000    109.47895   -8847.5171    -8089.765   -709.46829     102002.7      46.7237      46.7237      46.7237 
   69000    108.81025   -8838.2577    -8085.134   -1031.6131     102002.7      46.7237      46.7237      46.7237 
   70000    108.32575   -8874.2255   -8124.4552   -984.81698     102002.7      46.7237      46.7237      46.7237 
   71000    110.32412   -8838.9953   -8075.3934   -812.02385     102002.7      46.7237      46.7237      46.7237 
   72000    109.50535   -8841.5866   -8083.6518   -702.54485     102002.7      46.7237      46.7237      46.7237 
   73000    109.82503   -8826.2191   -8066.0716   -974.71122     102002.7      46.7237      46.7237      46.7237 
   74000    113.16847   -8828.7382   -8045.4493   -1018.0796     102002.7      46.7237      46.7237      46.7237 
   75000    107.26185   -8851.3867   -8108.9801   -820.17848     102002.7      46.7237      46.7237      46.7237 
   76000    108.61787   -8820.1399   -8068.3478   -1078.0886     102002.7      46.7237      46.7237      46.7237 
   77000    110.99104   -8867.5639    -8099.346   -743.18607     102002.7      46.7237      46.7237      46.7237 
   78000    109.58145   -8869.9343   -8111.4728   -906.39459     102002.7      46.7237      46.7237      46.7237 
   79000    109.27591   -8845.9805   -8089.6338   -1084.6539     102002.7      46.7237      46.7237      46.7237 
   80000    112.11267   -8828.4443   -8052.4631   -1134.2167     102002.7      46.7237      46.7237      46.7237 
   81000    110.42142    -8842.339   -8078.0637   -1075.7328     102002.7      46.7237      46.7237      46.7237 
   82000    109.51377   -8830.5905   -8072.5974   -1173.1798     102002.7      46.7237      46.7237      46.7237 
   83000    111.27999   -8870.5649    -8100.347   -885.09404     102002.7      46.7237      46.7237      46.7237 
   84000    112.96838   -8828.9352   -8047.0312   -1107.3483     102002.7      46.7237      46.7237      46.7237 
   85000     108.8066   -8849.9364    -8096.838    -1002.551     102002.7      46.7237      46.7237      46.7237 
   86000     110.8167   -8832.5337   -8065.5225   -861.32795     102002.7      46.7237      46.7237      46.7237 
   87000    107.21063   -8819.0543   -8077.0022   -1174.9753     102002.7      46.7237      46.7237      46.7237 
   88000    110.26225   -8850.2316    -8087.058   -1074.4434     102002.7      46.7237      46.7237      46.7237 
   89000    111.93321   -8846.3509   -8071.6117   -1246.7358     102002.7      46.7237      46.7237      46.7237 
   90000    109.22715    -8835.555   -8079.5457    -893.3037     102002.7      46.7237      46.7237      46.7237 
   91000    110.21668   -8830.2301   -8067.3719   -963.33878     102002.7      46.7237      46.7237      46.7237 
   92000    109.84224   -8852.8529   -8092.5864   -1049.0298     102002.7      46.7237      46.7237      46.7237 
   93000    110.77411   -8833.3274    -8066.611   -1071.2562     102002.7      46.7237      46.7237      46.7237 
   94000    109.84668   -8836.5081   -8076.2108   -1100.2152     102002.7      46.7237      46.7237      46.7237 
   95000    108.08731     -8845.33   -8097.2101   -924.98367     102002.7      46.7237      46.7237      46.7237 
   96000    110.05771   -8821.0477   -8059.2898   -747.70758     102002.7      46.7237      46.7237      46.7237 
   97000    111.85944   -8840.4473   -8066.2188   -879.79516     102002.7      46.7237      46.7237      46.7237 
   98000    109.48022   -8842.7046   -8084.9437   -721.02494     102002.7      46.7237      46.7237      46.7237 
   99000    109.79448   -8853.4252   -8093.4892   -951.73675     102002.7      46.7237      46.7237      46.7237 
  100000    112.54529     -8866.87   -8087.8944   -1016.2509     102002.7      46.7237      46.7237      46.7237 
  101000    112.12712   -8855.2287   -8079.1475   -833.38386     102002.7      46.7237      46.7237      46.7237 
  102000    109.85707    -8835.744   -8075.3748   -893.65494     102002.7      46.7237      46.7237      46.7237 
  103000    111.93884   -8841.3445   -8066.5664   -717.15306     102002.7      46.7237      46.7237      46.7237 
  104000    111.52519    -8853.873    -8081.958   -918.29391     102002.7      46.7237      46.7237      46.7237 
  105000    109.41342   -8847.9291   -8090.6305   -1077.9522     102002.7      46.7237      46.7237      46.7237 
  106000     106.7208   -8838.3428   -8099.6811   -932.48247     102002.7      46.7237      46.7237      46.7237 
  107000    113.27983   -8837.3404   -8053.2807   -922.19404     102002.7      46.7237      46.7237      46.7237 
  108000    112.00729   -8823.6443   -8048.3924   -1074.0908     102002.7      46.7237      46.7237      46.7237 
  109000    111.13958   -8857.7131   -8088.4671   -1046.8759     102002.7      46.7237      46.7237      46.7237 
  110000    109.27123   -8862.6938   -8106.3794   -880.42354     102002.7      46.7237      46.7237      46.7237 
  111000    110.47681   -8858.4637    -8093.805   -927.58216     102002.7      46.7237      46.7237      46.7237 
  112000    110.81913   -8863.8358   -8096.8077   -932.35343     102002.7      46.7237      46.7237      46.7237 
  113000    110.81356   -8849.0405    -8082.051   -871.88284     102002.7      46.7237      46.7237      46.7237 
  114000    111.25007   -8836.8227   -8066.8119   -818.94519     102002.7      46.7237      46.7237      46.7237 
  115000    109.01045   -8829.2922   -8074.7829   -964.47716     102002.7      46.7237      46.7237      46.7237 
  116000    109.00628   -8836.0224   -8081.5419   -763.92326     102002.7      46.7237      46.7237      46.7237 
  117000    110.60311   -8821.4641   -8055.9313   -807.28977     102002.7      46.7237      46.7237      46.7237 
  118000    105.21775   -8856.1213   -8127.8628   -820.30989     102002.7      46.7237      46.7237      46.7237 
  119000    108.53594   -8837.8072   -8086.5821   -796.59795     102002.7      46.7237      46.7237      46.7237 
  120000    108.97563   -8850.3147   -8096.0464   -960.32254     102002.7      46.7237      46.7237      46.7237 
  121000    108.03087    -8836.101   -8088.3717   -938.25358     102002.7      46.7237      46.7237      46.7237 
  122000    111.35144   -8838.5944   -8067.8819   -777.97797     102002.7      46.7237      46.7237      46.7237 
  123000    110.50082   -8856.7827   -8091.9578   -774.47583     102002.7      46.7237      46.7237      46.7237 
  124000    109.26203   -8847.3016   -8091.0509   -561.62616     102002.7      46.7237      46.7237      46.7237 
  125000    112.38265   -8867.0477   -8089.1978    -676.5026     102002.7      46.7237      46.7237      46.7237 
  126000    109.24085   -8854.6572   -8098.5531   -934.90404     102002.7      46.7237      46.7237      46.7237 
  127000     108.5198   -8836.7485   -8085.6351   -867.11316     102002.7      46.7237      46.7237      46.7237 
  128000    105.38643    -8864.582    -8135.156   -658.21677     102002.7      46.7237      46.7237      46.7237 
  129000    110.47923    -8863.944   -8099.2685   -731.88434     102002.7      46.7237      46.7237      46.7237 
  130000    113.16248   -8844.4225   -8061.1751   -1004.2849     102002.7      46.7237      46.7237      46.7237 
  131000    113.86374   -8842.2122    -8054.111   -765.38924     102002.7      46.7237      46.7237      46.7237 
  132000     107.3467   -8846.0757   -8103.0819    -722.8958     102002.7      46.7237      46.7237      46.7237 
  133000    109.03597   -8817.9826   -8063.2966   -568.24716     102002.7      46.7237      46.7237      46.7237 
  134000    111.35577   -8848.6628   -8077.9204    -765.2407     102002.7      46.7237      46.7237      46.7237 
  135000     106.9199   -8833.6082   -8093.5684   -941.36984     102002.7      46.7237      46.7237      46.7237 
  136000    110.18412   -8867.7494   -8105.1165   -965.13173     102002.7      46.7237      46.7237      46.7237 
  137000    105.46778   -8854.0851   -8124.0961   -998.72577     102002.7      46.7237      46.7237      46.7237 
  138000    110.43278    -8846.814     -8082.46   -654.12188     102002.7      46.7237      46.7237      46.7237 
  139000     107.4367   -8825.4338   -8081.8171   -766.42782     102002.7      46.7237      46.7237      46.7237 
  140000    110.06378   -8810.4208   -8048.6208   -588.39923     102002.7      46.7237      46.7237      46.7237 
  141000    110.43202   -8836.8045   -8072.4557   -876.65599     102002.7      46.7237      46.7237      46.7237 
  142000    108.27627   -8832.8896   -8083.4618   -941.70891     102002.7      46.7237      46.7237      46.7237 
  143000    111.58915   -8822.6725   -8050.3148   -835.50088     102002.7      46.7237      46.7237      46.7237 
  144000    113.14983   -8833.7749   -8050.6151   -645.68201     102002.7      46.7237      46.7237      46.7237 
  145000     111.4276   -8837.7551   -8066.5156   -807.16161     102002.7      46.7237      46.7237      46.7237 
  146000    108.70851   -8857.4384   -8105.0189   -821.06869     102002.7      46.7237      46.7237      46.7237 
  147000    107.66883   -8844.0177   -8098.7943   -803.54954     102002.7      46.7237      46.7237      46.7237 
  148000    107.52804   -8821.3895   -8077.1405   -841.59279     102002.7      46.7237      46.7237      46.7237 
  149000    106.33209   -8821.5686   -8085.5973   -1145.3187     102002.7      46.7237      46.7237      46.7237 
  150000    107.32548     -8833.22   -8090.3731   -1033.3978     102002.7      46.7237      46.7237      46.7237 
  151000     108.2383   -8841.9848   -8092.8198   -1126.6429     102002.7      46.7237      46.7237      46.7237 
  152000    105.20705   -8837.9428   -8109.7584   -1163.2643     102002.7      46.7237      46.7237      46.7237 
  153000    109.37029    -8846.967   -8089.9669   -949.70163     102002.7      46.7237      46.7237      46.7237 
  154000    109.57288   -8840.3785   -8081.9763    -917.5402     102002.7      46.7237      46.7237      46.7237 
  155000    109.23969   -8848.4363   -8092.3402   -1022.4815     102002.7      46.7237      46.7237      46.7237 
  156000    108.85516    -8840.957   -8087.5225   -922.41752     102002.7      46.7237      46.7237      46.7237 
  157000    111.53978   -8838.2417   -8066.2257   -731.89033     102002.7      46.7237      46.7237      46.7237 
  158000    113.81806   -8795.1714   -8007.3864   -672.14705     102002.7      46.7237      46.7237      46.7237 
  159000    110.12462   -8832.1518   -8069.9308   -564.08146     102002.7      46.7237      46.7237      46.7237 
  160000    108.34622   -8836.7142   -8086.8022   -892.33482     102002.7      46.7237      46.7237      46.7237 
  161000    111.39529   -8861.7577   -8090.7418   -310.89034     102002.7      46.7237      46.7237      46.7237 
  162000    110.49532    -8837.498   -8072.7112   -910.01537     102002.7      46.7237      46.7237      46.7237 
  163000    110.82371   -8836.0832   -8069.0234   -979.46419     102002.7      46.7237      46.7237      46.7237 
  164000    111.04907   -8849.6226    -8081.003   -647.00869     102002.7      46.7237      46.7237      46.7237 
  165000    110.42979   -8819.7669   -8055.4336   -739.07861     102002.7      46.7237      46.7237      46.7237 
  166000    110.07079   -8830.9439   -8069.0954   -648.68327     102002.7      46.7237      46.7237      46.7237 
  167000    108.77035   -8831.4916    -8078.644   -856.37685     102002.7      46.7237      46.7237      46.7237 
  168000    106.57703   -8826.2392   -8088.5726    -883.5657     102002.7      46.7237      46.7237      46.7237 
  169000    108.27413   -8849.7097   -8100.2966    -904.1525     102002.7      46.7237      46.7237      46.7237 
  170000     109.0739   -8825.3951   -8070.4465   -840.05047     102002.7      46.7237      46.7237      46.7237 
  171000    107.99879   -8846.4517   -8098.9445   -886.73156     102002.7      46.7237      46.7237      46.7237 
  172000    109.04086   -8850.1294   -8095.4095   -857.77267     102002.7      46.7237      46.7237      46.7237 
  173000    110.84367   -8839.2839    -8072.086   -797.28444     102002.7      46.7237      46.7237      46.7237 
  174000     108.9154   -8849.4929   -8095.6414   -960.45409     102002.7      46.7237      46.7237      46.7237 
  175000     110.0202   -8854.2288   -8092.7305   -982.01548     102002.7      46.7237      46.7237      46.7237 
  176000    110.34106   -8835.9599   -8072.2408    -780.8775     102002.7      46.7237      46.7237      46.7237 
  177000    108.32235   -8833.1776   -8083.4309   -951.73585     102002.7      46.7237      46.7237      46.7237 
  178000    107.34604   -8834.9103    -8091.921    -911.9999     102002.7      46.7237      46.7237      46.7237 
  179000    114.17111   -8839.3857   -8049.1571    -831.4216     102002.7      46.7237      46.7237      46.7237 
  180000    109.95543   -8835.2135   -8074.1634   -1401.6053     102002.7      46.7237      46.7237      46.7237 
  181000     106.9551   -8838.0973   -8097.8139   -581.74268     102002.7      46.7237      46.7237      46.7237 
  182000    109.91526   -8829.3792   -8068.6072    -1042.918     102002.7      46.7237      46.7237      46.7237 
  183000    109.39675   -8819.6416   -8062.4584   -993.42226     102002.7      46.7237      46.7237      46.7237 
  184000    112.28384   -8839.0191   -8061.8531    -789.5332     102002.7      46.7237      46.7237      46.7237 
  185000    109.32637    -8832.605    -8075.909   -1109.7258     102002.7      46.7237      46.7237      46.7237 
  186000    107.55293   -8832.7256   -8088.3043   -791.40895     102002.7      46.7237      46.7237      46.7237 
  187000    110.79345   -8833.1694    -8066.319   -678.13519     102002.7      46.7237      46.7237      46.7237 
  188000    108.56771   -8849.0709   -8097.6259   -911.28057     102002.7      46.7237      46.7237      46.7237 
  189000    111.77829   -8839.2177   -8065.5508   -804.37996     102002.7      46.7237      46.7237      46.7237 
  190000    107.68231    -8826.184   -8080.8672   -894.03812     102002.7      46.7237      46.7237      46.7237 
  191000    109.73311   -8826.8967   -8067.3854   -714.02402     102002.7      46.7237      46.7237      46.7237 
  192000    111.79597   -8834.1393     -8060.35    -618.9727     102002.7      46.7237      46.7237      46.7237 
  193000    110.97736   -8820.1113   -8051.9881   -977.24348     102002.7      46.7237      46.7237      46.7237 
  194000    111.97273   -8836.5434   -8061.5307   -759.39017     102002.7      46.7237      46.7237      46.7237 
  195000    108.38784   -8852.7032   -8102.5032   -932.42455     102002.7      46.7237      46.7237      46.7237 
  196000    109.24489   -8806.1622   -8050.0302   -628.44335     102002.7      46.7237      46.7237      46.7237 
  197000    112.64231   -8828.2352   -8048.5881   -667.14535     102002.7      46.7237      46.7237      46.7237 
  198000    110.23205   -8833.8038   -8070.8392   -1106.9322     102002.7      46.7237      46.7237      46.7237 
  199000     109.6981      -8867.6   -8108.3311   -806.54397     102002.7      46.7237      46.7237      46.7237 
  200000    111.30751    -8823.089   -8052.6806   -814.77564     102002.7      46.7237      46.7237      46.7237 
  201000    110.83046   -8853.3584   -8086.2519   -794.30206     102002.7      46.7237      46.7237      46.7237 
  202000    114.21882   -8841.7603   -8051.2015   -625.95821     102002.7      46.7237      46.7237      46.7237 
  203000    111.11246    -8828.289   -8059.2307   -1033.7244     102002.7      46.7237      46.7237      46.7237 
  204000    111.75239   -8855.7889   -8082.3013   -784.60721     102002.7      46.7237      46.7237      46.7237 
  205000    110.43847   -8840.7302   -8076.3369   -643.50899     102002.7      46.7237      46.7237      46.7237 
  206000    110.56968   -8842.7389   -8077.4374   -916.82013     102002.7      46.7237      46.7237      46.7237 
  207000      107.841   -8848.7585   -8102.3433   -778.22702     102002.7      46.7237      46.7237      46.7237 
  208000    110.71691   -8858.6788   -8092.3583   -700.97759     102002.7      46.7237      46.7237      46.7237 
  209000    113.80047   -8821.2673   -8033.6041    -920.9316     102002.7      46.7237      46.7237      46.7237 
  210000    111.88729    -8833.541   -8059.1197   -798.49755     102002.7      46.7237      46.7237      46.7237 
  211000    113.84518   -8827.2509   -8039.2782   -933.33559     102002.7      46.7237      46.7237      46.7237 
  212000    107.96835   -8851.0317   -8103.7351   -845.17797     102002.7      46.7237      46.7237      46.7237 
  213000    110.30202   -8849.0849   -8085.6359   -849.60094     102002.7      46.7237      46.7237      46.7237 
  214000    111.22803   -8855.3758   -8085.5176   -952.64261     102002.7      46.7237      46.7237      46.7237 
  215000    110.96596   -8829.9552   -8061.9109   -841.29293     102002.7      46.7237      46.7237      46.7237 
  216000    107.47066    -8826.589   -8082.7371   -765.90783     102002.7      46.7237      46.7237      46.7237 
  217000    110.22741   -8828.0363   -8065.1038    -718.7276     102002.7      46.7237      46.7237      46.7237 
  218000    109.64836   -8860.7135   -8101.7888   -891.66268     102002.7      46.7237      46.7237      46.7237 
  219000    112.62165   -8864.7561    -8085.252   -788.86862     102002.7      46.7237      46.7237      46.7237 
  220000    111.68391   -8819.1449   -8046.1313    -685.9989     102002.7      46.7237      46.7237      46.7237 
  221000    108.30531   -8820.2923   -8070.6635   -934.11952     102002.7      46.7237      46.7237      46.7237 
  222000    108.19598     -8839.25    -8090.378   -1054.5214     102002.7      46.7237      46.7237      46.7237 
  223000    111.07693   -8847.4468   -8078.6344   -941.55516     102002.7      46.7237      46.7237      46.7237 
  224000     109.8057   -8845.2712   -8085.2576   -857.14966     102002.7      46.7237      46.7237      46.7237 
  225000    109.67618   -8857.9078   -8098.7906   -802.66694     102002.7      46.7237      46.7237      46.7237 
  226000    108.64328   -8820.1753   -8068.2073    -886.4428     102002.7      46.7237      46.7237      46.7237 
  227000    109.27072   -8868.1874   -8111.8766   -659.15514     102002.7      46.7237      46.7237      46.7237 
  228000    110.68366   -8830.1087   -8064.0182   -756.12555     102002.7      46.7237      46.7237      46.7237 
  229000     112.2467   -8828.2621   -8051.3532   -763.92899     102002.7      46.7237      46.7237      46.7237 
  230000    108.83967   -8838.2582   -8084.9308   -785.53464     102002.7      46.7237      46.7237      46.7237 
  231000    107.95992   -8855.8674   -8108.6292   -853.88834     102002.7      46.7237      46.7237      46.7237 
  232000    110.66441   -8818.3784   -8052.4212   -965.26398     102002.7      46.7237      46.7237      46.7237 
  233000    108.14517   -8840.7863   -8092.2659   -969.00294     102002.7      46.7237      46.7237      46.7237 
  234000    112.54906   -8838.2937    -8059.292   -881.89382     102002.7      46.7237      46.7237      46.7237 
  235000    108.73406   -8826.3567   -8073.7603   -899.13256     102002.7      46.7237      46.7237      46.7237 
  236000    109.91641    -8839.368   -8078.5881   -933.08247     102002.7      46.7237      46.7237      46.7237 
  237000    111.88362   -8836.6693   -8062.2735   -1147.5146     102002.7      46.7237      46.7237      46.7237 
  238000    110.90736   -8826.6311   -8058.9923   -881.57508     102002.7      46.7237      46.7237      46.7237 
  239000    111.88768   -8838.9703   -8064.5463   -919.20992     102002.7      46.7237      46.7237      46.7237 
  240000    110.86563   -8845.3838   -8078.0339   -1208.5005     102002.7      46.7237      46.7237      46.7237 
  241000    109.96312   -8848.7543   -8087.6511   -853.52168     102002.7      46.7237      46.7237      46.7237 
  242000    112.10391   -8840.4895   -8064.5688   -1017.8638     102002.7      46.7237      46.7237      46.7237 
  243000    110.36986   -8844.6644    -8080.746   -931.96614     102002.7      46.7237      46.7237      46.7237 
  244000    111.78076   -8829.2485   -8055.5646   -1079.2573     102002.7      46.7237      46.7237      46.7237 
  245000    110.91674   -8834.5232   -8066.8195   -950.50977     102002.7      46.7237      46.7237      46.7237 
  246000    110.70089   -8818.6417    -8052.432   -980.29391     102002.7      46.7237      46.7237      46.7237 
  247000    108.71963   -8849.9194   -8097.4229   -864.47872     102002.7      46.7237      46.7237      46.7237 
  248000     108.4647   -8824.5433   -8073.8113   -586.87509     102002.7      46.7237      46.7237      46.7237 
  249000    111.98425   -8829.7703    -8054.678     -914.141     102002.7      46.7237      46.7237      46.7237 
  250000    111.30875   -8831.3565   -8060.9396   -932.62888     102002.7      46.7237      46.7237      46.7237 
  251000    109.63764   -8844.0808   -8085.2303   -892.52971     102002.7      46.7237      46.7237      46.7237 
  252000    111.09175   -8817.9513   -8049.0363   -976.02541     102002.7      46.7237      46.7237      46.7237 
  253000    108.27538    -8843.053   -8093.6313   -974.37066     102002.7      46.7237      46.7237      46.7237 
  254000    110.23357   -8832.6564   -8069.6812   -910.13342     102002.7      46.7237      46.7237      46.7237 
  255000    107.69367   -8827.1608   -8081.7654   -500.07098     102002.7      46.7237      46.7237      46.7237 
  256000    106.97593   -8834.5855    -8094.158   -547.89029     102002.7      46.7237      46.7237      46.7237 
  257000    108.44714   -8827.0899   -8076.4795   -745.42744     102002.7      46.7237      46.7237      46.7237 
  258000    109.15638    -8827.829   -8072.3096   -759.59765     102002.7      46.7237      46.7237      46.7237 
  259000    107.19339   -8842.3369   -8100.4042   -717.84913     102002.7      46.7237      46.7237      46.7237 
  260000    109.97138   -8831.0921   -8069.9318   -612.23877     102002.7      46.7237      46.7237      46.7237 
  261000    112.63382   -8837.2313    -8057.643   -890.85974     102002.7      46.7237      46.7237      46.7237 
  262000    110.90926   -8849.0534   -8081.4015   -812.96305     102002.7      46.7237      46.7237      46.7237 
  263000    108.67451   -8865.6226   -8113.4384   -874.73429     102002.7      46.7237      46.7237      46.7237 
  264000    107.50369   -8831.6844    -8087.604   -911.71458     102002.7      46.7237      46.7237      46.7237 
  265000    109.95548   -8843.2667   -8082.2164   -725.48369     102002.7      46.7237      46.7237      46.7237 
  266000    109.84341     -8837.72   -8077.4453   -756.92185     102002.7      46.7237      46.7237      46.7237 
  267000    108.90132   -8847.2506   -8093.4965    -785.7332     102002.7      46.7237      46.7237      46.7237 
  268000    109.67772   -8841.6297   -8082.5018   -985.28171     102002.7      46.7237      46.7237      46.7237 
  269000    108.80635   -8811.8167   -8058.7199   -904.01733     102002.7      46.7237      46.7237      46.7237 
  270000    109.03389   -8843.2004   -8088.5288   -839.68352     102002.7      46.7237      46.7237      46.7237 
  271000    109.81953   -8842.3841   -8082.2747   -932.33378     102002.7      46.7237      46.7237      46.7237 
  272000     112.2345   -8815.1402   -8038.3158   -821.28702     102002.7      46.7237      46.7237      46.7237 
  273000    108.54464   -8819.4037   -8068.1184   -856.69024     102002.7      46.7237      46.7237      46.7237 
  274000    105.49936   -8824.0832   -8093.8756   -708.85679     102002.7      46.7237      46.7237      46.7237 
  275000    112.17407   -8825.7361   -8049.3299   -484.33135     102002.7      46.7237      46.7237      46.7237 
  276000    109.77737   -8841.3247   -8081.5071   -798.89006     102002.7      46.7237      46.7237      46.7237 
  277000    108.28919    -8842.904   -8093.3868   -478.51089     102002.7      46.7237      46.7237      46.7237 
  278000     110.5455   -8832.3225   -8067.1884   -803.87281     102002.7      46.7237      46.7237      46.7237 
  279000    112.71999     -8852.15   -8071.9652   -756.48463     102002.7      46.7237      46.7237      46.7237 
  280000    107.78473     -8837.09   -8091.0643   -1042.3395     102002.7      46.7237      46.7237      46.7237 
  281000    110.29252   -8835.6906   -8072.3075   -1125.0223     102002.7      46.7237      46.7237      46.7237 
  282000    113.06741   -8816.2065   -8033.6172   -881.89254     102002.7      46.7237      46.7237      46.7237 
  283000    114.58647   -8875.4786   -8082.3751   -666.16506     102002.7      46.7237      46.7237      46.7237 
  284000    106.92103    -8834.559   -8094.5114   -979.15656     102002.7      46.7237      46.7237      46.7237 
  285000    111.95811     -8832.77   -8057.8586   -608.09168     102002.7      46.7237      46.7237      46.7237 
  286000    109.37751   -8857.5126   -8100.4626   -867.77012     102002.7      46.7237      46.7237      46.7237 
  287000    111.51606   -8853.2855   -8081.4337   -266.41104     102002.7      46.7237      46.7237      46.7237 
  288000     111.3498   -8809.7136   -8039.0126   -981.02118     102002.7      46.7237      46.7237      46.7237 
  289000    111.57999   -8835.0509   -8062.7566   -985.26033     102002.7      46.7237      46.7237      46.7237 
  290000    109.61755   -8852.3292   -8093.6178   -580.28116     102002.7      46.7237      46.7237      46.7237 
  291000    109.03112    -8835.374   -8080.7215   -999.99975     102002.7      46.7237      46.7237      46.7237 
  292000    107.72386   -8824.4286   -8078.8243   -879.82383     102002.7      46.7237      46.7237      46.7237 
  293000    108.79276   -8838.0234   -8085.0207    -1137.145     102002.7      46.7237      46.7237      46.7237 
  294000    111.52863   -8838.8588     -8066.92    -882.4183     102002.7      46.7237      46.7237      46.7237 
  295000    109.09127   -8797.1037   -8042.0349   -952.66582     102002.7      46.7237      46.7237      46.7237 
  296000    112.77525   -8855.9358   -8075.3686    -1061.148     102002.7      46.7237      46.7237      46.7237 
  297000    105.69064   -8828.6534   -8097.1219   -873.12247     102002.7      46.7237      46.7237      46.7237 
  298000    109.81197   -8835.9836   -8075.9266   -1204.1102     102002.7      46.7237      46.7237      46.7237 
  299000    110.64541   -8843.4308   -8077.6051   -821.73207     102002.7      46.7237      46.7237      46.7237 
  300000    106.71199   -8840.8954   -8102.2947   -800.12836     102002.7      46.7237      46.7237      46.7237 
  301000    112.46651   -8849.2644   -8070.8341   -851.31977     102002.7      46.7237      46.7237      46.7237 
  302000    107.62643   -8808.2761   -8063.3461   -738.36768     102002.7      46.7237      46.7237      46.7237 
  303000    109.93253    -8833.305   -8072.4135   -552.93716     102002.7      46.7237      46.7237      46.7237 
  304000    109.48854   -8849.0899   -8091.2715   -752.02323     102002.7      46.7237      46.7237      46.7237 
  305000    107.32772   -8839.9208   -8097.0584   -860.57836     102002.7      46.7237      46.7237      46.7237 
  306000    108.79953   -8859.5767   -8106.5272   -821.40935     102002.7      46.7237      46.7237      46.7237 
  307000    109.06653   -8822.6793   -8067.7818   -1005.3313     102002.7      46.7237      46.7237      46.7237 
  308000    110.18459   -8837.3769   -8074.7407   -856.01149     102002.7      46.7237      46.7237      46.7237 
  309000    107.67937   -8827.3594    -8082.063   -827.73706     102002.7      46.7237      46.7237      46.7237 
  310000    108.39519   -8807.7653   -8057.5144   -1153.1932     102002.7      46.7237      46.7237      46.7237 
  311000    110.49805   -8811.5002   -8046.6945    -1017.523     102002.7      46.7237      46.7237      46.7237 
  312000    110.27157   -8836.7454   -8073.5072    -1120.463     102002.7      46.7237      46.7237      46.7237 
  313000    112.41662   -8825.8216   -8047.7366   -913.01329     102002.7      46.7237      46.7237      46.7237 
  314000    114.14885   -8821.1672   -8031.0927   -828.41193     102002.7      46.7237      46.7237      46.7237 
  315000    109.39839   -8855.1395   -8097.9451   -984.01324     102002.7      46.7237      46.7237      46.7237 
  316000    109.93132   -8828.6362   -8067.7531   -1147.3135     102002.7      46.7237      46.7237      46.7237 
  317000    109.53808   -8833.7557   -8075.5943   -832.77802     102002.7      46.7237      46.7237      46.7237 
  318000    106.25574   -8839.0855   -8103.6426   -834.80681     102002.7      46.7237      46.7237      46.7237 
  319000    110.02209     -8836.33   -8074.8186   -661.90792     102002.7      46.7237      46.7237      46.7237 
  320000    108.66754   -8859.9988   -8107.8628   -899.38693     102002.7      46.7237      46.7237      46.7237 
  321000    110.29087   -8832.5511   -8069.1793   -764.99457     102002.7      46.7237      46.7237      46.7237 
  322000    110.66084   -8835.8166   -8069.8841   -701.02922     102002.7      46.7237      46.7237      46.7237 
  323000    112.48362   -8808.8811   -8030.3324   -861.56043     102002.7      46.7237      46.7237      46.7237 
  324000    111.12123   -8839.1854   -8070.0663    -797.1122     102002.7      46.7237      46.7237      46.7237 
  325000     107.1983   -8833.5391   -8091.5724   -881.18826     102002.7      46.7237      46.7237      46.7237 
  326000    108.30606   -8836.8677   -8087.2338   -800.54615     102002.7      46.7237      46.7237      46.7237 
  327000    112.62844   -8833.5501    -8053.999   -531.58966     102002.7      46.7237      46.7237      46.7237 
  328000    107.64489   -8830.9728   -8085.9151    -724.3838     102002.7      46.7237      46.7237      46.7237 
  329000    110.35442    -8839.801   -8075.9894   -449.76846     102002.7      46.7237      46.7237      46.7237 
  330000     109.8356   -8863.7194   -8103.4988   -912.88363     102002.7      46.7237      46.7237      46.7237 
  331000     110.6846   -8830.1757   -8064.0788   -801.49796     102002.7      46.7237      46.7237      46.7237 
  332000    112.66737   -8833.2602   -8053.4397   -596.53112     102002.7      46.7237      46.7237      46.7237 
  333000    110.56909   -8847.0233   -8081.7259   -914.42722     102002.7      46.7237      46.7237      46.7237 
  334000     105.3696   -8849.8936   -8120.5842   -913.56167     102002.7      46.7237      46.7237      46.7237 
  335000    112.37777     -8832.91   -8055.0939   -1026.1641     102002.7      46.7237      46.7237      46.7237 
  336000    109.22073   -8850.2857   -8094.3208   -962.51981     102002.7      46.7237      46.7237      46.7237 
  337000    109.23069   -8858.1843   -8102.1506     -1017.73     102002.7      46.7237      46.7237      46.7237 
  338000    106.29791   -8842.1096   -8106.3749   -836.12569     102002.7      46.7237      46.7237      46.7237 
  339000     108.9766   -8844.0654   -8089.7902   -853.30672     102002.7      46.7237      46.7237      46.7237 
  340000    109.21764   -8829.0537   -8073.1103   -1160.6263     102002.7      46.7237      46.7237      46.7237 
  341000    108.52875   -8817.5725   -8066.3971   -905.94187     102002.7      46.7237      46.7237      46.7237 
  342000    108.69893   -8836.7222    -8084.369   -1110.0623     102002.7      46.7237      46.7237      46.7237 
  343000    110.29978   -8861.7127   -8098.2793   -635.12577     102002.7      46.7237      46.7237      46.7237 
  344000    111.13339   -8838.3546   -8069.1515   -759.36964     102002.7      46.7237      46.7237      46.7237 
  345000    110.89069   -8833.7206   -8066.1972   -874.60711     102002.7      46.7237      46.7237      46.7237 
  346000    109.78947   -8822.0108   -8062.1095   -1047.3156     102002.7      46.7237      46.7237      46.7237 
  347000     111.9226   -8849.1972   -8074.5315   -974.94945     102002.7      46.7237      46.7237      46.7237 
  348000    111.94014   -8853.8342   -8079.0471   -822.61575     102002.7      46.7237      46.7237      46.7237 
  349000    111.99832   -8838.6944   -8063.5046   -548.49766     102002.7      46.7237      46.7237      46.7237 
  350000    108.62484   -8838.8441   -8087.0037   -836.10775     102002.7      46.7237      46.7237      46.7237 
  351000    114.06524   -8810.2216   -8020.7258   -953.69877     102002.7      46.7237      46.7237      46.7237 
  352000    111.19772   -8845.6547   -8076.0063   -1022.3543     102002.7      46.7237      46.7237      46.7237 
  353000    110.76853   -8832.6639    -8065.986   -817.96914     102002.7      46.7237      46.7237      46.7237 
  354000    112.09339   -8816.3762   -8040.5285   -675.42867     102002.7      46.7237      46.7237      46.7237 
  355000    108.57843   -8831.6251    -8080.106   -777.76531     102002.7      46.7237      46.7237      46.7237 
  356000     111.1075   -8851.5499   -8082.5259   -500.21397     102002.7      46.7237      46.7237      46.7237 
  357000    110.53282   -8846.4897   -8081.4433   -882.28936     102002.7      46.7237      46.7237      46.7237 
  358000    107.63266   -8838.0352   -8093.0621    -712.0716     102002.7      46.7237      46.7237      46.7237 
  359000    109.56422   -8819.4231   -8061.0808   -729.19791     102002.7      46.7237      46.7237      46.7237 
  360000    110.44482    -8841.437   -8076.9997   -992.75713     102002.7      46.7237      46.7237      46.7237 
  361000     110.6796   -8826.5062   -8060.4439    -791.5131     102002.7      46.7237      46.7237      46.7237 
  362000    110.43621    -8858.045   -8093.6673   -946.16241     102002.7      46.7237      46.7237      46.7237 
  363000    111.20514   -8832.1636   -8062.4638    -554.1287     102002.7      46.7237      46.7237      46.7237 
  364000    109.54054   -8828.3737   -8070.1952   -785.64837     102002.7      46.7237      46.7237      46.7237 
  365000    111.08012    -8868.966   -8100.1315   -1194.1032     102002.7      46.7237      46.7237      46.7237 
  366000    105.68814   -8835.4789   -8103.9647   -781.11544     102002.7      46.7237      46.7237      46.7237 
  367000    109.16731   -8844.6927   -8089.0976   -647.36881     102002.7      46.7237      46.7237      46.7237 
  368000    110.09374   -8849.0687   -8087.0614   -1074.8825     102002.7      46.7237      46.7237      46.7237 
  369000    107.95723   -8829.6792   -8082.4596   -1268.6363     102002.7      46.7237      46.7237      46.7237 
  370000    108.89582   -8857.3731   -8103.6571   -1015.1863     102002.7      46.7237      46.7237      46.7237 
  371000    111.77792   -8842.8656   -8069.2013   -785.68165     102002.7      46.7237      46.7237      46.7237 
  372000    111.50186   -8826.8099   -8055.0563    -1037.626     102002.7      46.7237      46.7237      46.7237 
  373000    109.92223   -8851.5395   -8090.7193   -1026.5508     102002.7      46.7237      46.7237      46.7237 
  374000    107.64706   -8856.8659   -8111.7931   -847.80545     102002.7      46.7237      46.7237      46.7237 
  375000     110.1235   -8851.3201   -8089.1067   -848.04938     102002.7      46.7237      46.7237      46.7237 
  376000    110.22184   -8812.5337   -8049.6397   -599.50329     102002.7      46.7237      46.7237      46.7237 
  377000     110.5611   -8848.8145   -8083.5723   -880.28855     102002.7      46.7237      46.7237      46.7237 
  378000    106.98091   -8838.5601    -8098.098   -960.85843     102002.7      46.7237      46.7237      46.7237 
  379000    111.99284   -8825.2896   -8050.1378   -613.52638     102002.7      46.7237      46.7237      46.7237 
  380000    110.55909   -8873.4474   -8108.2192   -953.58246     102002.7      46.7237      46.7237      46.7237 
  381000     111.0803   -8839.7948   -8070.9591   -723.67845     102002.7      46.7237      46.7237      46.7237 
  382000    110.75528   -8820.3204   -8053.7343   -692.23785     102002.7      46.7237      46.7237      46.7237 
  383000    109.75584    -8842.014   -8082.3455   -698.40586     102002.7      46.7237      46.7237      46.7237 
  384000    111.39562    -8831.953   -8060.9348   -357.22398     102002.7      46.7237      46.7237      46.7237 
  385000    110.12262   -8827.3568   -8065.1496   -691.21844     102002.7      46.7237      46.7237      46.7237 
  386000    107.65214   -8832.2135   -8087.1055    -679.9782     102002.7      46.7237      46.7237      46.7237 
  387000    107.38928    -8818.169   -8074.8805   -959.87424     102002.7      46.7237      46.7237      46.7237 
  388000    112.34862   -8841.6302   -8064.0159   -1040.6034     102002.7      46.7237      46.7237      46.7237 
  389000    106.02584   -8832.7277   -8098.8761   -857.19897     102002.7      46.7237      46.7237      46.7237 
  390000    112.29375   -8836.6462   -8059.4116   -824.31982     102002.7      46.7237      46.7237      46.7237 
  391000    111.10715   -8797.9184   -8028.8968   -963.81505     102002.7      46.7237      46.7237      46.7237 
  392000    112.30214    -8852.674   -8075.3814   -1067.6274     102002.7      46.7237      46.7237      46.7237 
  393000    109.13322   -8836.8808   -8081.5216     -697.816     102002.7      46.7237      46.7237      46.7237 
  394000    109.75586   -8837.8967   -8078.2281   -708.94896     102002.7      46.7237      46.7237      46.7237 
  395000    110.55716   -8822.7795   -8057.5646   -936.81243     102002.7      46.7237      46.7237      46.7237 
  396000    109.35696   -8825.5306   -8068.6229    -560.8973     102002.7      46.7237      46.7237      46.7237 
  397000    111.61741   -8823.0994   -8050.5462   -1087.9292     102002.7      46.7237      46.7237      46.7237 
  398000    109.26388   -8837.7755    -8081.512   -985.09653     102002.7      46.7237      46.7237      46.7237 
  399000    109.76105   -8815.0775   -8055.3729   -954.34851     102002.7      46.7237      46.7237      46.7237 
  400000    108.02656   -8829.0404   -8081.3409   -1076.1069     102002.7      46.7237      46.7237      46.7237 
  401000     113.5942   -8811.1668   -8024.9313   -1009.5438     102002.7      46.7237      46.7237      46.7237 
  402000    111.08197   -8859.0052   -8090.1579    -1079.017     102002.7      46.7237      46.7237      46.7237 
  403000    112.07893   -8854.8247   -8079.0771   -934.55089     102002.7      46.7237      46.7237      46.7237 
  404000    112.21798   -8810.6381    -8033.928    -900.4022     102002.7      46.7237      46.7237      46.7237 
  405000    109.38206   -8833.2668   -8076.1853   -1149.2278     102002.7      46.7237      46.7237      46.7237 
  406000    108.55363   -8833.4482   -8082.1007   -1130.8815     102002.7      46.7237      46.7237      46.7237 
  407000     110.3839   -8827.2844   -8063.2688   -1213.0381     102002.7      46.7237      46.7237      46.7237 
  408000    108.02422   -8829.5065   -8081.8232   -1040.9335     102002.7      46.7237      46.7237      46.7237 
  409000    108.58724   -8835.1071   -8083.5269   -891.96316     102002.7      46.7237      46.7237      46.7237 
  410000    108.45827   -8826.3702   -8075.6827   -998.66288     102002.7      46.7237      46.7237      46.7237 
  411000    108.97324   -8842.9057   -8088.6539   -1037.4494     102002.7      46.7237      46.7237      46.7237 
  412000    111.29537   -8871.6881   -8101.3638   -1085.3982     102002.7      46.7237      46.7237      46.7237 
  413000    110.66477   -8835.3638   -8069.4042   -695.97669     102002.7      46.7237      46.7237      46.7237 
  414000    109.07295   -8802.5566   -8047.6146    -1189.649     102002.7      46.7237      46.7237      46.7237 
  415000    112.09779   -8836.9557   -8061.0774   -594.72266     102002.7      46.7237      46.7237      46.7237 
  416000    109.90914   -8841.3216   -8080.5919   -859.19554     102002.7      46.7237      46.7237      46.7237 
  417000    112.22686   -8867.4441   -8090.6726   -725.26216     102002.7      46.7237      46.7237      46.7237 
  418000    109.91778   -8849.3921   -8088.6027   -795.17026     102002.7      46.7237      46.7237      46.7237 
  419000    106.46106   -8857.4522   -8120.5882   -923.31021     102002.7      46.7237      46.7237      46.7237 
  420000    111.19702    -8836.595   -8066.9514   -1009.2675     102002.7      46.7237      46.7237      46.7237 
  421000    106.21252   -8862.2029   -8127.0593   -954.19201     102002.7      46.7237      46.7237      46.7237 
  422000    110.22856   -8815.0292   -8052.0888    -795.7216     102002.7      46.7237      46.7237      46.7237 
  423000    109.14432   -8813.1235   -8057.6876   -695.42203     102002.7      46.7237      46.7237      46.7237 
  424000    112.38156   -8830.7631   -8052.9208   -851.74173     102002.7      46.7237      46.7237      46.7237 
  425000     108.3287   -8848.6173   -8098.8266   -1017.2682     102002.7      46.7237      46.7237      46.7237 
  426000    108.71656   -8853.8317   -8101.3564    -847.2079     102002.7      46.7237      46.7237      46.7237 
  427000    113.27221    -8842.936   -8058.9291   -1112.7026     102002.7      46.7237      46.7237      46.7237 
  428000    111.11986   -8842.5469   -8073.4374   -925.67599     102002.7      46.7237      46.7237      46.7237 
  429000    109.02372   -8854.5803   -8099.9791   -798.26136     102002.7      46.7237      46.7237      46.7237 
  430000    111.31373   -8877.3152   -8106.8638   -855.12404     102002.7      46.7237      46.7237      46.7237 
  431000    109.99833    -8856.076   -8094.7291   -842.82887     102002.7      46.7237      46.7237      46.7237 
  432000    111.27794   -8845.1275   -8074.9238   -837.73248     102002.7      46.7237      46.7237      46.7237 
  433000    108.57631   -8848.2957   -8096.7911    -917.1417     102002.7      46.7237      46.7237      46.7237 
  434000    108.44776   -8843.8008    -8093.186   -980.72009     102002.7      46.7237      46.7237      46.7237 
  435000    108.49331   -8828.7448   -8077.8148   -1038.9286     102002.7      46.7237      46.7237      46.7237 
  436000    110.45057   -8858.4467   -8093.9696   -1109.9426     102002.7      46.7237      46.7237      46.7237 
  437000    112.22392   -8824.3993   -8047.6481   -893.50229     102002.7      46.7237      46.7237      46.7237 
  438000     107.1274   -8849.5773   -8108.1014   -1033.7466     102002.7      46.7237      46.7237      46.7237 
  439000    108.89836   -8834.5035   -8080.7699   -939.83487     102002.7      46.7237      46.7237      46.7237 
  440000     107.8901   -8830.1878   -8083.4328   -922.99782     102002.7      46.7237      46.7237      46.7237 
  441000    112.06223    -8846.898   -8071.2659   -883.84395     102002.7      46.7237      46.7237      46.7237 
  442000    107.98927   -8842.8143   -8095.3729   -879.68757     102002.7      46.7237      46.7237      46.7237 
  443000    108.20209   -8842.1189   -8093.2045    -945.3854     102002.7      46.7237      46.7237      46.7237 
  444000    108.08743   -8811.4005   -8063.2797   -1088.4218     102002.7      46.7237      46.7237      46.7237 
  445000    111.21595   -8811.1631   -8041.3885   -967.28238     102002.7      46.7237      46.7237      46.7237 
  446000    110.15642   -8846.6599   -8084.2188   -799.05608     102002.7      46.7237      46.7237      46.7237 
  447000    106.04825   -8842.5388   -8108.5321   -892.53178     102002.7      46.7237      46.7237      46.7237 
  448000    111.76575   -8851.1295   -8077.5495   -1060.8156     102002.7      46.7237      46.7237      46.7237 
  449000    111.43016   -8824.6215   -8053.3643    -1491.074     102002.7      46.7237      46.7237      46.7237 
  450000    108.51024   -8864.7049   -8113.6577   -928.85153     102002.7      46.7237      46.7237      46.7237 
  451000    110.64435   -8841.7629   -8075.9445   -953.67197     102002.7      46.7237      46.7237      46.7237 
  452000    109.72086   -8811.4507   -8052.0242   -1064.6716     102002.7      46.7237      46.7237      46.7237 
  453000    111.13329    -8838.506   -8069.3035   -868.82383     102002.7      46.7237      46.7237      46.7237 
  454000    108.88149   -8835.0348    -8081.418   -1080.2975     102002.7      46.7237      46.7237      46.7237 
  455000     107.9617   -8835.6291   -8088.3786    -899.7686     102002.7      46.7237      46.7237      46.7237 
  456000    106.74311   -8823.8691    -8085.053   -924.47209     102002.7      46.7237      46.7237      46.7237 
  457000    111.36263   -8827.1972   -8056.4073   -824.66553     102002.7      46.7237      46.7237      46.7237 
  458000    114.34971   -8812.8537    -8021.389   -488.60907     102002.7      46.7237      46.7237      46.7237 
  459000    112.58304   -8824.0182   -8044.7814   -868.84834     102002.7      46.7237      46.7237      46.7237 
  460000    109.24175     -8815.76   -8059.6497   -684.06856     102002.7      46.7237      46.7237      46.7237 
  461000    112.62091   -8845.1813   -8065.6824   -695.19277     102002.7      46.7237      46.7237      46.7237 
  462000     112.7543   -8855.1053   -8074.6831   -512.72399     102002.7      46.7237      46.7237      46.7237 
  463000    108.39813   -8831.7479   -8081.4766   -691.40667     102002.7      46.7237      46.7237      46.7237 
  464000    111.66059   -8820.4441    -8047.592   -834.61752     102002.7      46.7237      46.7237      46.7237 
  465000    112.03226   -8847.5739   -8072.1492   -995.87962     102002.7      46.7237      46.7237      46.7237 
  466000    111.88203   -8856.0855   -8081.7007   -1166.2703     102002.7      46.7237      46.7237      46.7237 
  467000    111.73636   -8816.9614   -8043.5848   -931.83982     102002.7      46.7237      46.7237      46.7237 
  468000    110.77651   -8842.5005   -8075.7675   -1103.8573     102002.7      46.7237      46.7237      46.7237 
  469000    107.16218   -8856.3029   -8114.5862    -756.9321     102002.7      46.7237      46.7237      46.7237 
  470000    111.60277   -8837.3095   -8064.8575   -991.39933     102002.7      46.7237      46.7237      46.7237 
  471000    108.30298   -8840.3056   -8090.6929    -795.6912     102002.7      46.7237      46.7237      46.7237 
  472000    112.18903   -8839.0244   -8062.5146    -552.7315     102002.7      46.7237      46.7237      46.7237 
  473000    109.09106    -8825.667   -8070.5997   -911.50639     102002.7      46.7237      46.7237      46.7237 
  474000    111.74965   -8833.6227   -8060.1541   -782.04131     102002.7      46.7237      46.7237      46.7237 
  475000    108.82515   -8852.2772   -8099.0504   -763.79242     102002.7      46.7237      46.7237      46.7237 
  476000    108.78472   -8828.8321   -8075.8851   -653.55152     102002.7      46.7237      46.7237      46.7237 
  477000    109.95949   -8876.2071    -8115.129   -647.58989     102002.7      46.7237      46.7237      46.7237 
  478000    107.75275   -8854.7116   -8108.9073   -633.08062     102002.7      46.7237      46.7237      46.7237 
  479000    110.34919   -8819.9864    -8056.211   -743.29019     102002.7      46.7237      46.7237      46.7237 
  480000    109.79137   -8846.4242   -8086.5097   -620.44693     102002.7      46.7237      46.7237      46.7237 
  481000    110.96204   -8843.6842   -8075.6669   -457.72988     102002.7      46.7237      46.7237      46.7237 
  482000    109.78392   -8820.1165   -8060.2536   -736.34753     102002.7      46.7237      46.7237      46.7237 
  483000    107.59746   -8844.7748   -8100.0453   -1057.7606     102002.7      46.7237      46.7237      46.7237 
  484000    111.39896   -8854.0366   -8082.9953   -1001.4978     102002.7      46.7237      46.7237      46.7237 
  485000    109.44817   -8821.3633   -8063.8242    -1095.751     102002.7      46.7237      46.7237      46.7237 
  486000    108.24672   -8854.9767   -8105.7535   -733.57508     102002.7      46.7237      46.7237      46.7237 
  487000    107.12327   -8835.6235   -8094.1761   -925.10213     102002.7      46.7237      46.7237      46.7237 
  488000    109.64604   -8822.3235   -8063.4149   -1042.8643     102002.7      46.7237      46.7237      46.7237 
  489000    108.92422   -8854.5085   -8100.5959    -798.6312     102002.7      46.7237      46.7237      46.7237 
  490000    109.85055   -8852.0477   -8091.7235   -1029.3334     102002.7      46.7237      46.7237      46.7237 
  491000    111.85145   -8814.8316   -8040.6584   -601.60202     102002.7      46.7237      46.7237      46.7237 
  492000    110.74755   -8834.9301   -8068.3974   -758.72824     102002.7      46.7237      46.7237      46.7237 
  493000    107.24791    -8834.106   -8091.7959     -862.166     102002.7      46.7237      46.7237      46.7237 
  494000     107.7591   -8841.3741   -8095.5259   -747.65117     102002.7      46.7237      46.7237      46.7237 
  495000    109.20699   -8807.7467    -8051.877        -1048     102002.7      46.7237      46.7237      46.7237 
  496000    107.93143   -8819.4896   -8072.4486   -1010.0755     102002.7      46.7237      46.7237      46.7237 
  497000    113.67441   -8835.6217    -8048.831   -977.45292     102002.7      46.7237      46.7237      46.7237 
  498000    110.06444   -8830.6174   -8068.8129    -946.4156     102002.7      46.7237      46.7237      46.7237 
  499000    107.37603   -8843.6045   -8100.4076   -726.68788     102002.7      46.7237      46.7237      46.7237 
  500000    109.40832   -8824.5831   -8067.3199   -1170.0679     102002.7      46.7237      46.7237      46.7237 
  500501    108.45791   -8816.6995   -8066.0144   -951.87463     102002.7      46.7237      46.7237      46.7237 
Loop time of 666.331 on 24 procs for 500000 steps with 2323 atoms

Performance: 64.833 ns/day, 0.370 hours/ns, 750.378 timesteps/s
98.6% CPU use with 24 MPI tasks x no OpenMP threads

MPI task timing breakdown:
Section |  min time  |  avg time  |  max time  |%varavg| %total
---------------------------------------------------------------
Pair    | 265.19     | 341.08     | 438.68     | 238.3 | 51.19
Bond    | 50.309     | 78.786     | 110.77     | 202.0 | 11.82
Neigh   | 4.4619     | 4.4718     | 4.4842     |   0.4 |  0.67
Comm    | 125.8      | 229.29     | 316.45     | 343.7 | 34.41
Output  | 1.7843     | 1.7847     | 1.7892     |   0.1 |  0.27
Modify  | 4.3475     | 4.5602     | 4.6967     |   4.8 |  0.68
Other   |            | 6.358      |            |       |  0.95

Nlocal:    96.7917 ave 134 max 55 min
Histogram: 3 2 1 2 1 6 1 4 1 3
Nghost:    2642.42 ave 2813 max 2529 min
Histogram: 4 5 5 2 0 0 0 2 4 2
Neighs:    7634.79 ave 10300 max 3157 min
Histogram: 1 1 1 3 2 2 2 2 7 3

Total # of neighbors = 183235
Ave neighs/atom = 78.8786
Ave special neighs/atom = 4.9591
Neighbor list builds = 4539
Dangerous builds = 0
Neighbor list info ...
  update every 1 steps, delay 10 steps, check yes
  max neighbors/atom: 2000, page size: 100000
  master list distance cutoff = 16
  ghost atom cutoff = 16
  binsize = 8, bins = 6 6 6
  3 neighbor lists, perpetual/occasional/extra = 3 0 0
  (1) pair buck6d/coul/gauss/dsf, perpetual, skip from (3)
      attributes: half, newton on
      pair build: skip
      stencil: none
      bin: none
  (2) pair lj/cut, perpetual, skip from (3)
      attributes: half, newton on
      pair build: skip
      stencil: none
      bin: none
  (3) neighbor class addition, perpetual
      attributes: half, newton on
      pair build: half/bin/newton
      stencil: half/bin/3d/newton
      bin: standard
Setting up Verlet run ...
  Unit style    : real
  Current step  : 500501
  Time step     : 1
WARNING: Inconsistent image flags (../domain.cpp:786)
Per MPI rank memory allocation (min/avg/max) = 23.96 | 24.48 | 24.6 Mbytes
Step Time TotEng KinEng PotEng E_mol E_pair Temp Pxx Pyy Pzz Pxy Pxz Pyz Cella Cellb Cellc CellAlpha CellBeta CellGamma Volume Press 
  500501       500000   -8066.0144    750.68501   -8816.6995    4312.1113   -13128.811    108.45791   -1049.1222   -916.58545   -889.91625   -4.3872522    124.08809    53.885407      46.7237      46.7237      46.7237           90           90           90     102002.7   -951.87463 
  501000       500499   -8072.8383    756.28652   -8829.1248    4294.6199   -13123.745    109.26721   -625.48228   -800.81227   -913.51359   -67.872918    62.317742    228.56188      46.7237      46.7237      46.7237           90           90           90     102002.7   -779.93605 
  502000       501499   -8100.0851    759.80657   -8859.8916     4284.788    -13144.68    109.77578   -53.007482   -907.64614   -611.99452   -136.43083    122.36544    45.073864      46.7237      46.7237      46.7237           90           90           90     102002.7   -524.21605 
  503000       502499   -8069.8829    752.09154   -8821.9745    4312.0627   -13134.037    108.66112   -897.19494   -1331.1436   -1107.7708   -39.097505    20.428088   -174.78859      46.7237      46.7237      46.7237           90           90           90     102002.7   -1112.0364 
  504000       503499   -8058.9433    763.39184   -8822.3351    4316.3509   -13138.686    110.29377   -671.08514   -793.06516   -1073.0843    14.635656     21.09026    167.80932      46.7237      46.7237      46.7237           90           90           90     102002.7   -845.74487 
  505000       504499   -8083.3342    764.37272   -8847.7069    4281.5754   -13129.282    110.43549   -1001.3853   -1084.1314   -916.39846    39.550427   -228.91352   -203.74326      46.7237      46.7237      46.7237           90           90           90     102002.7   -1000.6384 
  506000       505499   -8051.1407    774.08335   -8825.2241    4314.3137   -13139.538    111.83847   -849.47866   -1100.4124   -919.98869    7.2665576    100.79198   -38.165774      46.7237      46.7237      46.7237           90           90           90     102002.7   -956.62658 
  507000       506499     -8070.59    750.94504   -8821.5351    4303.8333   -13125.368    108.49548   -320.35725   -642.27502   -303.96664   -125.72394    168.91909   -73.301516      46.7237      46.7237      46.7237           90           90           90     102002.7   -422.19964 
  508000       507499   -8055.0417    776.11082   -8831.1525    4313.9922   -13145.145    112.13139   -1269.5051   -1218.7084   -357.20832    42.270014   -36.350142   -6.5425826      46.7237      46.7237      46.7237           90           90           90     102002.7   -948.47394 
  509000       508499   -8074.7789    765.94067   -8840.7196    4298.5243   -13139.244    110.66202   -1235.7759   -865.86849   -472.36656    193.13612   -170.03408   -8.8003796      46.7237      46.7237      46.7237           90           90           90     102002.7   -858.00367 
  510000       509499   -8039.5236    788.74923   -8828.2728     4292.501   -13120.774    113.95737   -969.36998    -597.6524   -519.31766    143.78311    87.426027    137.78478      46.7237      46.7237      46.7237           90           90           90     102002.7   -695.44668 
  511000       510499   -8051.9323    765.61212   -8817.5444    4317.4939   -13135.038    110.61456   -639.98239   -1250.8631   -882.77915   -111.74605    160.97224    258.55425      46.7237      46.7237      46.7237           90           90           90     102002.7   -924.54154 
  512000       511499   -8065.3838    769.12851   -8834.5123    4312.7976    -13147.31     111.1226   -1169.9381   -660.51941   -713.20258    122.15754   -301.83028   -119.60425      46.7237      46.7237      46.7237           90           90           90     102002.7   -847.88671 
  513000       512499   -8086.7302    761.06189    -8847.792    4281.1826   -13128.975    109.95715   -1202.4733   -452.77546   -1311.8634   -176.84435   -85.958203    59.258124      46.7237      46.7237      46.7237           90           90           90     102002.7    -989.0374 
  514000       513499   -8104.0983    746.00328   -8850.1015     4295.358    -13145.46     107.7815    -406.4034   -1300.1566   -382.11749   -195.04409   -65.076843   -95.268995      46.7237      46.7237      46.7237           90           90           90     102002.7   -696.22583 
  515000       514499   -8052.1038    771.91118    -8824.015    4308.8989   -13132.914    111.52464   -697.94773   -1284.8941   -627.81578    186.54095    6.0412586   -64.313771      46.7237      46.7237      46.7237           90           90           90     102002.7    -870.2192 
  516000       515499    -8081.391     781.5484   -8862.9394     4295.371    -13158.31    112.91701   -941.19218   -1105.5413    -852.0027    152.94547    65.224365    11.010202      46.7237      46.7237      46.7237           90           90           90     102002.7   -966.24541 
  517000       516499   -8099.9932    753.41036   -8853.4036    4306.2336   -13159.637    108.85166   -566.90784    -1099.402   -704.91369   -337.85594   -270.20425    220.11285      46.7237      46.7237      46.7237           90           90           90     102002.7   -790.40783 
  518000       517499    -8050.342    789.89392   -8840.2359    4291.4679   -13131.704    114.12276   -340.28516   -786.57654   -394.90921   -18.937008   -253.87607    148.13616      46.7237      46.7237      46.7237           90           90           90     102002.7   -507.25697 
  519000       518499   -8060.6424    777.83133   -8838.4737    4271.4745   -13109.948    112.37997   -794.82625    -924.3642   -403.05138    115.78632   -177.09926    173.92785      46.7237      46.7237      46.7237           90           90           90     102002.7   -707.41394 
  520000       519499   -8081.0437    753.55777   -8834.6015    4288.0517   -13122.653    108.87296   -773.42699   -1240.4929   -1030.2207    67.454853   -60.970527   -126.52132      46.7237      46.7237      46.7237           90           90           90     102002.7   -1014.7135 
  521000       520499   -8067.8856    781.04171   -8848.9274    4302.1366   -13151.064     112.8438    -947.0975   -932.99682   -610.62428   0.51771478   -125.09823   -185.12491      46.7237      46.7237      46.7237           90           90           90     102002.7   -830.23953 
  522000       521499   -8089.0804     774.7687   -8863.8491    4297.8142   -13161.663    111.93749   -372.67594   -1061.1939    -975.0022   -16.898478   -32.548876    159.29121      46.7237      46.7237      46.7237           90           90           90     102002.7   -802.95733 
  523000       522499   -8043.2698    781.50813   -8824.7779    4307.7053   -13132.483    112.91119   -774.73186   -939.08126   -417.93233   -140.22122   -84.106302    170.16476      46.7237      46.7237      46.7237           90           90           90     102002.7   -710.58182 
  524000       523499   -8079.3243    756.66244   -8835.9867    4296.5082   -13132.495    109.32152   -673.41243   -854.85621   -778.86251    147.72239   -199.56007   -14.416585      46.7237      46.7237      46.7237           90           90           90     102002.7   -769.04371 
  525000       524499   -8058.0202    776.63669   -8834.6569    4284.0813   -13118.738    112.20737   -1293.7811   -916.85164    -1407.042    108.72814    35.286141    136.83853      46.7237      46.7237      46.7237           90           90           90     102002.7   -1205.8916 
  526000       525499   -8074.6136    778.16198   -8852.7756    4297.9334   -13150.709    112.42774   -468.46123   -1115.5198   -828.56938    144.18948     75.38284    170.26762      46.7237      46.7237      46.7237           90           90           90     102002.7   -804.18348 
  527000       526499   -8059.6872    775.26593   -8834.9531    4293.3824   -13128.336    112.00933   -972.39243   -1443.1464   -971.48858     53.83081    2.4639514    51.620788      46.7237      46.7237      46.7237           90           90           90     102002.7   -1129.0091 
  528000       527499   -8097.8048    757.01999   -8854.8248    4269.2879   -13124.113    109.37318   -1363.9713   -1189.1425   -849.20609    219.88352     15.84566   -97.098584      46.7237      46.7237      46.7237           90           90           90     102002.7   -1134.1066 
  529000       528499    -8079.469    749.02334   -8828.4923    4295.9038   -13124.396    108.21783   -1157.3885   -550.59943   -1064.0415    205.37445    65.294532    9.5579693      46.7237      46.7237      46.7237           90           90           90     102002.7   -924.00981 
  530000       529499   -8063.3056    765.45175   -8828.7574    4291.2391   -13119.996    110.59139   -893.40914   -1389.8067   -506.31555    358.15241    25.603451   -8.5806944      46.7237      46.7237      46.7237           90           90           90     102002.7   -929.84381 
  531000       530499   -8077.7173    759.03441   -8836.7517    4285.2746   -13122.026    109.66422   -661.05949   -1034.6079   -842.53124   -190.97289   -377.81132   0.87128836      46.7237      46.7237      46.7237           90           90           90     102002.7   -846.06621 
  532000       531499   -8082.0912    737.88252   -8819.9737    4302.9897   -13122.963    106.60822   -901.01924   -1132.4881   -1134.1344   -34.587433    111.42914    19.737475      46.7237      46.7237      46.7237           90           90           90     102002.7   -1055.8806 
  533000       532499   -8054.8367    773.80743   -8828.6441    4289.3899   -13118.034     111.7986   -1256.5494   -1374.0614   -625.69881   -143.74409   -17.453966    17.705967      46.7237      46.7237      46.7237           90           90           90     102002.7   -1085.4365 
  534000       533499   -8067.0923    746.43588   -8813.5282    4323.1955   -13136.724      107.844   -764.94057   -970.90446   -745.30949   -104.96579   -112.18253   -144.08768      46.7237      46.7237      46.7237           90           90           90     102002.7   -827.05151 
  535000       534499   -8097.4012    751.59063   -8848.9918    4293.6406   -13142.632    108.58875   -1189.2166   -1233.2625   -935.21829    270.84281   -239.89172    146.00799      46.7237      46.7237      46.7237           90           90           90     102002.7   -1119.2324 
  536000       535499   -8072.5307    769.32511   -8841.8558    4280.7333   -13122.589      111.151   -108.60019   -1196.4513   -1141.8781   -23.086222   -210.03466   -33.973145      46.7237      46.7237      46.7237           90           90           90     102002.7   -815.64319 
  537000       536499   -8070.4768    764.22631   -8834.7031    4315.8415   -13150.545    110.41434    -665.5736   -729.72633   -1074.2031    18.327024    157.43029    79.982608      46.7237      46.7237      46.7237           90           90           90     102002.7   -823.16769 
  538000       537499    -8086.971    768.77591   -8855.7469     4277.012   -13132.759    111.07166   -512.36201   -668.59037   -1211.6892    15.103196   -211.59866   -124.70714      46.7237      46.7237      46.7237           90           90           90     102002.7    -797.5472 
  539000       538499   -8098.1188    753.58106   -8851.6999    4281.1371   -13132.837    108.87633   -647.01801   -1042.3411   -1335.5424    -68.71094   -14.131819   -18.041552      46.7237      46.7237      46.7237           90           90           90     102002.7   -1008.3005 
  540000       539499   -8082.3294    767.99662   -8850.3261    4311.4573   -13161.783    110.95907    -867.1911   -1148.0567   -1312.7887    84.525957    59.644687    145.51195      46.7237      46.7237      46.7237           90           90           90     102002.7   -1109.3455 
  541000       540499   -8087.5748    770.72735   -8858.3021    4273.3748   -13131.677     111.3536   -659.48369   -729.08506   -945.43633   -247.75589    -101.6484   -91.796492      46.7237      46.7237      46.7237           90           90           90     102002.7   -778.00169 
  542000       541499   -8096.9286    766.63954   -8863.5682    4274.6639   -13138.232      110.763   -592.69076   -1009.9011   -1197.5062   -49.505874   -49.172435    90.621342      46.7237      46.7237      46.7237           90           90           90     102002.7   -933.36603 
  543000       542499   -8055.1643    785.58416   -8840.7484    4283.8994   -13124.648    113.50009   -1145.1154    -801.7855   -767.58571    91.576214    38.450831    485.57007      46.7237      46.7237      46.7237           90           90           90     102002.7   -904.82887 
  544000       543499   -8067.5365    754.59425   -8822.1308    4286.5851   -13108.716    109.02271   -497.54647   -948.64961     -884.011   -75.264298   -64.121785   -56.667218      46.7237      46.7237      46.7237           90           90           90     102002.7   -776.73569 
  545000       544499   -8082.1896    757.11298   -8839.3026    4285.9714   -13125.274    109.38661   -939.62292   -1221.4604   -781.59469    185.83798    104.96274    191.21233      46.7237      46.7237      46.7237           90           90           90     102002.7   -980.89268 
  546000       545499   -8054.0668    762.31851   -8816.3853    4303.6048    -13119.99     110.1387   -1344.1313   -848.61492   -1174.7237   -151.56092    149.40605   -157.48425      46.7237      46.7237      46.7237           90           90           90     102002.7     -1122.49 
  547000       546499   -8051.6636    767.79863   -8819.4623     4310.196   -13129.658    110.93046   -731.07375    -807.4718   -953.53568   -111.03279   -15.922721   -142.02734      46.7237      46.7237      46.7237           90           90           90     102002.7   -830.69374 
  548000       547499   -8064.1503    774.12241   -8838.2727    4284.8629   -13123.136    111.84411   -977.89563   -1009.0539   -725.21711    48.628656   -28.627771    124.50183      46.7237      46.7237      46.7237           90           90           90     102002.7   -904.05556 
  549000       548499   -8068.0272    757.37581    -8825.403    4285.3458   -13110.749    109.42459   -717.54349   -989.95669   -579.04418    -99.85046    103.73323    35.829492      46.7237      46.7237      46.7237           90           90           90     102002.7   -762.18146 
  550000       549499   -8076.7226    776.97179   -8853.6944    4289.1472   -13142.842    112.25579   -757.82468    -1144.087   -1134.3632    109.53044   -5.3893285   -7.2729399      46.7237      46.7237      46.7237           90           90           90     102002.7   -1012.0916 
  551000       550499   -8072.3207    766.73848   -8839.0591    4305.2086   -13144.268    110.77729   -1137.6364   -968.32927   -731.79376   -32.616527    4.1546762   -91.986631      46.7237      46.7237      46.7237           90           90           90     102002.7   -945.91982 
  552000       551499   -8099.6098    750.80238   -8850.4121    4292.6064   -13143.019    108.47487   -777.22483   -364.00525   -1086.3318    23.633221    82.087448    102.14312      46.7237      46.7237      46.7237           90           90           90     102002.7   -742.52062 
  553000       552499   -8060.2132    774.27964   -8834.4929    4295.5806   -13130.074    111.86683   -946.42436   -886.27253   -1071.6147    -113.2126    34.897424   -222.09502      46.7237      46.7237      46.7237           90           90           90     102002.7   -968.10388 
  554000       553499     -8079.56    763.30369   -8842.8637    4306.9164    -13149.78    110.28104   -949.85621   -753.55549   -806.28943    7.5800299    87.916403    70.644895      46.7237      46.7237      46.7237           90           90           90     102002.7   -836.56704 
  555000       554499   -8094.4326    749.28485   -8843.7174    4315.6673   -13159.385    108.25562   -925.28452   -1087.7522   -1028.6572    181.46188   -66.342845   -149.49847      46.7237      46.7237      46.7237           90           90           90     102002.7    -1013.898 
[...]
  936000       935499   -8054.5136    755.48627   -8809.9999    4307.9178   -13117.918    109.15159   -838.27805   -1074.5048   -864.40168    25.265602   -79.673731   -27.318121      46.7237      46.7237      46.7237           90           90           90     102002.7   -925.72818 
  937000       936499   -8090.9337    769.78916   -8860.7228    4282.8076    -13143.53    111.21805   -874.06932   -1028.0764   -976.34438   -3.8179989    -122.2092    -131.8396      46.7237      46.7237      46.7237           90           90           90     102002.7   -959.49669 
  938000       937499   -8055.4585    784.20897   -8839.6674    4305.0573   -13144.725     113.3014   -587.68999   -1210.4772   -652.64691    28.764503    100.71653    166.37655      46.7237      46.7237      46.7237           90           90           90     102002.7   -816.93803 
  939000       938499   -8084.4216    756.73794   -8841.1596    4284.7176   -13125.877    109.33243   -603.08564   -1068.4931   -517.83928     60.80954   -20.929316   -67.583109      46.7237      46.7237      46.7237           90           90           90     102002.7   -729.80601 
  940000       939499   -8070.9468    765.06207   -8836.0089    4299.1433   -13135.152    110.53509    -889.3636   -743.61882   -334.34953   -116.98681    62.009383   -93.032995      46.7237      46.7237      46.7237           90           90           90     102002.7   -655.77732 
  941000       940499   -8052.9626    769.13493   -8822.0975    4304.0699   -13126.167    111.12353   -646.66497   -952.61916   -913.69612   -45.604142    50.004843     -45.3707      46.7237      46.7237      46.7237           90           90           90     102002.7   -837.66008 
  942000       941499   -8085.5392    738.79765   -8824.3368    4308.5805   -13132.917    106.74044   -1171.6722   -412.77262   -853.10589   -363.73412    15.690356    -49.81841      46.7237      46.7237      46.7237           90           90           90     102002.7   -812.51689 
  943000       942499   -8034.4964    780.36934   -8814.8657    4298.1683   -13113.034    112.74666   -1090.5387   -1155.7699   -875.68653   -43.782995    370.62194    137.67676      46.7237      46.7237      46.7237           90           90           90     102002.7   -1040.6651 
  944000       943499   -8088.8161     755.3939     -8844.21    4297.0168   -13141.227    109.13824     -735.721   -1157.3363    -219.2791   -64.696656   -12.493175    -45.97739      46.7237      46.7237      46.7237           90           90           90     102002.7   -704.11215 
  945000       944499   -8053.6226    768.71056   -8822.3332    4302.7361   -13125.069    111.06221   -820.85199   -547.14007   -773.63118   -281.40952   -251.06005    213.84482      46.7237      46.7237      46.7237           90           90           90     102002.7   -713.87441 
  946000       945499   -8072.2277    770.15328    -8842.381    4284.2907   -13126.672    111.27066   -621.90776   -782.03377   -607.84143   -26.607143   -150.77404    87.311075      46.7237      46.7237      46.7237           90           90           90     102002.7   -670.59432 
  947000       946499   -8081.5277    762.62802   -8844.1557      4286.34   -13130.496    110.18342    -1191.649   -740.39283     -574.633   -79.187056   -10.110682    54.165292      46.7237      46.7237      46.7237           90           90           90     102002.7   -835.55828 
  948000       947499    -8078.695    763.53366   -8842.2286     4284.663   -13126.892    110.31426   -911.96718   -1054.1871   -598.05615   -33.069616    112.69431    85.632348      46.7237      46.7237      46.7237           90           90           90     102002.7   -854.73682 
  949000       948499    -8059.994    759.73114   -8819.7251    4297.0845    -13116.81    109.76488    -990.8016   -894.39062   -1031.2511   -222.60539    48.412477    103.59126      46.7237      46.7237      46.7237           90           90           90     102002.7   -972.14777 
  950000       949499   -8077.9369    765.08898   -8843.0258    4286.8193   -13129.845    110.53897   -714.79644   -709.71839   -960.17345   -77.341295   -130.42761    64.709568      46.7237      46.7237      46.7237           90           90           90     102002.7    -794.8961 
  951000       950499    -8081.187    759.48873   -8840.6757    4302.8213   -13143.497    109.72986   -998.15336   -1116.7326   -700.58904    354.35237   -164.05896     86.08916      46.7237      46.7237      46.7237           90           90           90     102002.7   -938.49165 
  952000       951499   -8078.9325    746.11158   -8825.0441    4301.4882   -13126.532    107.79715   -1483.5256    -860.3013   -1083.5439   -146.03879    -93.85685   -12.134686      46.7237      46.7237      46.7237           90           90           90     102002.7   -1142.4569 
  953000       952499   -8084.9727    768.46082   -8853.4335    4274.9751   -13128.409    111.02613   -1005.5017   -957.51455   -1079.1276   -303.81338    20.483683   -164.02322      46.7237      46.7237      46.7237           90           90           90     102002.7   -1014.0479 
  954000       953499   -8091.3274    750.70121   -8842.0286    4305.0072   -13147.036    108.46025   -737.31208   -1096.6304   -1019.8934   -34.166964    203.39889    60.204401      46.7237      46.7237      46.7237           90           90           90     102002.7   -951.27862 
  955000       954499   -8084.0147    769.35123    -8853.366    4275.1937    -13128.56    111.15478   -862.07964   -759.09947   -473.48133    244.63837    38.753015   -298.66752      46.7237      46.7237      46.7237           90           90           90     102002.7   -698.22014 
  956000       955499   -8035.4382    786.16513   -8821.6033     4306.148   -13127.751    113.58403   -660.15053   -1148.7221   -827.30685    350.09943    -297.9477    297.58394      46.7237      46.7237      46.7237           90           90           90     102002.7   -878.72651 
  957000       956499   -8096.9966    747.31089   -8844.3074    4289.7754   -13134.083    107.97042     -583.957   -1667.0741   -1045.8079   -164.91796    17.473047    139.97718      46.7237      46.7237      46.7237           90           90           90     102002.7   -1098.9463 
  958000       957499   -8071.6349      766.187   -8837.8219    4285.3641   -13123.186    110.69761   -861.09473   -864.39824   -430.97894   -157.26999    367.50967   -4.2216217      46.7237      46.7237      46.7237           90           90           90     102002.7   -718.82397 
  959000       958499   -8083.2093    751.88551   -8835.0948    4299.8931   -13134.988    108.63135   -545.89948   -1224.3205   -1196.0338     182.9988    228.50733    21.393365      46.7237      46.7237      46.7237           90           90           90     102002.7   -988.75126 
  960000       959499    -8098.753    747.89359   -8846.6466    4279.1266   -13125.773    108.05461   -658.12436   -1118.5982   -1200.5702   -38.923718    37.214291    88.296288      46.7237      46.7237      46.7237           90           90           90     102002.7    -992.4309 
  961000       960499   -8066.0289    747.83937   -8813.8683    4318.2064   -13132.075    108.04677   -548.26319   -1125.2617    -560.7423   -80.353907    98.386843    222.81467      46.7237      46.7237      46.7237           90           90           90     102002.7   -744.75571 
  962000       961499   -8055.0192    759.85565   -8814.8749    4314.8272   -13129.702    109.78287   -759.17699   -1010.7624   -1221.9891   -100.12863    50.342117   -87.420203      46.7237      46.7237      46.7237           90           90           90     102002.7   -997.30949 
  963000       962499   -8052.7395    761.97734   -8814.7168    4302.9833     -13117.7    110.08941   -483.08211   -903.09406   -264.73524    17.422605    152.95186   -505.74384      46.7237      46.7237      46.7237           90           90           90     102002.7    -550.3038 
  964000       963499   -8099.8966    754.62114   -8854.5177    4277.5159   -13132.034     109.0266   -245.08143   -471.33732   -1067.2398     -6.35994    40.874363      183.269      46.7237      46.7237      46.7237           90           90           90     102002.7   -594.55284 
  965000       964499   -8059.2991    774.61338   -8833.9124    4285.1864   -13119.099    111.91505   -236.46547   -827.10483   -1387.7028   -41.038749   -187.66861    411.92755      46.7237      46.7237      46.7237           90           90           90     102002.7   -817.09104 
  966000       965499    -8091.638    756.37255   -8848.0105    4267.0191    -13115.03    109.27964   -609.95257   -965.83414   -782.55395   -120.38537   -46.667515    6.1446611      46.7237      46.7237      46.7237           90           90           90     102002.7   -786.11355 
  967000       966499   -8066.2633    773.48709   -8839.7504    4280.5326   -13120.283    111.75232    -885.8218   -1375.2714   -816.66786    1.8071576    154.19057   -29.237334      46.7237      46.7237      46.7237           90           90           90     102002.7   -1025.9204 
  968000       967499   -8072.7224    751.99662    -8824.719    4300.0913    -13124.81    108.64741   -914.13313   -540.34567   -547.14716   -46.474153   -247.64567   -64.779696      46.7237      46.7237      46.7237           90           90           90     102002.7   -667.20865 
  969000       968499   -8048.7146    754.20423   -8802.9189    4298.8733   -13101.792    108.96636   -573.93669   -675.12864   -1289.0863   -32.160499    202.07151    114.93467      46.7237      46.7237      46.7237           90           90           90     102002.7   -846.05055 
  970000       969499   -8096.0661    753.94124   -8850.0074    4288.0443   -13138.052    108.92836   -909.97894   -841.83004   -701.83785    79.846019   -45.598258   -30.640751      46.7237      46.7237      46.7237           90           90           90     102002.7   -817.88228 
  971000       970499   -8057.5759     763.1102   -8820.6861      4306.46   -13127.146    110.25308   -687.88151   -457.26804   -853.16791   -27.703537    212.25415    72.636365      46.7237      46.7237      46.7237           90           90           90     102002.7   -666.10582 
  972000       971499   -8072.3761    773.54692    -8845.923    4286.2848   -13132.208    111.76096   -833.60526   -1092.5887   -783.03956    338.89977    92.374508   -165.91329      46.7237      46.7237      46.7237           90           90           90     102002.7   -903.07784 
  973000       972499   -8090.6334     742.0319   -8832.6653    4291.2444    -13123.91    107.20772   -886.43576   -273.19492   -65.103077    112.21899    170.21479   -228.15517      46.7237      46.7237      46.7237           90           90           90     102002.7   -408.24459 
  974000       973499   -8075.9765    767.21308   -8843.1896    4282.8259   -13126.016    110.84586   -633.61685   -855.87638   -675.26582   -22.763528   -2.1611381    61.479356      46.7237      46.7237      46.7237           90           90           90     102002.7   -721.58635 
  975000       974499   -8066.0897    766.20428    -8832.294    4287.0141   -13119.308    110.70011   -1121.6244   -731.45731    -793.7772   -153.61686   -169.92585   -207.09007      46.7237      46.7237      46.7237           90           90           90     102002.7   -882.28629 
  976000       975499    -8058.989    777.31453   -8836.3036    4294.0028   -13130.306     112.3053   -910.86591   -599.57074   -650.79249    90.946538   -90.901256   -360.98045      46.7237      46.7237      46.7237           90           90           90     102002.7   -720.40971 
  977000       976499   -8054.0501    766.96322   -8821.0133    4294.2376   -13115.251    110.80976   -567.15717   -1028.0502   -1022.6415   -75.785655   -122.00861    78.877151      46.7237      46.7237      46.7237           90           90           90     102002.7   -872.61628 
  978000       977499   -8045.5676    810.03101   -8855.5986    4264.7873   -13120.386    117.03213   -725.49366   -1080.4497   -887.57101    200.48704   -10.786609   -182.91471      46.7237      46.7237      46.7237           90           90           90     102002.7   -897.83813 
  979000       978499   -8097.3106    742.08358   -8839.3942    4294.7985   -13134.193    107.21519   -836.49868   -639.49688   -671.54707    91.691582    -278.9341    242.69711      46.7237      46.7237      46.7237           90           90           90     102002.7   -715.84754 
  980000       979499    -8074.982    770.33061   -8845.3126    4296.7512   -13142.064    111.29628   -972.92539   -974.73837   -578.34106    13.839609    193.91887   -65.177311      46.7237      46.7237      46.7237           90           90           90     102002.7   -842.00161 
  981000       980499   -8075.4128    764.64927   -8840.0621    4275.9416   -13116.004    110.47545    -722.4572   -751.25333    -741.4662    111.11391   -134.47795    10.366959      46.7237      46.7237      46.7237           90           90           90     102002.7   -738.39224 
  982000       981499   -8092.9973    742.49807   -8835.4954    4286.9834   -13122.479    107.27507   -1234.0905   -973.20921   -997.82963   -170.02517    204.44742   -208.85309      46.7237      46.7237      46.7237           90           90           90     102002.7   -1068.3764 
  983000       982499   -8092.3354    752.52462     -8844.86    4288.5752   -13133.435    108.72369   -791.20484   -745.97171   -1213.4368    201.66507   -6.6090976   -165.24096      46.7237      46.7237      46.7237           90           90           90     102002.7   -916.87113 
  984000       983499   -8068.1374    764.24661    -8832.384    4311.3287   -13143.713    110.41727   -1120.7562   -790.53982   -885.33022    14.061811    144.57183   -38.607803      46.7237      46.7237      46.7237           90           90           90     102002.7   -932.20875 
  985000       984499   -8085.9799    763.09403   -8849.0739     4281.542   -13130.616    110.25075   -1096.3089   -619.37254   -369.27496   -214.25684   -19.993175   -8.6157905      46.7237      46.7237      46.7237           90           90           90     102002.7   -694.98546 
  986000       985499   -8063.8455    765.23654   -8829.0821     4295.578    -13124.66    110.56029    -1333.486   -531.39875   -988.78624    261.12722   -155.51076   -188.24848      46.7237      46.7237      46.7237           90           90           90     102002.7   -951.22368 
  987000       986499   -8040.6583     785.7442   -8826.4025    4296.8032   -13123.206    113.52321   -861.09168   -765.99445   -798.12583    176.82837   -124.04959    388.35841      46.7237      46.7237      46.7237           90           90           90     102002.7   -808.40399 
  988000       987499   -8060.8666    766.62493   -8827.4915    4311.1156   -13138.607    110.76089   -664.53796   -1284.5513   -1049.2368    361.10453   -52.136342    26.960485      46.7237      46.7237      46.7237           90           90           90     102002.7   -999.44203 
  989000       988499    -8068.231    770.40101    -8838.632     4274.659   -13113.291    111.30645   -1013.2001    -872.4573   -756.02673    -93.51878     49.88164    71.451646      46.7237      46.7237      46.7237           90           90           90     102002.7   -880.56138 
  990000       989499   -8059.1641    753.73008   -8812.8942    4312.7847   -13125.679    108.89786   -778.35979   -805.16439   -554.68531   -54.140224    192.60129    122.40141      46.7237      46.7237      46.7237           90           90           90     102002.7    -712.7365 
  991000       990499   -8092.9339    738.85625   -8831.7902    4272.9057   -13104.696    106.74891   -460.74761   -844.23545    -864.2868    35.189717   -101.16569   -197.73486      46.7237      46.7237      46.7237           90           90           90     102002.7   -723.08995 
  992000       991499   -8082.6201    748.83511   -8831.4552    4293.9133   -13125.369    108.19064   -740.12345   -588.08413   -639.81722   -175.40111    4.9104486    137.88192      46.7237      46.7237      46.7237           90           90           90     102002.7   -656.00827 
  993000       992499   -8097.9268    735.82956   -8833.7564    4284.1174   -13117.874    106.31161   -711.24307   -580.07662   -843.79413    101.74416    15.285022    9.0964236      46.7237      46.7237      46.7237           90           90           90     102002.7   -711.70461 
  994000       993499   -8067.9668    766.77039   -8834.7372    4297.9731    -13132.71     110.7819   -1031.3656   -466.75981   -940.34983   -98.371698     368.3905    -92.39506      46.7237      46.7237      46.7237           90           90           90     102002.7   -812.82507 
  995000       994499   -8055.2782    791.52521   -8846.8034    4279.3102   -13126.114    114.35844   -952.20381   -1016.0492   -619.42814   0.93741167    68.031626    84.370561      46.7237      46.7237      46.7237           90           90           90     102002.7    -862.5604 
  996000       995499   -8090.9938    750.29268   -8841.2865    4266.9896   -13108.276    108.40123   -1117.5952   -1040.4327   -933.52035    62.349659   -249.41181   -230.61699      46.7237      46.7237      46.7237           90           90           90     102002.7   -1030.5161 
  997000       996499   -8074.2451    771.98903   -8846.2341    4288.3078   -13134.542    111.53588   -859.85303   -1394.5448    -678.0975     48.20677    152.51149    29.184979      46.7237      46.7237      46.7237           90           90           90     102002.7   -977.49845 
  998000       997499   -8059.8114    768.74052   -8828.5519    4301.1899   -13129.742    111.06654    -964.4279   -1070.4053   -706.31277    3.7537587    41.682638   -9.0742676      46.7237      46.7237      46.7237           90           90           90     102002.7   -913.71531 
  999000       998499   -8071.2488    747.67556   -8818.9244    4302.4831   -13121.408    108.02311   -1089.9711   -862.55138   -1168.7067    -96.08928   -114.00306   -116.61051      46.7237      46.7237      46.7237           90           90           90     102002.7   -1040.4097 
 1000000       999499    -8087.056    756.09787   -8843.1538    4287.2711   -13130.425    109.23995   -1194.6156     -1170.29   -896.40565    6.2783486   -169.78704   -133.25781      46.7237      46.7237      46.7237           90           90           90     102002.7   -1087.1037 
 1000501      1000000    -8075.084    748.91972   -8824.0038    4292.9681   -13116.972    108.20286   -919.04962   -856.80125   -750.95441    -67.76685    40.144696   -234.18919      46.7237      46.7237      46.7237           90           90           90     102002.7   -842.26843 
Loop time of 779.18 on 24 procs for 500000 steps with 2323 atoms

Performance: 55.443 ns/day, 0.433 hours/ns, 641.701 timesteps/s
98.9% CPU use with 24 MPI tasks x no OpenMP threads

MPI task timing breakdown:
Section |  min time  |  avg time  |  max time  |%varavg| %total
---------------------------------------------------------------
Pair    | 226.31     | 394.04     | 523.04     | 421.5 | 50.57
Bond    | 37.786     | 82.646     | 138.59     | 337.1 | 10.61
Neigh   | 4.6636     | 4.678      | 4.6919     |   0.4 |  0.60
Comm    | 99.418     | 278.29     | 488.11     | 648.9 | 35.72
Output  | 0.42887    | 0.47242    | 0.47446    |   1.3 |  0.06
Modify  | 12.467     | 12.958     | 13.449     |   7.7 |  1.66
Other   |            | 6.098      |            |       |  0.78

Nlocal:    96.7917 ave 143 max 57 min
Histogram: 2 2 3 4 3 3 2 2 1 2
Nghost:    2661.04 ave 2840 max 2539 min
Histogram: 3 8 4 1 0 0 0 1 3 4
Neighs:    7641.96 ave 11971 max 4060 min
Histogram: 2 2 5 4 1 1 3 4 1 1

Total # of neighbors = 183407
Ave neighs/atom = 78.9526
Ave special neighs/atom = 4.9591
Neighbor list builds = 4574
Dangerous builds = 0
Total wall time: 0:24:07
