LAMMPS (30 Mar 2018)
Reading data file ...
  orthogonal box = (0 0 0) to (46.7237 46.7237 46.7237)
  2 by 2 by 4 MPI processor grid
  reading atoms ...
  1744 atoms
  scanning bonds ...
  5 = max bonds/atom
  scanning angles ...
  10 = max angles/atom
  scanning dihedrals ...
  32 = max dihedrals/atom
  scanning impropers ...
  3 = max impropers/atom
  reading bonds ...
  2064 bonds
  reading angles ...
  3696 angles
  reading dihedrals ...
  6240 dihedrals
  reading impropers ...
  1008 impropers
Finding 1-2 1-3 1-4 neighbors ...
  special bond factors lj:   0          0          0         
  special bond factors coul: 0          0          0         
  5 = max # of 1-2 neighbors
  8 = max # of 1-3 neighbors
  20 = max # of 1-4 neighbors
  19 = max # of special neighbors
Finding 1-2 1-3 1-4 neighbors ...
  special bond factors lj:   0          0          1         
  special bond factors coul: 1          1          1         
  5 = max # of 1-2 neighbors
  8 = max # of 1-3 neighbors
  19 = max # of special neighbors
WARNING: Using 'neigh_modify every 1 delay 0 check yes' setting during minimization (../min.cpp:168)
Neighbor list info ...
  update every 1 steps, delay 0 steps, check yes
  max neighbors/atom: 2000, page size: 100000
  master list distance cutoff = 16
  ghost atom cutoff = 16
  binsize = 8, bins = 6 6 6
  3 neighbor lists, perpetual/occasional/extra = 3 0 0
  (1) pair buck6d/coul/gauss/dsf, perpetual, skip from (3)
      attributes: half, newton on
      pair build: skip
      stencil: none
      bin: none
  (2) pair lj/cut, perpetual, skip from (3)
      attributes: half, newton on
      pair build: skip
      stencil: none
      bin: none
  (3) neighbor class addition, perpetual
      attributes: half, newton on
      pair build: half/bin/newton
      stencil: half/bin/3d/newton
      bin: standard
Setting up cg style minimization ...
  Unit style    : real
  Current step  : 0
WARNING: Inconsistent image flags (../domain.cpp:786)
Per MPI rank memory allocation (min/avg/max) = 22.89 | 23.35 | 23.79 Mbytes
Step Temp E_pair E_mol TotEng Press 
       0            0   -11561.126    6482.8914   -5078.2342    6270.4034 
     508            0   -11582.693    3735.2051   -7847.4881   -474.95108 
Loop time of 2.66388 on 16 procs for 508 steps with 1744 atoms

99.9% CPU use with 16 MPI tasks x no OpenMP threads

Minimization stats:
  Stopping criterion = max force evaluations
  Energy initial, next-to-last, final = 
        -5078.23418155     -7847.47191029     -7847.48811469
  Force two-norm initial, final = 2576.88 5.77423
  Force max component initial, final = 151.983 0.992074
  Final line search alpha, max atom move = 0.0167471 0.0166143
  Iterations, force evaluations = 508 1001

MPI task timing breakdown:
Section |  min time  |  avg time  |  max time  |%varavg| %total
---------------------------------------------------------------
Pair    | 1.1985     | 1.5823     | 1.8864     |  17.4 | 59.40
Bond    | 0.3231     | 0.36035    | 0.42908    |   5.3 | 13.53
Neigh   | 0.014044   | 0.014114   | 0.014179   |   0.0 |  0.53
Comm    | 0.35832    | 0.66873    | 1.0441     |  26.2 | 25.10
Output  | 0          | 0          | 0          |   0.0 |  0.00
Modify  | 0          | 0          | 0          |   0.0 |  0.00
Other   |            | 0.03835    |            |       |  1.44

Nlocal:    109 ave 123 max 97 min
Histogram: 2 1 2 2 1 2 3 2 0 1
Nghost:    2203.75 ave 2215 max 2187 min
Histogram: 1 0 1 2 2 1 2 3 2 2
Neighs:    11438.6 ave 15083 max 7530 min
Histogram: 2 2 1 2 1 0 2 2 2 2

Total # of neighbors = 183018
Ave neighs/atom = 104.942
Ave special neighs/atom = 6.6055
Neighbor list builds = 12
Dangerous builds = 0
Neighbor list info ...
  update every 1 steps, delay 10 steps, check yes
  max neighbors/atom: 2000, page size: 100000
  master list distance cutoff = 16
  ghost atom cutoff = 16
  binsize = 8, bins = 6 6 6
  3 neighbor lists, perpetual/occasional/extra = 3 0 0
  (1) pair buck6d/coul/gauss/dsf, perpetual, skip from (3)
      attributes: half, newton on
      pair build: skip
      stencil: none
      bin: none
  (2) pair lj/cut, perpetual, skip from (3)
      attributes: half, newton on
      pair build: skip
      stencil: none
      bin: none
  (3) neighbor class addition, perpetual
      attributes: half, newton on
      pair build: half/bin/newton
      stencil: half/bin/3d/newton
      bin: standard
Setting up Verlet run ...
  Unit style    : real
  Current step  : 508
  Time step     : 1
WARNING: Inconsistent image flags (../domain.cpp:786)
Per MPI rank memory allocation (min/avg/max) = 22.54 | 22.61 | 22.67 Mbytes
Step Temp PotEng TotEng Press Volume Lx Ly Lz 
     508           91   -7847.4881   -7374.6929   -263.06899     102002.7      46.7237      46.7237      46.7237 
    1000    77.217384   -7414.9365   -7013.7495   -711.05278     102002.7      46.7237      46.7237      46.7237 
    2000    88.480306    -7338.482    -6878.778   -550.72819     102002.7      46.7237      46.7237      46.7237 
    3000    89.719594   -7363.4695   -6897.3267   -851.62432     102002.7      46.7237      46.7237      46.7237 
    4000    91.630805    -7376.718   -6900.6454   -496.78947     102002.7      46.7237      46.7237      46.7237 
    5000    92.801136   -7360.7603   -6878.6072   -824.88248     102002.7      46.7237      46.7237      46.7237 
    6000    89.182292   -7353.1053    -6889.754   -937.86151     102002.7      46.7237      46.7237      46.7237 
    7000    89.873086   -7381.4962   -6914.5559   -452.90677     102002.7      46.7237      46.7237      46.7237 
    8000    91.518017   -7364.7897   -6889.3031   -402.33606     102002.7      46.7237      46.7237      46.7237 
    9000    90.606566   -7370.2252   -6899.4741   -543.83469     102002.7      46.7237      46.7237      46.7237 
   10000    90.952873   -7369.1386   -6896.5883   -627.95395     102002.7      46.7237      46.7237      46.7237 
   11000    91.788892   -7355.5209    -6878.627   -453.75371     102002.7      46.7237      46.7237      46.7237 
   12000    89.759777   -7356.7645    -6890.413   -838.57767     102002.7      46.7237      46.7237      46.7237 
   13000    88.472566   -7357.5198    -6897.856   -535.11203     102002.7      46.7237      46.7237      46.7237 
   14000    92.513461   -7367.1994   -6886.5409   -676.65443     102002.7      46.7237      46.7237      46.7237 
   15000    90.255445    -7360.171   -6891.2442   -526.15335     102002.7      46.7237      46.7237      46.7237 
   16000    90.502931   -7365.8724   -6895.6598   -699.37486     102002.7      46.7237      46.7237      46.7237 
   17000    91.187085   -7353.0235   -6879.2563    -527.7829     102002.7      46.7237      46.7237      46.7237 
   18000    90.176825   -7374.1999   -6905.6815   -367.65467     102002.7      46.7237      46.7237      46.7237 
   19000    92.232289   -7371.6288   -6892.4311   -462.75497     102002.7      46.7237      46.7237      46.7237 
   20000    87.040207   -7362.3333   -6910.1114   -669.76335     102002.7      46.7237      46.7237      46.7237 
   21000     89.89494   -7375.5079   -6908.4541   -449.43338     102002.7      46.7237      46.7237      46.7237 
   22000    89.582976   -7382.2857   -6916.8527   -633.17983     102002.7      46.7237      46.7237      46.7237 
   23000    91.208869    -7360.722   -6886.8416   -788.78337     102002.7      46.7237      46.7237      46.7237 
   24000     90.24558   -7366.5669   -6897.6913   -711.08036     102002.7      46.7237      46.7237      46.7237 
   25000    94.751241   -7355.0536   -6862.7686   -752.16271     102002.7      46.7237      46.7237      46.7237 
   26000    88.075863   -7362.4256   -6904.8229   -606.70135     102002.7      46.7237      46.7237      46.7237 
   27000    91.693092   -7360.4938   -6884.0976   -851.41363     102002.7      46.7237      46.7237      46.7237 
   28000    89.072434   -7381.5223   -6918.7418   -645.73651     102002.7      46.7237      46.7237      46.7237 
   29000    89.521493   -7364.9764   -6899.8628   -721.88076     102002.7      46.7237      46.7237      46.7237 
   30000    91.770853   -7360.5655   -6883.7652   -473.53685     102002.7      46.7237      46.7237      46.7237 
   31000       93.062   -7358.8544   -6875.3459   -593.40623     102002.7      46.7237      46.7237      46.7237 
   32000    90.919805   -7368.7685   -6896.3899   -427.46251     102002.7      46.7237      46.7237      46.7237 
   33000    91.332623   -7358.0947   -6883.5713   -744.04898     102002.7      46.7237      46.7237      46.7237 
   34000    88.194856   -7371.0157   -6912.7948   -552.91085     102002.7      46.7237      46.7237      46.7237 
   35000    91.210431   -7362.7535    -6888.865   -854.15564     102002.7      46.7237      46.7237      46.7237 
   36000    86.946662   -7368.3328   -6916.5969   -900.19494     102002.7      46.7237      46.7237      46.7237 
   37000    89.511979   -7369.0503   -6903.9861   -648.82752     102002.7      46.7237      46.7237      46.7237 
   38000    92.819191   -7357.2584   -6875.0114   -767.71917     102002.7      46.7237      46.7237      46.7237 
   39000    90.341819   -7377.0406    -6907.665   -497.04169     102002.7      46.7237      46.7237      46.7237 
   40000    90.561069   -7354.6665   -6884.1518    -777.1743     102002.7      46.7237      46.7237      46.7237 
   41000    91.983562   -7375.8846   -6897.9792   -526.45302     102002.7      46.7237      46.7237      46.7237 
   42000     93.47685   -7376.4699   -6890.8061   -959.07752     102002.7      46.7237      46.7237      46.7237 
   43000    90.266948   -7359.4019   -6890.4153     -677.067     102002.7      46.7237      46.7237      46.7237 
   44000    91.959244   -7376.2549   -6898.4758   -727.76872     102002.7      46.7237      46.7237      46.7237 
   45000    92.120569   -7352.8635   -6874.2463   -803.43531     102002.7      46.7237      46.7237      46.7237 
   46000    91.165822   -7369.6106   -6895.9539   -547.52546     102002.7      46.7237      46.7237      46.7237 
   47000    89.582795   -7366.8803   -6901.4482   -971.77187     102002.7      46.7237      46.7237      46.7237 
   48000    94.132859   -7372.1511   -6883.0789   -708.77462     102002.7      46.7237      46.7237      46.7237 
   49000    91.617394   -7376.0201   -6900.0172   -739.73434     102002.7      46.7237      46.7237      46.7237 
   50000    89.047896   -7372.1559   -6909.5029   -668.62738     102002.7      46.7237      46.7237      46.7237 
   51000    89.892424   -7376.7792   -6909.7385   -554.71947     102002.7      46.7237      46.7237      46.7237 
   52000     92.23715        -7364   -6884.7771   -681.48619     102002.7      46.7237      46.7237      46.7237 
   53000    90.905157   -7379.3561   -6907.0536   -766.76783     102002.7      46.7237      46.7237      46.7237 
   54000    92.156311   -7342.9564   -6864.1535   -879.95251     102002.7      46.7237      46.7237      46.7237 
   55000    90.674753    -7366.343   -6895.2376   -516.07502     102002.7      46.7237      46.7237      46.7237 
   56000    91.506757   -7382.1939   -6906.7658   -603.65957     102002.7      46.7237      46.7237      46.7237 
   57000    91.182355   -7367.6837    -6893.941   -707.30146     102002.7      46.7237      46.7237      46.7237 
   58000    93.534009   -7364.0155   -6878.0547   -728.16235     102002.7      46.7237      46.7237      46.7237 
   59000    92.403953   -7367.8802   -6887.7906   -651.84719     102002.7      46.7237      46.7237      46.7237 
   60000    91.489803   -7382.1756   -6906.8356   -1025.4715     102002.7      46.7237      46.7237      46.7237 
   61000    94.075398   -7366.6145   -6877.8409   -750.21256     102002.7      46.7237      46.7237      46.7237 
   62000    92.151092   -7374.7322   -6895.9565   -743.59398     102002.7      46.7237      46.7237      46.7237 
   63000    90.875653   -7355.8487   -6883.6996   -824.68907     102002.7      46.7237      46.7237      46.7237 
   64000    93.273649   -7385.2195   -6900.6114   -581.87361     102002.7      46.7237      46.7237      46.7237 
   65000    92.049528   -7350.4453   -6872.1972   -939.09853     102002.7      46.7237      46.7237      46.7237 
   66000    90.463828    -7367.927   -6897.9175   -895.94284     102002.7      46.7237      46.7237      46.7237 
   67000    92.345763   -7346.4597   -6866.6725   -576.75603     102002.7      46.7237      46.7237      46.7237 
   68000    90.828266   -7356.9614   -6885.0585   -740.23197     102002.7      46.7237      46.7237      46.7237 
   69000    87.876906   -7386.7193   -6930.1503   -616.53896     102002.7      46.7237      46.7237      46.7237 
   70000    91.608485   -7358.2724   -6882.3158    -620.4011     102002.7      46.7237      46.7237      46.7237 
   71000    92.138816   -7361.8737   -6883.1617   -711.45947     102002.7      46.7237      46.7237      46.7237 
   72000    91.393708   -7365.5781   -6890.7373   -892.98705     102002.7      46.7237      46.7237      46.7237 
   73000    89.552481   -7382.5975   -6917.3229   -704.51429     102002.7      46.7237      46.7237      46.7237 
   74000    89.925835   -7355.6217   -6888.4074    -729.3929     102002.7      46.7237      46.7237      46.7237 
   75000    90.127331   -7367.8684   -6899.6072   -587.77208     102002.7      46.7237      46.7237      46.7237 
   76000    90.254328   -7368.3482   -6899.4271   -615.33633     102002.7      46.7237      46.7237      46.7237 
   77000      90.8107    -7375.885   -6904.0733   -735.45798     102002.7      46.7237      46.7237      46.7237 
   78000    90.329068   -7364.7142   -6895.4049   -589.86915     102002.7      46.7237      46.7237      46.7237 
   79000    91.169615   -7360.7288   -6887.0523   -722.04707     102002.7      46.7237      46.7237      46.7237 
   80000     88.67024   -7368.0473   -6907.3565   -618.82282     102002.7      46.7237      46.7237      46.7237 
   81000    88.430793   -7358.1901   -6898.7433   -594.42512     102002.7      46.7237      46.7237      46.7237 
   82000    90.092124   -7354.7586   -6886.6803    -949.6348     102002.7      46.7237      46.7237      46.7237 
   83000    89.830418   -7371.1428   -6904.4242   -622.10102     102002.7      46.7237      46.7237      46.7237 
   84000    93.376644   -7366.8192    -6881.676   -603.85001     102002.7      46.7237      46.7237      46.7237 
   85000    91.497392   -7375.9949   -6900.6154    -789.0162     102002.7      46.7237      46.7237      46.7237 
   86000     93.75013   -7358.6432   -6871.5595   -530.75991     102002.7      46.7237      46.7237      46.7237 
   87000    91.451684   -7373.3039   -6898.1619   -704.90849     102002.7      46.7237      46.7237      46.7237 
   88000    89.628717   -7381.6469   -6915.9763   -758.38394     102002.7      46.7237      46.7237      46.7237 
   89000     92.67928   -7371.9203   -6890.4003   -388.56503     102002.7      46.7237      46.7237      46.7237 
   90000    91.508398    -7370.233   -6894.7964   -678.98212     102002.7      46.7237      46.7237      46.7237 
   91000    94.390783   -7339.8556   -6849.4434   -775.06093     102002.7      46.7237      46.7237      46.7237 
   92000    91.576112    -7378.139   -6902.3506   -870.62798     102002.7      46.7237      46.7237      46.7237 
   93000    88.334211   -7364.9547   -6906.0097   -975.00472     102002.7      46.7237      46.7237      46.7237 
   94000    94.080083   -7382.2287   -6893.4308   -893.77244     102002.7      46.7237      46.7237      46.7237 
   95000    88.825904   -7351.8716    -6890.372   -815.88541     102002.7      46.7237      46.7237      46.7237 
   96000    91.342308   -7362.9982   -6888.4245    -652.5501     102002.7      46.7237      46.7237      46.7237 
   97000     88.78699   -7362.3529   -6901.0554   -910.30721     102002.7      46.7237      46.7237      46.7237 
   98000    90.533592   -7351.5298   -6881.1578   -667.31444     102002.7      46.7237      46.7237      46.7237 
   99000    88.610148   -7364.8122   -6904.4335    -715.5605     102002.7      46.7237      46.7237      46.7237 
  100000    94.168593   -7351.9324   -6862.6746    -616.2046     102002.7      46.7237      46.7237      46.7237 
  101000    90.883955    -7367.137   -6894.9447   -918.47139     102002.7      46.7237      46.7237      46.7237 
  102000    89.988752     -7357.58   -6890.0387   -963.93895     102002.7      46.7237      46.7237      46.7237 
  103000    88.151423   -7360.9575   -6902.9622   -562.45903     102002.7      46.7237      46.7237      46.7237 
  104000    89.735737   -7362.6448   -6896.4181   -764.49146     102002.7      46.7237      46.7237      46.7237 
  105000    90.376645    -7363.519   -6893.9624   -946.09837     102002.7      46.7237      46.7237      46.7237 
  106000    88.353309   -7372.8966   -6913.8524   -996.66017     102002.7      46.7237      46.7237      46.7237 
  107000    92.605733   -7371.9111   -6890.7732   -666.14507     102002.7      46.7237      46.7237      46.7237 
  108000    90.033339    -7376.808   -6909.0351   -905.93076     102002.7      46.7237      46.7237      46.7237 
  109000    90.133694   -7357.8043     -6889.51   -809.35319     102002.7      46.7237      46.7237      46.7237 
  110000    90.763523   -7368.0978   -6896.5312   -530.53756     102002.7      46.7237      46.7237      46.7237 
  111000    89.226887   -7364.2446   -6900.6616   -496.27594     102002.7      46.7237      46.7237      46.7237 
  112000    91.829142   -7359.4697   -6882.3667   -601.16815     102002.7      46.7237      46.7237      46.7237 
  113000    88.359101   -7356.9187   -6897.8444   -591.82758     102002.7      46.7237      46.7237      46.7237 
  114000    95.199153   -7361.3755   -6866.7634   -458.64103     102002.7      46.7237      46.7237      46.7237 
  115000    87.694682   -7361.3477   -6905.7255   -594.92671     102002.7      46.7237      46.7237      46.7237 
  116000    91.000019   -7363.1597   -6890.3644    -445.4515     102002.7      46.7237      46.7237      46.7237 
  117000    92.983708   -7377.8653   -6894.7636   -591.22687     102002.7      46.7237      46.7237      46.7237 
  118000    90.332095   -7368.6774   -6899.3523   -514.44427     102002.7      46.7237      46.7237      46.7237 
  119000    92.581461   -7363.3258    -6882.314   -314.86522     102002.7      46.7237      46.7237      46.7237 
  120000    91.997194   -7381.2757   -6903.2996   -826.07644     102002.7      46.7237      46.7237      46.7237 
  121000    90.353735   -7345.8024   -6876.3649   -904.35732     102002.7      46.7237      46.7237      46.7237 
  122000     88.71399   -7360.3112    -6899.393   -770.89571     102002.7      46.7237      46.7237      46.7237 
  123000    91.437513   -7355.9343    -6880.866   -830.75763     102002.7      46.7237      46.7237      46.7237 
  124000    90.168246   -7378.6538     -6910.18   -801.17535     102002.7      46.7237      46.7237      46.7237 
  125000    93.934163   -7370.8466   -6882.8068   -893.90364     102002.7      46.7237      46.7237      46.7237 
  126000    91.102493   -7382.0448   -6908.7171   -870.23401     102002.7      46.7237      46.7237      46.7237 
  127000     91.36343   -7359.0399   -6884.3565   -581.33237     102002.7      46.7237      46.7237      46.7237 
  128000     90.70105   -7366.8794   -6895.6374   -654.62876     102002.7      46.7237      46.7237      46.7237 
  129000    92.329264   -7345.4779   -6865.7764   -862.30817     102002.7      46.7237      46.7237      46.7237 
  130000    91.921828   -7365.0554   -6887.4708   -891.50966     102002.7      46.7237      46.7237      46.7237 
  131000    92.876111   -7363.6901   -6881.1474   -861.83587     102002.7      46.7237      46.7237      46.7237 
  132000    89.912862   -7363.2081   -6896.0612   -465.99983     102002.7      46.7237      46.7237      46.7237 
  133000    91.023503   -7368.0963    -6895.179   -536.62482     102002.7      46.7237      46.7237      46.7237 
  134000    90.646798   -7361.6659   -6890.7057   -458.78205     102002.7      46.7237      46.7237      46.7237 
  135000    88.751702    -7376.025   -6914.9109   -461.29331     102002.7      46.7237      46.7237      46.7237 
  136000    91.233063   -7356.2767   -6882.2706   -936.46934     102002.7      46.7237      46.7237      46.7237 
  137000    90.218028   -7371.5937   -6902.8613   -725.84773     102002.7      46.7237      46.7237      46.7237 
  138000    92.182768   -7374.8278   -6895.8874   -677.19955     102002.7      46.7237      46.7237      46.7237 
  139000    91.390897   -7360.7654   -6885.9393   -502.74479     102002.7      46.7237      46.7237      46.7237 
  140000     92.35553    -7376.895   -6897.0571   -521.75686     102002.7      46.7237      46.7237      46.7237 
  141000    90.915225   -7357.3651   -6885.0104   -636.68169     102002.7      46.7237      46.7237      46.7237 
  142000    92.781133   -7370.3632    -6888.314   -568.62188     102002.7      46.7237      46.7237      46.7237 
  143000    90.588519   -7363.9628   -6893.3054   -752.58476     102002.7      46.7237      46.7237      46.7237 
  144000     92.43244   -7374.8011   -6894.5636   -598.84313     102002.7      46.7237      46.7237      46.7237 
  145000    91.770724   -7352.1275   -6875.3279   -604.88276     102002.7      46.7237      46.7237      46.7237 
  146000    92.507931   -7385.1605   -6904.5308   -564.71224     102002.7      46.7237      46.7237      46.7237 
  147000    90.468283   -7381.7619   -6911.7293   -639.43066     102002.7      46.7237      46.7237      46.7237 
  148000    89.919531   -7344.3129   -6877.1313   -618.19707     102002.7      46.7237      46.7237      46.7237 
  149000    89.777734   -7371.5334   -6905.0885   -633.55127     102002.7      46.7237      46.7237      46.7237 
  150000    91.858123   -7360.8262   -6883.5725   -637.64102     102002.7      46.7237      46.7237      46.7237 
  151000    91.077167    -7355.883   -6882.6869   -469.52348     102002.7      46.7237      46.7237      46.7237 
  152000    89.192506   -7372.9844   -6909.5801    -749.3862     102002.7      46.7237      46.7237      46.7237 
  153000    93.305216   -7374.2644   -6889.4923   -671.67118     102002.7      46.7237      46.7237      46.7237 
  154000    88.854479   -7360.7986   -6899.1505   -905.23408     102002.7      46.7237      46.7237      46.7237 
  155000    95.436344   -7361.7576   -6865.9131   -736.41096     102002.7      46.7237      46.7237      46.7237 
  156000    90.143033    -7360.493   -6892.1502   -772.78003     102002.7      46.7237      46.7237      46.7237 
  157000    88.194986    -7365.478   -6907.2564   -820.30666     102002.7      46.7237      46.7237      46.7237 
  158000     90.55075   -7378.3515   -6907.8903   -541.00027     102002.7      46.7237      46.7237      46.7237 
  159000    90.600525    -7362.044   -6891.3243   -839.94037     102002.7      46.7237      46.7237      46.7237 
  160000    88.446248   -7375.7203   -6916.1932   -862.94864     102002.7      46.7237      46.7237      46.7237 
  161000    89.031311   -7365.0552   -6902.4884    -703.3083     102002.7      46.7237      46.7237      46.7237 
  162000    90.443888   -7353.7422   -6883.8363   -843.08152     102002.7      46.7237      46.7237      46.7237 
  163000    94.958461   -7367.9307   -6874.5691   -719.81353     102002.7      46.7237      46.7237      46.7237 
  164000    90.728374   -7371.1116   -6899.7276   -706.71364     102002.7      46.7237      46.7237      46.7237 
  165000    90.908619   -7356.2374    -6883.917   -717.46137     102002.7      46.7237      46.7237      46.7237 
  166000    93.544038   -7362.2134   -6876.2005   -640.66465     102002.7      46.7237      46.7237      46.7237 
  167000    90.343972   -7372.6816   -6903.2949   -1002.0113     102002.7      46.7237      46.7237      46.7237 
  168000    90.788119   -7379.1078   -6907.4134   -667.16216     102002.7      46.7237      46.7237      46.7237 
  169000    92.667463    -7368.591   -6887.1324    -672.6397     102002.7      46.7237      46.7237      46.7237 
  170000    94.674469   -7365.6255   -6873.7394   -796.49697     102002.7      46.7237      46.7237      46.7237 
  171000    88.522397   -7367.5563   -6907.6336   -819.26451     102002.7      46.7237      46.7237      46.7237 
  172000    91.086953   -7363.6323   -6890.3853   -712.86298     102002.7      46.7237      46.7237      46.7237 
  173000    90.851672   -7362.1548   -6890.1302   -821.65406     102002.7      46.7237      46.7237      46.7237 
  174000     91.57669   -7360.8294    -6885.038   -711.30845     102002.7      46.7237      46.7237      46.7237 
  175000    91.485708   -7378.3807   -6903.0619   -719.83953     102002.7      46.7237      46.7237      46.7237 
  176000    91.405916   -7383.6447   -6908.7405   -612.16757     102002.7      46.7237      46.7237      46.7237 
  177000    88.198449    -7373.546   -6915.3064   -599.17827     102002.7      46.7237      46.7237      46.7237 
  178000    92.619489   -7371.3861   -6890.1767   -810.98011     102002.7      46.7237      46.7237      46.7237 
  179000    87.570816   -7383.6307    -6928.652   -503.29377     102002.7      46.7237      46.7237      46.7237 
  180000    92.303962   -7369.8815   -6890.3115   -734.95415     102002.7      46.7237      46.7237      46.7237 
  181000    88.109605    -7368.464   -6910.6859   -741.60032     102002.7      46.7237      46.7237      46.7237 
  182000    89.498386   -7359.6833   -6894.6898   -680.50922     102002.7      46.7237      46.7237      46.7237 
  183000    90.502882    -7370.604   -6900.3915   -712.18578     102002.7      46.7237      46.7237      46.7237 
  184000    92.867898   -7351.4969    -6868.997   -731.94735     102002.7      46.7237      46.7237      46.7237 
  185000    91.376177   -7360.2867    -6885.537   -581.88155     102002.7      46.7237      46.7237      46.7237 
  186000    90.326893   -7368.5372   -6899.2391   -823.60096     102002.7      46.7237      46.7237      46.7237 
  187000    90.886609   -7379.8584   -6907.6523   -850.69599     102002.7      46.7237      46.7237      46.7237 
  188000    90.926913   -7370.7067   -6898.2912   -623.17202     102002.7      46.7237      46.7237      46.7237 
  189000    90.082236   -7355.7959    -6887.769   -915.33518     102002.7      46.7237      46.7237      46.7237 
  190000    91.746086   -7377.5402   -6900.8687   -801.14249     102002.7      46.7237      46.7237      46.7237 
  191000    91.451573   -7354.9224    -6879.781   -532.10523     102002.7      46.7237      46.7237      46.7237 
  192000    92.913814   -7374.8731   -6892.1345   -923.65254     102002.7      46.7237      46.7237      46.7237 
  193000    89.755517   -7373.0265   -6906.6971   -796.97512     102002.7      46.7237      46.7237      46.7237 
  194000      92.5322    -7399.147   -6918.3911   -581.42073     102002.7      46.7237      46.7237      46.7237 
  195000    91.141559   -7365.8752   -6892.3445   -911.53978     102002.7      46.7237      46.7237      46.7237 
  196000    92.289612   -7352.7511   -6873.2556   -724.84875     102002.7      46.7237      46.7237      46.7237 
  197000    92.082539   -7365.1474   -6886.7278   -897.45103     102002.7      46.7237      46.7237      46.7237 
  198000    88.387109   -7366.1387   -6906.9189   -557.59335     102002.7      46.7237      46.7237      46.7237 
  199000    93.221768   -7356.4718   -6872.1333   -726.60363     102002.7      46.7237      46.7237      46.7237 
  200000    92.520906   -7376.1739   -6895.4767   -780.45113     102002.7      46.7237      46.7237      46.7237 
  201000    91.099707   -7358.6985   -6885.3853   -659.92337     102002.7      46.7237      46.7237      46.7237 
  202000    92.616026    -7369.221   -6888.0297   -701.09032     102002.7      46.7237      46.7237      46.7237 
  203000    91.392388   -7364.1986   -6889.3647   -824.22519     102002.7      46.7237      46.7237      46.7237 
  204000    91.220641   -7367.0688   -6893.1272   -966.07097     102002.7      46.7237      46.7237      46.7237 
  205000    89.309607   -7367.8409   -6903.8282   -762.42844     102002.7      46.7237      46.7237      46.7237 
  206000    92.031917   -7363.3968   -6885.2402   -838.65151     102002.7      46.7237      46.7237      46.7237 
  207000    91.841201   -7354.0421   -6876.8764   -692.70585     102002.7      46.7237      46.7237      46.7237 
  208000    90.425116   -7368.5702   -6898.7618   -730.39891     102002.7      46.7237      46.7237      46.7237 
  209000    90.101938    -7370.328   -6902.1987   -912.64347     102002.7      46.7237      46.7237      46.7237 
  210000    89.926555   -7362.8511    -6895.633   -659.55644     102002.7      46.7237      46.7237      46.7237 
  211000    92.635899   -7350.6943   -6869.3997   -702.65251     102002.7      46.7237      46.7237      46.7237 
  212000    88.180973   -7362.6859    -6904.537   -604.14272     102002.7      46.7237      46.7237      46.7237 
  213000    91.335517   -7353.8062   -6879.2678   -427.01216     102002.7      46.7237      46.7237      46.7237 
  214000    91.397195   -7358.2317   -6883.3729   -719.99531     102002.7      46.7237      46.7237      46.7237 
  215000    89.685736   -7380.3484   -6914.3815   -487.25386     102002.7      46.7237      46.7237      46.7237 
  216000    91.133418   -7356.9527   -6883.4643   -620.30205     102002.7      46.7237      46.7237      46.7237 
  217000    90.981488   -7373.2655   -6900.5664   -613.52492     102002.7      46.7237      46.7237      46.7237 
  218000    93.795621   -7375.1708   -6887.8508   -521.57628     102002.7      46.7237      46.7237      46.7237 
  219000    92.197369   -7367.6451   -6888.6289   -506.02594     102002.7      46.7237      46.7237      46.7237 
  220000    88.640374   -7370.5813   -6910.0456   -530.52177     102002.7      46.7237      46.7237      46.7237 
  221000    91.898498   -7365.7009   -6888.2375   -576.80724     102002.7      46.7237      46.7237      46.7237 
  222000    90.481208   -7370.3821   -6900.2822   -536.24082     102002.7      46.7237      46.7237      46.7237 
  223000    92.537638   -7359.5428   -6878.7587   -642.99015     102002.7      46.7237      46.7237      46.7237 
  224000    88.559994    -7366.423    -6906.305   -812.09372     102002.7      46.7237      46.7237      46.7237 
  225000    93.525384   -7352.9037   -6866.9877   -898.90386     102002.7      46.7237      46.7237      46.7237 
  226000    92.838587   -7366.9291   -6884.5814   -575.63574     102002.7      46.7237      46.7237      46.7237 
  227000    87.904577   -7366.6953   -6909.9825   -777.71931     102002.7      46.7237      46.7237      46.7237 
  228000    88.681964   -7359.2918   -6898.5401    -681.1986     102002.7      46.7237      46.7237      46.7237 
  229000    95.114661   -7378.5787   -6884.4055   -570.09131     102002.7      46.7237      46.7237      46.7237 
  230000    88.051162   -7378.4886   -6921.0143   -561.27293     102002.7      46.7237      46.7237      46.7237 
  231000    91.782678   -7363.8012   -6886.9395    -615.0115     102002.7      46.7237      46.7237      46.7237 
  232000    92.903535   -7363.4007   -6880.7156   -469.55672     102002.7      46.7237      46.7237      46.7237 
  233000    90.556726   -7361.3609   -6890.8687   -552.84991     102002.7      46.7237      46.7237      46.7237 
  234000    90.504959   -7371.4146   -6901.1913   -503.83337     102002.7      46.7237      46.7237      46.7237 
  235000    93.091894   -7376.7053   -6893.0415   -382.78298     102002.7      46.7237      46.7237      46.7237 
  236000    88.105345   -7370.4483   -6912.6924   -836.36926     102002.7      46.7237      46.7237      46.7237 
  237000     90.19005   -7370.5741    -6901.987   -548.72648     102002.7      46.7237      46.7237      46.7237 
  238000    95.627131   -7365.0658   -6868.2301   -610.48983     102002.7      46.7237      46.7237      46.7237 
  239000    90.720232   -7355.0135   -6883.6718   -484.95072     102002.7      46.7237      46.7237      46.7237 
  240000    89.693885    -7369.394   -6903.3848   -572.12997     102002.7      46.7237      46.7237      46.7237 
  241000    91.138687   -7332.4355   -6858.9197   -604.10588     102002.7      46.7237      46.7237      46.7237 
  242000     91.24048   -7370.3688   -6896.3241   -695.97444     102002.7      46.7237      46.7237      46.7237 
  243000    91.477592   -7358.9218   -6883.6452   -805.28591     102002.7      46.7237      46.7237      46.7237 
  244000    90.159775   -7363.5063   -6895.0765   -807.67712     102002.7      46.7237      46.7237      46.7237 
  245000    90.076589   -7382.3387   -6914.3411   -725.95981     102002.7      46.7237      46.7237      46.7237 
  246000    88.632874    -7359.212   -6898.7153   -756.25279     102002.7      46.7237      46.7237      46.7237 
  247000    90.055431   -7358.0708   -6890.1832   -832.47094     102002.7      46.7237      46.7237      46.7237 
  248000    92.450023   -7370.6482   -6890.3193   -576.62432     102002.7      46.7237      46.7237      46.7237 
  249000    90.142331   -7367.6662   -6899.3271    -869.7173     102002.7      46.7237      46.7237      46.7237 
  250000    92.558335   -7366.2239   -6885.3322   -509.39528     102002.7      46.7237      46.7237      46.7237 
  251000    89.649552   -7361.0408   -6895.2619   -733.70152     102002.7      46.7237      46.7237      46.7237 
  252000    91.872318   -7371.6387   -6894.3113   -625.03055     102002.7      46.7237      46.7237      46.7237 
  253000    94.556758   -7358.4224   -6867.1479   -566.63405     102002.7      46.7237      46.7237      46.7237 
  254000    89.923502    -7372.566   -6905.3638   -829.33834     102002.7      46.7237      46.7237      46.7237 
  255000    94.851141   -7370.7861   -6877.9821   -648.16712     102002.7      46.7237      46.7237      46.7237 
  256000     90.62978   -7372.3993   -6901.5276   -574.97044     102002.7      46.7237      46.7237      46.7237 
  257000    91.319577   -7360.3406    -6885.885   -356.63362     102002.7      46.7237      46.7237      46.7237 
  258000    89.349958   -7373.5686   -6909.3462   -528.62855     102002.7      46.7237      46.7237      46.7237 
  259000    88.844528   -7366.4825   -6904.8861   -648.02304     102002.7      46.7237      46.7237      46.7237 
  260000    92.547682   -7363.6806   -6882.8443    -450.8899     102002.7      46.7237      46.7237      46.7237 
  261000    88.755431   -7372.2119   -6911.0784   -810.00712     102002.7      46.7237      46.7237      46.7237 
  262000    90.752747   -7356.6595   -6885.1488   -699.38827     102002.7      46.7237      46.7237      46.7237 
  263000    88.287702   -7371.3404   -6912.6371   -789.96135     102002.7      46.7237      46.7237      46.7237 
  264000    90.864595   -7366.4872   -6894.3955   -566.09244     102002.7      46.7237      46.7237      46.7237 
  265000    89.596421    -7375.606   -6910.1032   -808.64063     102002.7      46.7237      46.7237      46.7237 
  266000    92.186947   -7357.0162   -6878.0541   -792.11707     102002.7      46.7237      46.7237      46.7237 
  267000    89.807006   -7366.5435   -6899.9466     -502.556     102002.7      46.7237      46.7237      46.7237 
  268000    93.795405   -7383.7827   -6896.4638   -586.27038     102002.7      46.7237      46.7237      46.7237 
  269000    91.793216   -7367.2285    -6890.312   -783.87302     102002.7      46.7237      46.7237      46.7237 
  270000    90.383215   -7356.9461   -6887.3554   -954.14529     102002.7      46.7237      46.7237      46.7237 
  271000     90.49386   -7373.6063   -6903.4408   -758.91154     102002.7      46.7237      46.7237      46.7237 
  272000    92.113166   -7385.4739   -6906.8952   -689.43421     102002.7      46.7237      46.7237      46.7237 
  273000    92.799036   -7360.4404   -6878.2981    -370.3637     102002.7      46.7237      46.7237      46.7237 
  274000     90.84882   -7379.9721   -6907.9623   -611.07061     102002.7      46.7237      46.7237      46.7237 
  275000    93.230466   -7350.8844   -6866.5007   -400.48395     102002.7      46.7237      46.7237      46.7237 
  276000    89.511595   -7365.7073   -6900.6452   -637.09626     102002.7      46.7237      46.7237      46.7237 
  277000     92.28475   -7353.5444   -6874.0742   -650.41159     102002.7      46.7237      46.7237      46.7237 
  278000    91.616724   -7362.0119   -6886.0125   -490.39873     102002.7      46.7237      46.7237      46.7237 
  279000    89.554929   -7370.9365   -6905.6492   -676.35394     102002.7      46.7237      46.7237      46.7237 
  280000    95.134468    -7364.721    -6870.445   -613.86688     102002.7      46.7237      46.7237      46.7237 
  281000    90.565626   -7366.4595    -6895.921   -810.78554     102002.7      46.7237      46.7237      46.7237 
  282000    86.607135   -7366.4372   -6916.4653    -716.0477     102002.7      46.7237      46.7237      46.7237 
  283000    91.549827   -7370.8845   -6895.2326   -621.13898     102002.7      46.7237      46.7237      46.7237 
  284000    92.127393    -7348.451   -6869.7983   -670.79787     102002.7      46.7237      46.7237      46.7237 
  285000    88.401165   -7357.5857   -6898.2929   -598.20087     102002.7      46.7237      46.7237      46.7237 
  286000    91.559167   -7348.0954    -6872.395   -753.38894     102002.7      46.7237      46.7237      46.7237 
  287000    90.776462   -7365.0872   -6893.4534   -590.73829     102002.7      46.7237      46.7237      46.7237 
  288000     90.76226   -7367.6888   -6896.1288   -649.29276     102002.7      46.7237      46.7237      46.7237 
  289000    91.062142   -7376.4063   -6903.2882   -693.69559     102002.7      46.7237      46.7237      46.7237 
  290000    92.133039   -7367.6859   -6889.0039   -739.55371     102002.7      46.7237      46.7237      46.7237 
  291000    93.305698   -7366.3181   -6881.5435   -673.47453     102002.7      46.7237      46.7237      46.7237 
  292000    91.887874   -7365.3417   -6887.9335   -349.03753     102002.7      46.7237      46.7237      46.7237 
  293000    89.202284    -7369.442    -6905.987   -645.64302     102002.7      46.7237      46.7237      46.7237 
  294000    91.566684   -7380.2225    -6904.483   -731.19711     102002.7      46.7237      46.7237      46.7237 
  295000    92.836409    -7362.693   -6880.3567    -272.1825     102002.7      46.7237      46.7237      46.7237 
  296000    93.564035   -7361.7998    -6875.683   -654.40756     102002.7      46.7237      46.7237      46.7237 
  297000    90.052039   -7373.9539   -6906.0839   -449.61296     102002.7      46.7237      46.7237      46.7237 
  298000    91.856293   -7356.6568   -6879.4127   -426.29338     102002.7      46.7237      46.7237      46.7237 
  299000    90.045418   -7370.5556     -6902.72   -624.57184     102002.7      46.7237      46.7237      46.7237 
  300000    91.652431    -7369.966   -6893.7811   -422.50586     102002.7      46.7237      46.7237      46.7237 
  301000    92.682384   -7373.1824   -6891.6463   -733.40058     102002.7      46.7237      46.7237      46.7237 
  302000    91.697772   -7379.0003   -6902.5797   -670.79427     102002.7      46.7237      46.7237      46.7237 
  303000    91.200822   -7363.0593   -6889.2207   -546.82694     102002.7      46.7237      46.7237      46.7237 
  304000    90.013253   -7391.2168   -6923.5483   -242.98717     102002.7      46.7237      46.7237      46.7237 
  305000     92.04806   -7365.1037   -6886.8632   -464.58106     102002.7      46.7237      46.7237      46.7237 
  306000    91.416542   -7378.3201   -6903.3607   -543.77984     102002.7      46.7237      46.7237      46.7237 
  307000    94.443063   -7336.0448    -6845.361     -565.135     102002.7      46.7237      46.7237      46.7237 
  308000    90.468183    -7377.892   -6907.8598   -519.64225     102002.7      46.7237      46.7237      46.7237 
  309000    92.433648   -7368.5418    -6888.298   -733.46091     102002.7      46.7237      46.7237      46.7237 
  310000    92.162309    -7364.406    -6885.572   -499.54257     102002.7      46.7237      46.7237      46.7237 
  311000    92.787811   -7387.3041   -6905.2202   -428.73587     102002.7      46.7237      46.7237      46.7237 
  312000    87.425964   -7355.8658   -6901.6396   -529.72662     102002.7      46.7237      46.7237      46.7237 
  313000    88.841986   -7367.1915   -6905.6083   -831.13461     102002.7      46.7237      46.7237      46.7237 
  314000    94.027812   -7355.5042   -6866.9778   -796.82304     102002.7      46.7237      46.7237      46.7237 
  315000    93.003141   -7369.3607    -6886.158   -614.60173     102002.7      46.7237      46.7237      46.7237 
  316000    91.356411   -7388.4009   -6913.7539   -829.49303     102002.7      46.7237      46.7237      46.7237 
  317000    90.712379   -7365.0815   -6893.7806   -848.57837     102002.7      46.7237      46.7237      46.7237 
  318000    93.245193   -7356.1973    -6871.737   -891.82307     102002.7      46.7237      46.7237      46.7237 
  319000     91.38983   -7369.8907   -6895.0701   -707.74363     102002.7      46.7237      46.7237      46.7237 
  320000    91.902227   -7368.1033   -6890.6205   -867.64522     102002.7      46.7237      46.7237      46.7237 
  321000    90.299918   -7357.3054   -6888.1475    -773.3306     102002.7      46.7237      46.7237      46.7237 
  322000    89.800953     -7357.41   -6890.8445   -577.70135     102002.7      46.7237      46.7237      46.7237 
  323000    93.455784   -7373.8959   -6888.3415   -591.18841     102002.7      46.7237      46.7237      46.7237 
  324000    89.835274   -7375.4817   -6908.7378   -320.56695     102002.7      46.7237      46.7237      46.7237 
  325000    90.217686    -7369.174   -6900.4433   -533.66695     102002.7      46.7237      46.7237      46.7237 
  326000    89.300656    -7367.604   -6903.6378   -699.01958     102002.7      46.7237      46.7237      46.7237 
  327000    88.879433   -7367.0649   -6905.2872   -466.45785     102002.7      46.7237      46.7237      46.7237 
  328000    90.568064   -7356.3582   -6885.8071   -586.58432     102002.7      46.7237      46.7237      46.7237 
  329000    88.699881   -7389.4273   -6928.5825   -308.92531     102002.7      46.7237      46.7237      46.7237 
  330000    92.786166   -7360.5426   -6878.4673    -596.8682     102002.7      46.7237      46.7237      46.7237 
  331000    91.020064   -7376.2829   -6903.3834   -424.97137     102002.7      46.7237      46.7237      46.7237 
  332000    91.032559   -7355.1999   -6882.2355   -638.35015     102002.7      46.7237      46.7237      46.7237 
  333000    89.964263   -7375.8364   -6908.4224   -530.86623     102002.7      46.7237      46.7237      46.7237 
  334000    92.541362   -7372.6031   -6891.7997   -524.09047     102002.7      46.7237      46.7237      46.7237 
  335000    93.180664   -7354.6174   -6870.4924    -603.3054     102002.7      46.7237      46.7237      46.7237 
  336000    90.734129   -7358.6832   -6887.2693   -332.54549     102002.7      46.7237      46.7237      46.7237 
  337000    93.471095   -7363.7099    -6878.076   -657.58786     102002.7      46.7237      46.7237      46.7237 
  338000    91.428507   -7377.4783   -6902.4568   -874.29992     102002.7      46.7237      46.7237      46.7237 
  339000    93.358784   -7364.5896   -6879.5392   -885.01113     102002.7      46.7237      46.7237      46.7237 
  340000    91.522609    -7359.724   -6884.2135   -659.05118     102002.7      46.7237      46.7237      46.7237 
  341000    89.981041   -7374.5754   -6907.0742   -652.13202     102002.7      46.7237      46.7237      46.7237 
  342000    94.531804   -7384.3496   -6893.2047   -802.15225     102002.7      46.7237      46.7237      46.7237 
  343000    91.554992   -7373.7086   -6898.0298   -606.94636     102002.7      46.7237      46.7237      46.7237 
  344000    90.150726   -7377.6588    -6909.276   -762.91468     102002.7      46.7237      46.7237      46.7237 
  345000    90.530204   -7371.0687   -6900.7143    -614.1904     102002.7      46.7237      46.7237      46.7237 
  346000    92.876066   -7356.7891   -6874.2467   -560.19673     102002.7      46.7237      46.7237      46.7237 
  347000     92.46756   -7362.1556   -6881.7356   -540.28485     102002.7      46.7237      46.7237      46.7237 
  348000    88.733881   -7378.1534   -6917.1319   -789.09316     102002.7      46.7237      46.7237      46.7237 
  349000    92.204181   -7367.1225   -6888.0709   -493.10764     102002.7      46.7237      46.7237      46.7237 
  350000     88.09016   -7371.2635   -6913.5865   -421.12568     102002.7      46.7237      46.7237      46.7237 
  351000    92.253885   -7368.6414   -6889.3315   -578.80654     102002.7      46.7237      46.7237      46.7237 
  352000    91.795823   -7350.0923   -6873.1624   -457.38824     102002.7      46.7237      46.7237      46.7237 
  353000    90.159429    -7378.484    -6910.056   -587.79481     102002.7      46.7237      46.7237      46.7237 
  354000    92.770043   -7361.1977   -6879.2062   -573.78642     102002.7      46.7237      46.7237      46.7237 
  355000      90.6304   -7378.6484   -6907.7734    -681.0892     102002.7      46.7237      46.7237      46.7237 
  356000    92.543125   -7352.3115   -6871.4989   -890.37644     102002.7      46.7237      46.7237      46.7237 
  357000    90.231271   -7366.6329   -6897.8316    -539.6123     102002.7      46.7237      46.7237      46.7237 
  358000    91.596406   -7353.8852   -6877.9913    -849.3903     102002.7      46.7237      46.7237      46.7237 
  359000    88.597554   -7361.1689   -6900.8557   -738.80423     102002.7      46.7237      46.7237      46.7237 
  360000    90.093234     -7385.49   -6917.4059   -714.30077     102002.7      46.7237      46.7237      46.7237 
  361000    91.531915   -7362.0703   -6886.5115     -855.719     102002.7      46.7237      46.7237      46.7237 
  362000    91.343149   -7370.8829   -6896.3048   -638.76449     102002.7      46.7237      46.7237      46.7237 
  363000     91.76934   -7358.0564   -6881.2641   -826.61856     102002.7      46.7237      46.7237      46.7237 
  364000    89.086361    -7367.696   -6904.8432    -425.9373     102002.7      46.7237      46.7237      46.7237 
  365000    88.864532   -7355.8817   -6894.1814   -746.59317     102002.7      46.7237      46.7237      46.7237 
  366000    91.644328   -7367.2704   -6891.1276   -627.69798     102002.7      46.7237      46.7237      46.7237 
  367000    90.341022   -7362.6432   -6893.2717   -660.35479     102002.7      46.7237      46.7237      46.7237 
  368000    87.837508   -7372.5078   -6916.1435   -853.04461     102002.7      46.7237      46.7237      46.7237 
  369000    92.589145   -7364.7046   -6883.6529   -497.12043     102002.7      46.7237      46.7237      46.7237 
  370000    89.832514   -7365.1247   -6898.3952     -841.405     102002.7      46.7237      46.7237      46.7237 
  371000    88.373238   -7359.3221   -6900.1744   -721.58195     102002.7      46.7237      46.7237      46.7237 
  372000    90.878698   -7374.0245   -6901.8595   -578.97437     102002.7      46.7237      46.7237      46.7237 
  373000    92.153547   -7364.5545   -6885.7659   -748.90942     102002.7      46.7237      46.7237      46.7237 
  374000    87.563873   -7366.4379   -6911.4953   -594.68469     102002.7      46.7237      46.7237      46.7237 
  375000    88.982833    -7354.136    -6891.821   -865.80269     102002.7      46.7237      46.7237      46.7237 
  376000    90.647942   -7370.6353   -6899.6693   -656.88436     102002.7      46.7237      46.7237      46.7237 
  377000    90.161188   -7365.2262    -6896.789   -753.85574     102002.7      46.7237      46.7237      46.7237 
  378000    93.048801   -7355.9812   -6872.5413   -563.23749     102002.7      46.7237      46.7237      46.7237 
  379000    90.139154   -7367.4786   -6899.1559   -530.38709     102002.7      46.7237      46.7237      46.7237 
  380000    88.411785   -7372.9047   -6913.5567   -560.12329     102002.7      46.7237      46.7237      46.7237 
  381000    91.307605   -7359.5226   -6885.1292   -355.05676     102002.7      46.7237      46.7237      46.7237 
  382000    89.787363   -7375.5529    -6909.058   -728.33428     102002.7      46.7237      46.7237      46.7237 
  383000    89.866234   -7374.1364   -6907.2317   -452.62965     102002.7      46.7237      46.7237      46.7237 
  384000    91.633907   -7374.9645   -6898.8758    -665.4292     102002.7      46.7237      46.7237      46.7237 
  385000    90.497366   -7359.8694   -6889.6856   -610.02978     102002.7      46.7237      46.7237      46.7237 
  386000    91.911923    -7370.597   -6893.0638   -734.43522     102002.7      46.7237      46.7237      46.7237 
  387000    91.346896   -7367.6771   -6893.0795    -638.3697     102002.7      46.7237      46.7237      46.7237 
  388000     88.98588    -7390.571   -6928.2402   -551.97666     102002.7      46.7237      46.7237      46.7237 
  389000    92.713918   -7370.4977   -6888.7977   -488.55287     102002.7      46.7237      46.7237      46.7237 
  390000    91.356547   -7374.3118   -6899.6641   -528.04289     102002.7      46.7237      46.7237      46.7237 
  391000     89.27701   -7363.5074   -6899.6641   -602.18839     102002.7      46.7237      46.7237      46.7237 
  392000    92.487819   -7360.4525   -6879.9272   -625.51961     102002.7      46.7237      46.7237      46.7237 
  393000    91.699561    -7380.314   -6903.8842   -681.44761     102002.7      46.7237      46.7237      46.7237 
  394000    91.470434    -7357.893   -6882.6536   -619.86233     102002.7      46.7237      46.7237      46.7237 
  395000    90.206112   -7373.7866   -6905.1161   -499.43622     102002.7      46.7237      46.7237      46.7237 
  396000    90.497223   -7369.0994   -6898.9164   -512.89481     102002.7      46.7237      46.7237      46.7237 
  397000    91.929113   -7364.7057   -6887.0832   -326.31599     102002.7      46.7237      46.7237      46.7237 
  398000    91.029281   -7365.4677   -6892.5203   -609.48057     102002.7      46.7237      46.7237      46.7237 
  399000    92.962748     -7359.79   -6876.7972   -582.40528     102002.7      46.7237      46.7237      46.7237 
  400000    91.227299    -7358.858   -6884.8819    -600.5008     102002.7      46.7237      46.7237      46.7237 
  401000    89.851451   -7377.1921   -6910.3642   -622.46875     102002.7      46.7237      46.7237      46.7237 
  402000    90.453772   -7373.7926   -6903.8353   -496.76521     102002.7      46.7237      46.7237      46.7237 
  403000    88.761876   -7368.6303   -6907.4634   -550.53341     102002.7      46.7237      46.7237      46.7237 
  404000    91.622704   -7356.6118   -6880.5813   -532.91187     102002.7      46.7237      46.7237      46.7237 
  405000    91.028497   -7364.0604   -6891.1171   -564.21963     102002.7      46.7237      46.7237      46.7237 
  406000      87.6924   -7362.3672   -6906.7568   -749.24746     102002.7      46.7237      46.7237      46.7237 
  407000    91.768985    -7377.014   -6900.2235   -595.30974     102002.7      46.7237      46.7237      46.7237 
  408000    90.559337   -7350.8498   -6880.3441   -451.12121     102002.7      46.7237      46.7237      46.7237 
  409000    92.554265   -7362.8989   -6882.0284   -393.74496     102002.7      46.7237      46.7237      46.7237 
  410000    89.321815   -7372.4098   -6908.3337   -501.45185     102002.7      46.7237      46.7237      46.7237 
  411000    91.436272    -7349.672   -6874.6101   -688.60139     102002.7      46.7237      46.7237      46.7237 
  412000    87.836199   -7353.6988   -6897.3413   -660.20041     102002.7      46.7237      46.7237      46.7237 
  413000     89.38746   -7355.6469   -6891.2297   -618.95673     102002.7      46.7237      46.7237      46.7237 
  414000    87.789202   -7378.4976   -6922.3843   -641.21442     102002.7      46.7237      46.7237      46.7237 
  415000    90.861794   -7347.8556   -6875.7784   -941.85728     102002.7      46.7237      46.7237      46.7237 
  416000     91.85053   -7369.3721   -6892.1579   -581.91962     102002.7      46.7237      46.7237      46.7237 
  417000    90.104644   -7363.5141   -6895.3707   -1130.7658     102002.7      46.7237      46.7237      46.7237 
  418000    91.262858   -7364.0076   -6889.8467   -865.21354     102002.7      46.7237      46.7237      46.7237 
  419000    91.160549   -7361.5709   -6887.9416   -713.59745     102002.7      46.7237      46.7237      46.7237 
  420000    90.687393   -7372.8703   -6901.6992   -606.02855     102002.7      46.7237      46.7237      46.7237 
  421000    88.767149   -7355.5507   -6894.3564   -822.01176     102002.7      46.7237      46.7237      46.7237 
  422000    88.820393   -7385.9853   -6924.5143   -691.20851     102002.7      46.7237      46.7237      46.7237 
  423000    89.860657   -7357.7593   -6890.8836   -838.78328     102002.7      46.7237      46.7237      46.7237 
  424000    91.808311   -7360.1633   -6883.1684   -833.45412     102002.7      46.7237      46.7237      46.7237 
  425000     89.37251   -7363.8092   -6899.4697   -879.14002     102002.7      46.7237      46.7237      46.7237 
  426000    86.111797   -7378.6832   -6931.2849   -652.91699     102002.7      46.7237      46.7237      46.7237 
  427000    92.426197   -7377.6794   -6897.4743    -715.6777     102002.7      46.7237      46.7237      46.7237 
  428000    92.172805    -7356.089   -6877.2004   -771.72444     102002.7      46.7237      46.7237      46.7237 
  429000    90.353018   -7365.7204   -6896.2867   -638.74724     102002.7      46.7237      46.7237      46.7237 
  430000    92.277502   -7370.2844   -6890.8518   -730.51071     102002.7      46.7237      46.7237      46.7237 
  431000    94.019061   -7366.1804   -6877.6994    -631.6705     102002.7      46.7237      46.7237      46.7237 
  432000    89.436439   -7373.4078   -6908.7361   -531.28283     102002.7      46.7237      46.7237      46.7237 
  433000    90.908641   -7365.9268   -6893.6063   -671.47821     102002.7      46.7237      46.7237      46.7237 
  434000    94.637332   -7367.4977   -6875.8045   -770.12023     102002.7      46.7237      46.7237      46.7237 
  435000    91.317427   -7367.4132   -6892.9687   -715.04367     102002.7      46.7237      46.7237      46.7237 
  436000    88.996829   -7369.7223   -6907.3346   -688.49085     102002.7      46.7237      46.7237      46.7237 
  437000    90.514873   -7371.9806   -6901.7058   -835.89263     102002.7      46.7237      46.7237      46.7237 
  438000    92.661293   -7373.3765   -6891.9499   -894.89936     102002.7      46.7237      46.7237      46.7237 
  439000     89.24462   -7358.8489   -6895.1739   -587.77171     102002.7      46.7237      46.7237      46.7237 
  440000    93.317629   -7360.0791   -6875.2426    -547.3502     102002.7      46.7237      46.7237      46.7237 
  441000    86.637477   -7355.9816   -6905.8521   -524.68837     102002.7      46.7237      46.7237      46.7237 
  442000    91.349433   -7369.4277    -6894.817   -682.54687     102002.7      46.7237      46.7237      46.7237 
  443000     89.70357   -7350.7624   -6884.7029   -707.16208     102002.7      46.7237      46.7237      46.7237 
  444000    94.424186   -7367.6066   -6877.0209   -665.61902     102002.7      46.7237      46.7237      46.7237 
  445000    88.307507   -7391.2258   -6932.4195   -452.85927     102002.7      46.7237      46.7237      46.7237 
  446000    90.958772   -7366.7759   -6894.1949   -548.64863     102002.7      46.7237      46.7237      46.7237 
  447000    92.128558   -7371.7446   -6893.0859   -859.04548     102002.7      46.7237      46.7237      46.7237 
  448000    88.345775   -7359.8089   -6900.8038   -642.35792     102002.7      46.7237      46.7237      46.7237 
  449000    88.740579   -7347.6832   -6886.6269   -936.37748     102002.7      46.7237      46.7237      46.7237 
  450000    93.045104   -7355.2593   -6871.8387   -620.00679     102002.7      46.7237      46.7237      46.7237 
  451000    90.683081   -7372.5488   -6901.4001   -925.42812     102002.7      46.7237      46.7237      46.7237 
  452000    90.749036    -7359.404   -6887.9127   -823.16892     102002.7      46.7237      46.7237      46.7237 
  453000    92.428557   -7354.8911   -6874.6738   -570.04821     102002.7      46.7237      46.7237      46.7237 
  454000    90.405517   -7366.4347   -6896.7281   -962.55114     102002.7      46.7237      46.7237      46.7237 
  455000    92.718695   -7370.2339   -6888.5091   -586.38248     102002.7      46.7237      46.7237      46.7237 
  456000    91.732736   -7364.2917   -6887.6895   -709.63342     102002.7      46.7237      46.7237      46.7237 
  457000    89.627119   -7372.3839   -6906.7216   -638.63048     102002.7      46.7237      46.7237      46.7237 
  458000    92.815251    -7371.297   -6889.0705   -538.24254     102002.7      46.7237      46.7237      46.7237 
  459000    88.437636   -7372.0805   -6912.5981   -550.61708     102002.7      46.7237      46.7237      46.7237 
  460000     91.66959   -7371.0413   -6894.7672   -346.06911     102002.7      46.7237      46.7237      46.7237 
  461000     92.74178    -7377.456   -6895.6112   -415.03977     102002.7      46.7237      46.7237      46.7237 
  462000    89.023401   -7367.4599   -6904.9342    -548.5052     102002.7      46.7237      46.7237      46.7237 
  463000    89.917826   -7354.2669   -6887.0942   -404.40951     102002.7      46.7237      46.7237      46.7237 
  464000    89.332791   -7388.0825   -6923.9493   -591.52565     102002.7      46.7237      46.7237      46.7237 
  465000    90.552966   -7360.9248   -6890.4522   -498.97573     102002.7      46.7237      46.7237      46.7237 
  466000    91.093539   -7349.5717   -6876.2905   -412.81763     102002.7      46.7237      46.7237      46.7237 
  467000    89.219824   -7372.6854   -6909.1392   -710.42903     102002.7      46.7237      46.7237      46.7237 
  468000    89.147231   -7349.1941    -6886.025   -690.65906     102002.7      46.7237      46.7237      46.7237 
  469000    92.062828   -7370.9636   -6892.6464   -522.44039     102002.7      46.7237      46.7237      46.7237 
  470000    90.200542   -7362.0668   -6893.4252   -611.16818     102002.7      46.7237      46.7237      46.7237 
  471000    92.796256   -7365.1535   -6883.0258   -662.51823     102002.7      46.7237      46.7237      46.7237 
  472000     91.72689   -7357.2851   -6880.7133   -559.27858     102002.7      46.7237      46.7237      46.7237 
  473000    90.078182   -7365.6375   -6897.6316    -767.1633     102002.7      46.7237      46.7237      46.7237 
  474000    91.501056   -7351.1579   -6875.7594   -749.94308     102002.7      46.7237      46.7237      46.7237 
  475000    93.295963   -7366.4005   -6881.6765   -569.04532     102002.7      46.7237      46.7237      46.7237 
  476000    88.839011   -7365.9051   -6904.3374   -800.80765     102002.7      46.7237      46.7237      46.7237 
  477000    89.242134    -7369.566   -6905.9038   -758.99561     102002.7      46.7237      46.7237      46.7237 
  478000    94.399358    -7372.498   -6882.0412   -737.49935     102002.7      46.7237      46.7237      46.7237 
  479000    88.616508   -7373.5661   -6913.1544   -840.66155     102002.7      46.7237      46.7237      46.7237 
  480000    90.476011   -7365.5865   -6895.5137   -679.69154     102002.7      46.7237      46.7237      46.7237 
  481000    90.246643   -7343.1674   -6874.2862   -980.28102     102002.7      46.7237      46.7237      46.7237 
  482000    92.013182   -7378.5429   -6900.4836   -607.66433     102002.7      46.7237      46.7237      46.7237 
  483000    93.216177   -7357.6932   -6873.3837   -833.38403     102002.7      46.7237      46.7237      46.7237 
  484000    90.121635   -7360.6128   -6892.3811   -635.15225     102002.7      46.7237      46.7237      46.7237 
  485000    88.820206   -7370.4071   -6908.9371   -657.69055     102002.7      46.7237      46.7237      46.7237 
  486000    91.329163   -7356.3697   -6881.8643   -735.12905     102002.7      46.7237      46.7237      46.7237 
  487000    90.483061   -7365.8502   -6895.7407   -353.93884     102002.7      46.7237      46.7237      46.7237 
  488000     91.13754   -7363.1525   -6889.6426   -692.61398     102002.7      46.7237      46.7237      46.7237 
  489000    93.985151   -7366.6475   -6878.3428   -409.01013     102002.7      46.7237      46.7237      46.7237 
  490000    96.227582   -7367.5774    -6867.622   -575.02464     102002.7      46.7237      46.7237      46.7237 
  491000    89.983616   -7366.2154   -6898.7009   -561.88537     102002.7      46.7237      46.7237      46.7237 
  492000    93.138543    -7372.003   -6888.0968    -611.1592     102002.7      46.7237      46.7237      46.7237 
  493000    92.041358   -7386.5502   -6908.3445   -820.99066     102002.7      46.7237      46.7237      46.7237 
  494000    92.441664   -7375.4072   -6895.1217   -722.27433     102002.7      46.7237      46.7237      46.7237 
  495000    89.136476   -7346.0034   -6882.8902   -450.79576     102002.7      46.7237      46.7237      46.7237 
  496000    90.967578   -7371.0769   -6898.4501    -732.6904     102002.7      46.7237      46.7237      46.7237 
  497000    90.744761    -7349.645   -6878.1759   -848.84209     102002.7      46.7237      46.7237      46.7237 
  498000    89.601585   -7368.8149   -6903.2852   -673.42115     102002.7      46.7237      46.7237      46.7237 
  499000    89.188952   -7359.9305   -6896.5447   -778.09407     102002.7      46.7237      46.7237      46.7237 
  500000    90.443839   -7348.6561   -6878.7504   -499.97077     102002.7      46.7237      46.7237      46.7237 
  500508    91.692437   -7364.7038    -6888.311   -688.39876     102002.7      46.7237      46.7237      46.7237 
Loop time of 1278.21 on 16 procs for 500000 steps with 1744 atoms

Performance: 33.797 ns/day, 0.710 hours/ns, 391.172 timesteps/s
99.8% CPU use with 16 MPI tasks x no OpenMP threads

MPI task timing breakdown:
Section |  min time  |  avg time  |  max time  |%varavg| %total
---------------------------------------------------------------
Pair    | 496.46     | 686.59     | 877.44     | 487.3 | 53.72
Bond    | 164.85     | 174        | 185.2      |  50.6 | 13.61
Neigh   | 3.4182     | 3.4406     | 3.4598     |   0.9 |  0.27
Comm    | 204.75     | 401.24     | 600.37     | 658.2 | 31.39
Output  | 0.02005    | 0.020494   | 0.023263   |   0.5 |  0.00
Modify  | 7.2274     | 7.6661     | 8.0259     |   8.3 |  0.60
Other   |            | 5.261      |            |       |  0.41

Nlocal:    109 ave 138 max 86 min
Histogram: 2 2 2 3 0 1 2 2 0 2
Nghost:    2209.75 ave 2234 max 2176 min
Histogram: 2 0 2 0 1 2 2 1 5 1
Neighs:    11447.2 ave 17194 max 7443 min
Histogram: 3 2 1 1 4 1 1 1 1 1

Total # of neighbors = 183155
Ave neighs/atom = 105.02
Ave special neighs/atom = 6.6055
Neighbor list builds = 2970
Dangerous builds = 0
Neighbor list info ...
  update every 1 steps, delay 10 steps, check yes
  max neighbors/atom: 2000, page size: 100000
  master list distance cutoff = 16
  ghost atom cutoff = 16
  binsize = 8, bins = 6 6 6
  3 neighbor lists, perpetual/occasional/extra = 3 0 0
  (1) pair buck6d/coul/gauss/dsf, perpetual, skip from (3)
      attributes: half, newton on
      pair build: skip
      stencil: none
      bin: none
  (2) pair lj/cut, perpetual, skip from (3)
      attributes: half, newton on
      pair build: skip
      stencil: none
      bin: none
  (3) neighbor class addition, perpetual
      attributes: half, newton on
      pair build: half/bin/newton
      stencil: half/bin/3d/newton
      bin: standard
Setting up Verlet run ...
  Unit style    : real
  Current step  : 500508
  Time step     : 1
WARNING: Inconsistent image flags (../domain.cpp:786)
Per MPI rank memory allocation (min/avg/max) = 23.07 | 23.29 | 23.34 Mbytes
Step Time TotEng KinEng PotEng E_mol E_pair Temp Pxx Pyy Pzz Pxy Pxz Pyz Cella Cellb Cellc CellAlpha CellBeta CellGamma Volume Press 
  500508       500000    -6888.311    476.39282   -7364.7038    4201.1945   -11565.898    91.692437   -801.12325   -791.75256   -472.32048     55.03592   0.88231681   -46.035707      46.7237      46.7237      46.7237           90           90           90     102002.7   -688.39876 
  501000       500492   -6877.1582    481.28563   -7358.4438    4204.4069   -11562.851    92.634168   -173.67679    -765.1177   -876.70583    270.84915    66.387643    257.36504      46.7237      46.7237      46.7237           90           90           90     102002.7   -605.16677 
  502000       501492   -6887.9405    475.32077   -7363.2613    4205.5846   -11568.846    91.486098   -1318.6904   -777.46943   -557.83762    270.44008     109.4949    153.57985      46.7237      46.7237      46.7237           90           90           90     102002.7   -884.66581 
  503000       502492   -6899.1886    479.02487   -7378.2134    4196.7411   -11574.954    92.199034   -247.61037   -610.89926   -723.50377    208.13568   -188.18308    201.38127      46.7237      46.7237      46.7237           90           90           90     102002.7    -527.3378 
  504000       503492   -6870.3302    477.60733   -7347.9375    4230.3713   -11578.309    91.926197   -327.05362    -866.5583   -715.35769   -118.89009   -29.829988   -47.007833      46.7237      46.7237      46.7237           90           90           90     102002.7    -636.3232 
  505000       504492    -6888.333    475.27386   -7363.6068    4215.4092   -11579.016    91.477069   -570.80927   -446.37666   -738.78121   -75.745232   -33.756897   -142.55514      46.7237      46.7237      46.7237           90           90           90     102002.7   -585.32238 
  506000       505492   -6914.5168     468.1383   -7382.6551    4204.9671   -11587.622     90.10367   -758.82412   -688.08653   -803.75501    225.01224    42.045182   -108.36202      46.7237      46.7237      46.7237           90           90           90     102002.7   -750.22189 
  507000       506492   -6891.7711    459.40095   -7351.1721    4217.6691   -11568.841    88.421972   -769.32489   -1251.1075   -304.87086    101.04959    178.03692    151.41848      46.7237      46.7237      46.7237           90           90           90     102002.7   -775.10108 
  508000       507492    -6906.818    471.44097    -7378.259    4204.3761   -11582.635    90.739343    27.866185   -507.14705   -336.27058    -5.000273    126.65353   -108.97621      46.7237      46.7237      46.7237           90           90           90     102002.7   -271.85048 
  509000       508492   -6910.4599    465.08627   -7375.5462    4205.3535     -11580.9    89.516239   -380.72012   -660.27799    -240.0252   -114.91558     1.784691    -227.3061      46.7237      46.7237      46.7237           90           90           90     102002.7   -427.00777 
  510000       509492   -6889.5642    485.81884   -7375.3831    4184.8122   -11560.195    93.506686   -396.48232    -735.4645   -382.40573    149.70867    146.25341   -80.727535      46.7237      46.7237      46.7237           90           90           90     102002.7   -504.78418 
  511000       510492   -6909.8676    445.91664   -7355.7842    4235.8846   -11591.669    85.826616   -599.68692   -713.41447   -653.79327    202.29832    185.85017    130.19248      46.7237      46.7237      46.7237           90           90           90     102002.7   -655.63155 
  512000       511492   -6895.2784    477.15617   -7372.4346    4211.2481   -11583.683    91.839362   -761.91178   -743.54905   -509.68481   -26.449621   -137.20984   -48.811023      46.7237      46.7237      46.7237           90           90           90     102002.7   -671.71521 
  513000       512492   -6900.4075    460.80286   -7361.2104    4206.6112   -11567.822    88.691802   -554.72628   -760.96283   -404.49839   -144.17299   -52.979674   -134.30186      46.7237      46.7237      46.7237           90           90           90     102002.7   -573.39583 
  514000       513492   -6900.7997    472.36761   -7373.1674    4205.0032   -11578.171    90.917697   -1119.3779   -792.52016    -31.45112    274.43548    133.98874    310.28884      46.7237      46.7237      46.7237           90           90           90     102002.7   -647.78307 
  515000       514492   -6887.6448    474.58501   -7362.2298    4219.0764   -11581.306    91.344484    -428.9366   -711.49131   -991.08657   -94.086361   -169.39392    153.08048      46.7237      46.7237      46.7237           90           90           90     102002.7   -710.50483 
  516000       515492   -6902.9603     467.8058   -7370.7661    4198.5959   -11569.362    90.039674   -343.68364   -608.18844   -426.83803    88.381612   -7.2188609    203.55348      46.7237      46.7237      46.7237           90           90           90     102002.7   -459.57004 
  517000       516492   -6895.1497    457.84976   -7352.9995    4220.1474   -11573.147    88.123412   -923.79021   -917.35799   -648.81392    291.31662   -76.223568   -74.436373      46.7237      46.7237      46.7237           90           90           90     102002.7   -829.98737 
  518000       517492   -6887.1244    472.95931   -7360.0838    4231.0793   -11591.163    91.031582   -924.73597   -723.98502   -711.54521    174.02126    -135.9642   -182.95457      46.7237      46.7237      46.7237           90           90           90     102002.7    -786.7554 
  519000       518492   -6896.6498     470.8985   -7367.5483    4224.6265   -11592.175    90.634934    -505.2644   -938.02654   -514.05241    123.38871   -159.87342    230.81951      46.7237      46.7237      46.7237           90           90           90     102002.7   -652.44778 
  520000       519492   -6888.3496    476.39023   -7364.7398    4202.4661   -11567.206    91.691938   -532.51087   -587.61557   -783.31246     3.033625    102.51897    42.244824      46.7237      46.7237      46.7237           90           90           90     102002.7   -634.47963 
  521000       520492     -6891.56    469.43705   -7360.9971    4217.8599   -11578.857    90.353644   -819.34574   -493.88154   -761.62217   -77.103907    68.944396    -203.7598      46.7237      46.7237      46.7237           90           90           90     102002.7   -691.61648 
  522000       521492   -6906.1911    460.53659   -7366.7277    4214.0751   -11580.803    88.640552    -628.1384   -922.19999   -1136.3703    281.32855   -85.322404    158.01215      46.7237      46.7237      46.7237           90           90           90     102002.7   -895.56958 
  523000       522492   -6913.2378    461.23892   -7374.4767    4201.5697   -11576.046    88.775731   -857.40303    -931.6321   -600.52834   -49.612612    162.28096    179.08895      46.7237      46.7237      46.7237           90           90           90     102002.7   -796.52116 
  524000       523492    -6883.945    475.77054   -7359.7156    4214.3465   -11574.062    91.572667   -760.09728   -761.48343   -720.81004    40.049151    18.343536    22.079198      46.7237      46.7237      46.7237           90           90           90     102002.7   -747.46358 
  525000       524492   -6887.1738    483.26896   -7370.4428    4203.3744   -11573.817    93.015904   -406.58231   -734.34174   -848.23312    3.7825213    147.55065    175.70207      46.7237      46.7237      46.7237           90           90           90     102002.7   -663.05239 
  526000       525492   -6883.4373     493.1341   -7376.5713    4198.9838   -11575.555     94.91467   -907.31538   -591.93427   -717.43742    186.02945   -82.466823   -96.387433      46.7237      46.7237      46.7237           90           90           90     102002.7   -738.89569 
  527000       526492   -6900.4313    478.42737   -7378.8586    4212.5634   -11591.422    92.084032   -886.56268   -1072.8746   -529.63904    18.390851    225.51836   -86.980772      46.7237      46.7237      46.7237           90           90           90     102002.7   -829.69212 
  528000       527492   -6884.2378    475.96204   -7360.1998    4206.9016   -11567.101    91.609524   -819.17553   -1180.3056   -642.75344    140.82319    142.73601    190.17516      46.7237      46.7237      46.7237           90           90           90     102002.7   -880.74485 
  529000       528492   -6909.9933    461.04043   -7371.0337    4208.8056   -11579.839    88.737527   -867.90078   -667.81497    -938.8149    116.57068      266.842   -186.89231      46.7237      46.7237      46.7237           90           90           90     102002.7   -824.84355 
  530000       529492   -6889.6174    474.34397   -7363.9614    4213.3158   -11577.277     91.29809   -1006.4458   -315.37221   -1347.0019    -37.87795    -177.9041    -145.8234      46.7237      46.7237      46.7237           90           90           90     102002.7   -889.60662 
  531000       530492   -6896.5043    474.53267    -7371.037    4196.5789   -11567.616     91.33441   -881.60698   -791.89151   -784.80107    219.19869   -34.513033   -284.33539      46.7237      46.7237      46.7237           90           90           90     102002.7   -819.43319 
  532000       531492   -6872.4996    480.96364   -7353.4632    4241.3952   -11594.858    92.572195   -723.28816   -1004.4491   -1225.9697    3.1605801    53.905843    81.517307      46.7237      46.7237      46.7237           90           90           90     102002.7     -984.569 
  533000       532492    -6907.882    461.94771   -7369.8297    4215.1054   -11584.935    88.912154   -868.59621   -593.08544   -1030.6418     187.1839   -16.638765    17.853472      46.7237      46.7237      46.7237           90           90           90     102002.7    -830.7745 
  534000       533492   -6885.9086    479.16428   -7365.0729    4212.8617   -11577.935    92.225867   -478.39495     -1073.15   -1085.4114    80.540401    292.36781    13.174144      46.7237      46.7237      46.7237           90           90           90     102002.7   -878.98546 
  535000       534492   -6901.0169    478.32361   -7379.3405    4203.9937   -11583.334    92.064061   -742.53642   -782.10608   -697.03356     -57.9541  -0.85663556    27.592059      46.7237      46.7237      46.7237           90           90           90     102002.7   -740.55869 
  536000       535492   -6881.2821    476.55468   -7357.8368    4232.2872   -11590.124    91.723591   -777.76952   -906.73615   -1048.1148    166.99561    129.15769   -86.137778      46.7237      46.7237      46.7237           90           90           90     102002.7   -910.87349 
  537000       536492   -6889.9458    477.13064   -7367.0764    4216.6409   -11583.717    91.834447   -720.53629   -802.14724   -1040.8557   -54.351869    231.55255     5.831899      46.7237      46.7237      46.7237           90           90           90     102002.7   -854.51308 
  538000       537492    -6912.095    459.17309   -7371.2681    4196.4349   -11567.703    88.378116   -784.29182   -555.63651   -727.49077    16.451817   -48.080073   -289.98417      46.7237      46.7237      46.7237           90           90           90     102002.7    -689.1397 
  539000       538492   -6897.1304    473.59608   -7370.7265     4201.272   -11571.999    91.154143   -776.30016   -607.52114    -931.9889   -146.18972   -7.0959117   -2.5166157      46.7237      46.7237      46.7237           90           90           90     102002.7   -771.93673 
  540000       539492   -6894.6088    478.71836   -7373.3271    4202.9784   -11576.306     92.14004   -795.20454   -658.85369   -715.02426    78.001912    214.58274    20.459778      46.7237      46.7237      46.7237           90           90           90     102002.7    -723.0275 
  541000       540492   -6896.7545    474.15324   -7370.9077     4203.398   -11574.306     91.26138   -90.725585   -1011.7947   -787.47998   -95.614855    1.9284543    134.29751      46.7237      46.7237      46.7237           90           90           90     102002.7   -630.00011 
  542000       541492   -6888.9283    474.36686   -7363.2951    4203.8931   -11567.188    91.302497   -235.26555    -555.6606    -334.6084   -253.89792    15.221518   -130.95978      46.7237      46.7237      46.7237           90           90           90     102002.7   -375.17818 
  543000       542492   -6871.4435    490.51107   -7361.9546    4192.2688   -11554.223    94.409811    -511.1261    -441.2552   -665.96614   -174.76998    16.050391   -4.7765074      46.7237      46.7237      46.7237           90           90           90     102002.7   -539.44915 
  544000       543492   -6902.4757    462.34038   -7364.8161    4216.3003   -11581.116    88.987731   -870.83387    -957.4767   -868.06987   -218.39265    144.51302   -60.765557      46.7237      46.7237      46.7237           90           90           90     102002.7   -898.79348 
  545000       544492   -6892.0583    475.92404   -7367.9824    4210.0694   -11578.052     91.60221   -633.50872   -396.94006    -734.9541   -68.899956    47.788659    65.862918      46.7237      46.7237      46.7237           90           90           90     102002.7   -588.46763 
  546000       545492   -6916.9492    465.15693   -7382.1062    4199.9573   -11582.063    89.529841   -653.71567    -858.8319   -831.23481    17.021078   -89.034755    205.43098      46.7237      46.7237      46.7237           90           90           90     102002.7   -781.26079 
  547000       546492   -6883.7782     489.0873   -7372.8655    4203.0596   -11575.925    94.135773   -334.96157   -705.26657   -716.82188    -212.2693   -104.97812   -83.346833      46.7237      46.7237      46.7237           90           90           90     102002.7   -585.68334 
  548000       547492   -6885.1223    485.40391   -7370.5262     4198.989   -11569.515    93.426824   -644.91328   -1094.1649   -621.58133    152.42375   -59.260894    91.903193      46.7237      46.7237      46.7237           90           90           90     102002.7    -786.8865 
  549000       548492   -6901.8658    467.40041   -7369.2662    4203.1033   -11572.369    89.961647   -512.34369   -556.96453   -830.12262   -61.341222   -26.421803     90.69405      46.7237      46.7237      46.7237           90           90           90     102002.7   -633.14361 
  550000       549492   -6903.8079    471.63211     -7375.44    4187.8829   -11563.323    90.776134   -180.53143   -551.59354   -778.44434    83.749734   -22.384348     51.71299      46.7237      46.7237      46.7237           90           90           90     102002.7    -503.5231 
  551000       550492   -6879.7867    479.75968   -7359.5464    4218.5996   -11578.146    92.340465   -812.61412   -408.11467   -405.35828   -41.067183    136.98418    9.6644686      46.7237      46.7237      46.7237           90           90           90     102002.7   -542.02902 
  552000       551492   -6873.2798    482.49414   -7355.7739    4215.8074   -11571.581    92.866772   -556.99942   -518.87745   -347.04272   -155.26832    80.713524       88.609      46.7237      46.7237      46.7237           90           90           90     102002.7   -474.30653 
  553000       552492   -6905.6039    466.31037   -7371.9143     4203.118   -11575.032    89.751845   -917.24942   -924.84766   -966.13634    119.10663    99.836877    305.52366      46.7237      46.7237      46.7237           90           90           90     102002.7   -936.07781 
  554000       553492   -6926.6668    462.53432   -7389.2011    4193.5003   -11582.701     89.02506   -505.21047   -286.76564   -1069.5203    119.34195   -165.11304    20.523631      46.7237      46.7237      46.7237           90           90           90     102002.7   -620.49879 
  555000       554492   -6890.0829    486.44852   -7376.5314    4196.4648   -11572.996    93.627881   -988.45016   -695.97896   -670.02253    93.424402    65.839667    45.614608      46.7237      46.7237      46.7237           90           90           90     102002.7   -784.81722 
[...]
  936000       935492   -6917.9188    464.46852   -7382.3873     4176.797   -11559.184    89.397341   -633.28134    -767.3874   -974.01914     19.24319    -126.7673    202.22941      46.7237      46.7237      46.7237           90           90           90     102002.7   -791.56263 
  937000       936492   -6884.3436    480.33977   -7364.6834    4223.6906   -11588.374    92.452116   -883.24754   -664.76526   -72.737296   -99.727664   -159.15795   -106.22498      46.7237      46.7237      46.7237           90           90           90     102002.7   -540.25003 
  938000       937492   -6906.6301    469.71834   -7376.3484    4205.7465   -11582.095    90.407786   -739.82575   -1200.3072   -944.93303    221.43021    17.926249   -209.04659      46.7237      46.7237      46.7237           90           90           90     102002.7   -961.68867 
  939000       938492   -6867.0708    487.37044   -7354.4413    4211.0678   -11565.509    93.805326   -856.98841   -260.40417   -804.45397   -36.544553    52.817954    -158.4052      46.7237      46.7237      46.7237           90           90           90     102002.7   -640.61552 
  940000       939492   -6899.4863    462.44704   -7361.9333    4195.5236   -11557.457    89.008261   -626.08954   -854.66466   -689.32567   -273.61515    289.06584    -28.51906      46.7237      46.7237      46.7237           90           90           90     102002.7   -723.35996 
  941000       940492    -6916.232     461.4366   -7377.6686    4199.8975   -11577.566     88.81378   -481.28221   -615.99235   -194.94331    164.84973   -249.21058   -207.30919      46.7237      46.7237      46.7237           90           90           90     102002.7   -430.73929 
  942000       941492   -6894.8535    490.52586   -7385.3794    4186.9972   -11572.377    94.412656   -926.83003   -311.82428   -928.57032   -63.938184   -35.573721    60.397444      46.7237      46.7237      46.7237           90           90           90     102002.7   -722.40821 
  943000       942492   -6884.8439    477.01989   -7361.8638    4215.9696   -11577.833    91.813132   -1088.1351    -990.5337   -600.23369   -99.443964    2.0873978    330.20682      46.7237      46.7237      46.7237           90           90           90     102002.7    -892.9675 
  944000       943492   -6900.3614    472.82445   -7373.1859    4194.4959   -11567.682    91.005626   -765.75967    -900.1742   -536.42562    24.768246   -77.573419    145.51825      46.7237      46.7237      46.7237           90           90           90     102002.7   -734.11983 
  945000       944492   -6908.0969    465.38516   -7373.4821    4211.0574   -11584.539    89.573768   -981.91302   -994.50796   -1136.9436   -213.27539   -19.072438   -85.489231      46.7237      46.7237      46.7237           90           90           90     102002.7   -1037.7882 
  946000       945492   -6908.9377    464.65266   -7373.5904    4195.4332   -11569.024    89.432781   -503.50842   -861.45688   -675.70246   -270.38774    126.89159    77.025659      46.7237      46.7237      46.7237           90           90           90     102002.7   -680.22259 
  947000       946492   -6871.3314    481.31443   -7352.6458    4211.2024   -11563.848    92.639712   -914.24488   -1049.6002   -1022.4064    246.76596    134.83795   -121.80453      46.7237      46.7237      46.7237           90           90           90     102002.7   -995.41714 
  948000       947492   -6903.0164    470.88681   -7373.9032    4207.6686   -11581.572    90.632682   -204.83884   -501.85274   -1225.1824    85.605749   -117.80936   -59.631704      46.7237      46.7237      46.7237           90           90           90     102002.7   -643.95799 
  949000       948492   -6898.4419    468.69117   -7367.1331    4203.2303   -11570.363    90.210083   -792.45129   -445.22968   -766.07352   -122.05584   -24.795344    44.038114      46.7237      46.7237      46.7237           90           90           90     102002.7   -667.91816 
  950000       949492   -6897.9231    470.73529   -7368.6584    4206.4686   -11575.127     90.60352   -644.58677   -520.72843   -885.63007   -36.516597   -264.16327    36.232908      46.7237      46.7237      46.7237           90           90           90     102002.7   -683.64842 
  951000       950492   -6902.2514    469.60028   -7371.8517    4205.9584    -11577.81    90.385061   -490.64811   -565.15273   -595.26653   -125.55424    5.5998042   -61.207776      46.7237      46.7237      46.7237           90           90           90     102002.7   -550.35579 
  952000       951492   -6900.5805    470.12479   -7370.7053    4216.0393   -11586.745    90.486016   -561.94838   -905.20598   -1093.3987    122.53064      138.881   -3.4709024      46.7237      46.7237      46.7237           90           90           90     102002.7   -853.51768 
  953000       952492   -6878.3917    484.77007   -7363.1617     4217.079   -11580.241    93.304826   -515.87169   -358.05279   -523.70522   -11.095335    83.237079    13.762505      46.7237      46.7237      46.7237           90           90           90     102002.7   -465.87656 
  954000       953492   -6903.7412    465.32169   -7369.0629    4209.6289   -11578.692    89.561552   -808.20722   -664.59988   -471.29664    114.12005    76.838499     30.90912      46.7237      46.7237      46.7237           90           90           90     102002.7   -648.03458 
  955000       954492   -6886.1865    460.87409   -7347.0606    4214.9596    -11562.02    88.705511    -758.6567   -605.78987   -860.46757   -100.81424    72.963779    157.12221      46.7237      46.7237      46.7237           90           90           90     102002.7   -741.63805 
  956000       955492   -6913.9682     468.9524   -7382.9205    4180.9351   -11563.856    90.260362   -952.72797    -174.3328    -502.0505    146.52983    39.345732   -243.31753      46.7237      46.7237      46.7237           90           90           90     102002.7   -543.03709 
  957000       956492   -6897.9919    459.83446   -7357.8264    4219.5885   -11577.415     88.50541   -880.31141    -387.5103   -996.74029   -101.62307   -91.846888   -83.598884      46.7237      46.7237      46.7237           90           90           90     102002.7     -754.854 
  958000       957492   -6890.5815    471.53333   -7362.1148    4200.2145   -11562.329    90.757121   -143.77014   -947.92359   -434.60753    199.66158    137.70164    -197.4239      46.7237      46.7237      46.7237           90           90           90     102002.7   -508.76709 
  959000       958492   -6883.4912    472.03426   -7355.5254    4219.0681   -11574.593    90.853535    -551.7818   -222.57902   -990.21258    67.162458   -72.601064   -47.818516      46.7237      46.7237      46.7237           90           90           90     102002.7   -588.19114 
  960000       959492   -6878.3308    475.03446   -7353.3653    4224.3359   -11577.701    91.430992    -694.8904   -797.26432   -602.91917    -10.48117   0.80332988    343.40033      46.7237      46.7237      46.7237           90           90           90     102002.7   -698.35796 
  961000       960492   -6893.1578    469.34028   -7362.4981    4226.8817    -11589.38    90.335018   -739.10164   -474.33959   -734.06621    13.549483   -205.31937    49.417645      46.7237      46.7237      46.7237           90           90           90     102002.7   -649.16915 
  962000       961492   -6896.9734    471.50818   -7368.4816    4206.6201   -11575.102     90.75228   -543.16523   -255.92825   -904.12982   -113.66081   -193.98912    75.925178      46.7237      46.7237      46.7237           90           90           90     102002.7    -567.7411 
  963000       962492   -6879.5849    479.23203    -7358.817     4219.359   -11578.176    92.238908   -799.24331    311.07763   -745.31712    9.5499838   -94.855445   -259.18802      46.7237      46.7237      46.7237           90           90           90     102002.7   -411.16093 
  964000       963492   -6904.8998    461.74588   -7366.6457     4214.289   -11580.935    88.873307   -731.52822    -431.0126    -534.0478    19.404075     150.9714    4.7054208      46.7237      46.7237      46.7237           90           90           90     102002.7   -565.52954 
  965000       964492   -6919.7175    451.94773   -7371.6652    4225.7531   -11597.418    86.987434   -589.57744   -500.88616   -747.51234    198.76914    111.05988    173.21214      46.7237      46.7237      46.7237           90           90           90     102002.7   -612.65865 
  966000       965492   -6886.8501    476.81021   -7363.6603    4205.8995    -11569.56    91.772773   -448.51127   -365.86695   -637.03683   -56.235133    127.99229    58.091767      46.7237      46.7237      46.7237           90           90           90     102002.7   -483.80501 
  967000       966492   -6899.6573    476.62609   -7376.2834    4209.3778   -11585.661    91.737336   -642.49901   -1020.1882    -688.7837   -112.22977    -120.9939   -27.313899      46.7237      46.7237      46.7237           90           90           90     102002.7   -783.82364 
  968000       967492   -6868.9138     480.9983   -7349.9122    4238.6096   -11588.522    92.578866   -569.95283   -544.08142   -934.04092   -20.863319    180.71473   -153.57661      46.7237      46.7237      46.7237           90           90           90     102002.7   -682.69172 
  969000       968492   -6876.6089    494.18736   -7370.7963    4216.2129   -11587.009    95.117395   -640.54474   -952.56303   -550.33748   -86.010635    58.953911   -124.99938      46.7237      46.7237      46.7237           90           90           90     102002.7   -714.48175 
  970000       969492   -6893.0624    465.69855    -7358.761    4223.1711   -11581.932    89.634087   -379.87831   -292.21798     -643.083    157.72126   -182.50505   -471.08621      46.7237      46.7237      46.7237           90           90           90     102002.7    -438.3931 
  971000       970492   -6884.9369    488.98779   -7373.9247    4198.0054    -11571.93    94.116621   -801.52255   -682.87311   -696.61454     180.7275   -133.31121   -99.817086      46.7237      46.7237      46.7237           90           90           90     102002.7    -727.0034 
  972000       971492   -6907.7073    462.20814   -7369.9154    4216.8611   -11586.777     88.96228   -653.63531   -665.74652   -1008.7373   -73.444212   -5.4725591    -34.30892      46.7237      46.7237      46.7237           90           90           90     102002.7    -776.0397 
  973000       972492    -6890.863    477.09473   -7367.9577    4206.2381   -11574.196    91.827536   -584.96952   -405.19536   -837.38683   -16.114505    48.096966   -173.87802      46.7237      46.7237      46.7237           90           90           90     102002.7    -609.1839 
  974000       973492   -6919.9291    456.52196    -7376.451    4195.9421   -11572.393    87.867846   -652.76476   -598.88958   -481.85809   -105.10775    32.444646   -13.687327      46.7237      46.7237      46.7237           90           90           90     102002.7   -577.83748 
  975000       974492   -6904.2027    465.84173   -7370.0444    4209.6507   -11579.695    89.661644   -604.36189    -314.0968   -709.89445   -320.24125   -31.463274    40.387827      46.7237      46.7237      46.7237           90           90           90     102002.7   -542.78438 
  976000       975492   -6858.7511    492.64514   -7351.3963    4220.3821   -11571.778     94.82056   -1022.4208   -786.49518   -583.74844   -171.56977     49.74487   -66.114884      46.7237      46.7237      46.7237           90           90           90     102002.7   -797.55482 
  977000       976492   -6906.0344    462.47725   -7368.5116    4212.2458   -11580.757    89.014076   -657.22408   -256.44813   -481.95727   -1.7948005    112.83777    18.673317      46.7237      46.7237      46.7237           90           90           90     102002.7   -465.20983 
  978000       977492   -6884.7404    494.27736   -7379.0178    4183.4048   -11562.423    95.134718   -401.10425   -69.570227   -578.34729   -73.683412     56.12787   -13.286647      46.7237      46.7237      46.7237           90           90           90     102002.7   -349.67392 
  979000       978492   -6889.5051     470.0571   -7359.5622    4207.3806   -11566.943    90.472986   -552.90374   -1330.7169   -555.54399    78.502492   -81.603115    85.653514      46.7237      46.7237      46.7237           90           90           90     102002.7   -813.05487 
  980000       979492   -6902.0758    469.63583   -7371.7116    4204.6904   -11576.402    90.391904   -1040.6823   -215.90802   -787.61198   -8.6742445   -90.630082    86.723747      46.7237      46.7237      46.7237           90           90           90     102002.7   -681.40075 
  981000       980492   -6884.6914    480.62294   -7365.3143    4211.8741   -11577.188    92.506618   -874.43988    -940.6626   -622.53493   -370.15519    86.169366   -163.65979      46.7237      46.7237      46.7237           90           90           90     102002.7    -812.5458 
  982000       981492   -6872.1482      485.061   -7357.2092    4217.8687   -11575.078    93.360823   -482.29494   -611.57443   -462.17878   -14.500098    95.483515    39.775177      46.7237      46.7237      46.7237           90           90           90     102002.7   -518.68272 
  983000       982492   -6898.2942    463.56526   -7361.8594    4216.9444   -11578.804    89.223488   -918.95021   -717.87585   -437.57388    -92.33198   -41.922354    88.800816      46.7237      46.7237      46.7237           90           90           90     102002.7   -691.46665 
  984000       983492   -6881.6794    489.34698   -7371.0264    4211.7886   -11582.815    94.185756   -566.34551   -926.82682   -753.47719    57.409344    174.56951    30.147569      46.7237      46.7237      46.7237           90           90           90     102002.7   -748.88317 
  985000       984492   -6886.7508    480.87291   -7367.6237    4207.7925   -11575.416    92.554731   -892.19202   -525.64175   -1175.2258   -155.64652    80.124905    219.05253      46.7237      46.7237      46.7237           90           90           90     102002.7   -864.35321 
  986000       985492   -6885.6086    483.92507   -7369.5337    4209.8171   -11579.351    93.142188   -942.52231   -814.26044   -693.83918    130.66312   -35.442114   -160.14804      46.7237      46.7237      46.7237           90           90           90     102002.7   -816.87398 
  987000       986492   -6885.8644    465.47767   -7351.3421    4218.9897   -11570.332    89.591573   -742.33732   -397.90157   -1001.1755    77.405171    205.04183    73.163163      46.7237      46.7237      46.7237           90           90           90     102002.7   -713.80481 
  988000       987492   -6926.4594    471.56686   -7398.0262    4179.7627   -11577.789    90.763574   -900.98215   -785.04218   -511.67859   -34.791223   -201.14286    26.220862      46.7237      46.7237      46.7237           90           90           90     102002.7   -732.56764 
  989000       988492   -6892.9668    481.57668   -7374.5435    4204.9421   -11579.486    92.690188   -769.03672   -371.71521   -404.86782   -59.433673    152.01118    -15.64268      46.7237      46.7237      46.7237           90           90           90     102002.7   -515.20658 
  990000       989492   -6903.3024    470.38092   -7373.6833    4214.1638   -11587.847    90.535313   -576.16482   -507.50686   -808.20902    358.45613   -51.416787    143.43172      46.7237      46.7237      46.7237           90           90           90     102002.7    -630.6269 
  991000       990492   -6884.4352    485.41382    -7369.849    4209.6055   -11579.454    93.428731   -500.48163   -585.28998   -418.07127     66.85539   -18.864846   -104.37244      46.7237      46.7237      46.7237           90           90           90     102002.7   -501.28096 
  992000       991492   -6897.6062    491.05948   -7388.6657    4195.8773   -11584.543    94.515364   -551.80391   -555.92984    -733.9859    34.827371   -167.50394   -3.8110673      46.7237      46.7237      46.7237           90           90           90     102002.7   -613.90655 
  993000       992492   -6880.8636     475.6441   -7356.5077    4226.8727    -11583.38     91.54833   -579.54123   -549.67236   -625.85228    49.986754   -31.967256    160.27767      46.7237      46.7237      46.7237           90           90           90     102002.7   -585.02196 
  994000       993492   -6899.1172    469.49999   -7368.6172    4215.4633   -11584.081    90.365759   -902.26113   -339.53708   -833.13876   -23.743879    28.357512    -16.26576      46.7237      46.7237      46.7237           90           90           90     102002.7   -691.64566 
  995000       994492   -6901.1163    463.55624   -7364.6725    4224.2506   -11588.923    89.221751   -820.70429   -428.86763   -890.60477    5.3677757   -73.828509    41.638029      46.7237      46.7237      46.7237           90           90           90     102002.7   -713.39223 
  996000       995492   -6885.4384    479.14174   -7364.5802    4209.1965   -11573.777    92.221528   -307.88197    -607.4349   -625.99995   -16.537324   -11.855386    -125.5573      46.7237      46.7237      46.7237           90           90           90     102002.7   -513.77227 
  997000       996492   -6906.4972    466.30373    -7372.801    4204.1309   -11576.932    89.750568   -418.97186   -645.88564   -1039.5103   -25.921327   -87.937231   -13.492607      46.7237      46.7237      46.7237           90           90           90     102002.7   -701.45594 
  998000       997492    -6899.261    466.64019   -7365.9012    4224.4944   -11590.396    89.815327   -771.62442   -585.91294   -514.38548   -199.47926    118.91931    167.76256      46.7237      46.7237      46.7237           90           90           90     102002.7   -623.97428 
  999000       998492   -6889.3448    479.21559   -7368.5604    4210.7128   -11579.273    92.235743   -669.35707   -372.72163   -1234.5878    115.28798    24.725752    160.89861      46.7237      46.7237      46.7237           90           90           90     102002.7   -758.88884 
 1000000       999492   -6918.6724    457.76711   -7376.4396    4193.6057   -11570.045    88.107504   -844.11768   -537.59153   -309.61495   -138.11903   -31.130248    128.00708      46.7237      46.7237      46.7237           90           90           90     102002.7   -563.77472 
 1000508      1000000   -6911.1249    470.51163   -7381.6366    4187.5945   -11569.231    90.560471   -503.94641   -532.54909   -1041.4679   -105.91356   -320.05271    1.6800579      46.7237      46.7237      46.7237           90           90           90     102002.7   -692.65446 
Loop time of 1414.08 on 16 procs for 500000 steps with 1744 atoms

Performance: 30.550 ns/day, 0.786 hours/ns, 353.586 timesteps/s
99.9% CPU use with 16 MPI tasks x no OpenMP threads

MPI task timing breakdown:
Section |  min time  |  avg time  |  max time  |%varavg| %total
---------------------------------------------------------------
Pair    | 568.12     | 771.77     | 979.98     | 478.3 | 54.58
Bond    | 173.12     | 183.35     | 194.81     |  50.3 | 12.97
Neigh   | 3.3738     | 3.3957     | 3.4138     |   0.9 |  0.24
Comm    | 213.17     | 429.03     | 638        | 650.3 | 30.34
Output  | 0.094615   | 0.099674   | 0.10006    |   0.4 |  0.01
Modify  | 20.797     | 21.297     | 21.613     |   4.9 |  1.51
Other   |            | 5.144      |            |       |  0.36

Nlocal:    109 ave 133 max 89 min
Histogram: 2 2 2 0 4 1 1 2 0 2
Nghost:    2213.75 ave 2234 max 2193 min
Histogram: 2 0 2 1 4 2 1 0 2 2
Neighs:    11457.8 ave 16481 max 8258 min
Histogram: 5 2 0 2 1 1 3 0 0 2

Total # of neighbors = 183324
Ave neighs/atom = 105.117
Ave special neighs/atom = 6.6055
Neighbor list builds = 2950
Dangerous builds = 0
Total wall time: 0:44:55
