LAMMPS (30 Mar 2018)
Reading data file ...
  orthogonal box = (0 0 0) to (46.7237 46.7237 46.7237)
  2 by 2 by 4 MPI processor grid
  reading atoms ...
  2036 atoms
  scanning bonds ...
  5 = max bonds/atom
  scanning angles ...
  10 = max angles/atom
  scanning dihedrals ...
  32 = max dihedrals/atom
  scanning impropers ...
  3 = max impropers/atom
  reading bonds ...
  2064 bonds
  reading angles ...
  3696 angles
  reading dihedrals ...
  6240 dihedrals
  reading impropers ...
  1008 impropers
Finding 1-2 1-3 1-4 neighbors ...
  special bond factors lj:   0          0          0         
  special bond factors coul: 0          0          0         
  5 = max # of 1-2 neighbors
  8 = max # of 1-3 neighbors
  20 = max # of 1-4 neighbors
  19 = max # of special neighbors
Finding 1-2 1-3 1-4 neighbors ...
  special bond factors lj:   0          0          1         
  special bond factors coul: 1          1          1         
  5 = max # of 1-2 neighbors
  8 = max # of 1-3 neighbors
  19 = max # of special neighbors
WARNING: Using 'neigh_modify every 1 delay 0 check yes' setting during minimization (../min.cpp:168)
Neighbor list info ...
  update every 1 steps, delay 0 steps, check yes
  max neighbors/atom: 2000, page size: 100000
  master list distance cutoff = 16
  ghost atom cutoff = 16
  binsize = 8, bins = 6 6 6
  3 neighbor lists, perpetual/occasional/extra = 3 0 0
  (1) pair buck6d/coul/gauss/dsf, perpetual, skip from (3)
      attributes: half, newton on
      pair build: skip
      stencil: none
      bin: none
  (2) pair lj/cut, perpetual, skip from (3)
      attributes: half, newton on
      pair build: skip
      stencil: none
      bin: none
  (3) neighbor class addition, perpetual
      attributes: half, newton on
      pair build: half/bin/newton
      stencil: half/bin/3d/newton
      bin: standard
Setting up cg style minimization ...
  Unit style    : real
  Current step  : 0
WARNING: Inconsistent image flags (../domain.cpp:786)
Per MPI rank memory allocation (min/avg/max) = 22.91 | 23.37 | 23.81 Mbytes
Step Temp E_pair E_mol TotEng Press 
       0            0   -12518.338    6482.8914    -6035.447    6150.1611 
     501            0   -12589.788    3716.5607   -8873.2271   -593.34397 
Loop time of 3.35341 on 16 procs for 501 steps with 2036 atoms

99.9% CPU use with 16 MPI tasks x no OpenMP threads

Minimization stats:
  Stopping criterion = max force evaluations
  Energy initial, next-to-last, final = 
        -6035.44704344     -8873.20885886     -8873.22714788
  Force two-norm initial, final = 2574.46 6.66263
  Force max component initial, final = 152.066 1.03033
  Final line search alpha, max atom move = 0.00866507 0.00892789
  Iterations, force evaluations = 501 1001

MPI task timing breakdown:
Section |  min time  |  avg time  |  max time  |%varavg| %total
---------------------------------------------------------------
Pair    | 1.4045     | 1.8433     | 2.6112     |  25.0 | 54.97
Bond    | 0.23947    | 0.36066    | 0.45004    |   9.0 | 10.75
Neigh   | 0.023699   | 0.023795   | 0.023878   |   0.0 |  0.71
Comm    | 0.23462    | 1.0855     | 1.5685     |  34.6 | 32.37
Output  | 0          | 0          | 0          |   0.0 |  0.00
Modify  | 0          | 0          | 0          |   0.0 |  0.00
Other   |            | 0.04015    |            |       |  1.20

Nlocal:    127.25 ave 145 max 105 min
Histogram: 2 0 0 1 3 3 3 1 0 3
Nghost:    2476.12 ave 2498 max 2454 min
Histogram: 1 2 0 1 4 4 0 2 0 2
Neighs:    11457.4 ave 16866 max 8216 min
Histogram: 5 2 0 2 1 1 2 1 1 1

Total # of neighbors = 183318
Ave neighs/atom = 90.0383
Ave special neighs/atom = 5.65815
Neighbor list builds = 14
Dangerous builds = 0
Neighbor list info ...
  update every 1 steps, delay 10 steps, check yes
  max neighbors/atom: 2000, page size: 100000
  master list distance cutoff = 16
  ghost atom cutoff = 16
  binsize = 8, bins = 6 6 6
  3 neighbor lists, perpetual/occasional/extra = 3 0 0
  (1) pair buck6d/coul/gauss/dsf, perpetual, skip from (3)
      attributes: half, newton on
      pair build: skip
      stencil: none
      bin: none
  (2) pair lj/cut, perpetual, skip from (3)
      attributes: half, newton on
      pair build: skip
      stencil: none
      bin: none
  (3) neighbor class addition, perpetual
      attributes: half, newton on
      pair build: half/bin/newton
      stencil: half/bin/3d/newton
      bin: standard
Setting up Verlet run ...
  Unit style    : real
  Current step  : 501
  Time step     : 1
WARNING: Inconsistent image flags (../domain.cpp:786)
Per MPI rank memory allocation (min/avg/max) = 22.56 | 22.64 | 22.88 Mbytes
Step Temp PotEng TotEng Press Volume Lx Ly Lz 
     501           91   -8873.2271   -8321.2258   -345.96585     102002.7      46.7237      46.7237      46.7237 
    1000    78.025934   -8380.0138   -7906.7125   -468.14805     102002.7      46.7237      46.7237      46.7237 
    2000    94.929334   -8310.9558   -7735.1194   -311.45703     102002.7      46.7237      46.7237      46.7237 
    3000    88.725091   -8269.0445   -7730.8427   -445.78294     102002.7      46.7237      46.7237      46.7237 
    4000    89.678955   -8285.0843   -7741.0964   -561.82041     102002.7      46.7237      46.7237      46.7237 
    5000    87.740805   -8292.0279   -7759.7967   -523.53587     102002.7      46.7237      46.7237      46.7237 
    6000    90.904254   -8289.2736   -7737.8531   -637.04109     102002.7      46.7237      46.7237      46.7237 
    7000    91.767322   -8296.0903   -7739.4344   -554.79661     102002.7      46.7237      46.7237      46.7237 
    8000     86.98107   -8291.7445   -7764.1219   -747.37621     102002.7      46.7237      46.7237      46.7237 
    9000    92.320246   -8300.6419   -7740.6321   -748.81978     102002.7      46.7237      46.7237      46.7237 
   10000    89.863414   -8303.9922   -7758.8854   -544.77502     102002.7      46.7237      46.7237      46.7237 
   11000    93.858071   -8291.1804   -7721.8421   -959.71529     102002.7      46.7237      46.7237      46.7237 
   12000    90.855732   -8282.5124   -7731.3862   -620.36668     102002.7      46.7237      46.7237      46.7237 
   13000    91.783706   -8297.6982   -7740.9429   -381.02481     102002.7      46.7237      46.7237      46.7237 
   14000    89.151475    -8295.777   -7754.9887   -893.40411     102002.7      46.7237      46.7237      46.7237 
   15000    90.893899   -8293.1067    -7741.749   -507.81143     102002.7      46.7237      46.7237      46.7237 
   16000    91.263242   -8260.5633   -7706.9652   -849.62011     102002.7      46.7237      46.7237      46.7237 
   17000    92.090694    -8293.975   -7735.3576   -832.97106     102002.7      46.7237      46.7237      46.7237 
   18000    88.956104    -8279.822   -7740.2188    -718.0205     102002.7      46.7237      46.7237      46.7237 
   19000    93.574337   -8285.4592   -7717.8421   -881.24573     102002.7      46.7237      46.7237      46.7237 
   20000    92.641114   -8298.6628   -7736.7066   -693.37185     102002.7      46.7237      46.7237      46.7237 
   21000    93.671265   -8283.5441   -7715.3391   -799.79171     102002.7      46.7237      46.7237      46.7237 
   22000    91.864347   -8288.5342   -7731.2898   -465.30794     102002.7      46.7237      46.7237      46.7237 
   23000    89.214518   -8306.1903   -7765.0197   -641.36509     102002.7      46.7237      46.7237      46.7237 
   24000    90.352944   -8278.0941   -7730.0178   -852.56427     102002.7      46.7237      46.7237      46.7237 
   25000    89.855337   -8287.2033   -7742.1454    -732.0208     102002.7      46.7237      46.7237      46.7237 
   26000     90.02768   -8278.9622   -7732.8589   -666.30408     102002.7      46.7237      46.7237      46.7237 
   27000    86.848625   -8293.0922   -7766.2729   -806.38078     102002.7      46.7237      46.7237      46.7237 
   28000    91.709522   -8285.4649   -7729.1597   -760.50715     102002.7      46.7237      46.7237      46.7237 
   29000    92.245874   -8285.4225   -7725.8638   -742.37932     102002.7      46.7237      46.7237      46.7237 
   30000    89.537694   -8279.3729   -7736.2418   -579.02938     102002.7      46.7237      46.7237      46.7237 
   31000    88.904104   -8301.7024   -7762.4147   -682.18668     102002.7      46.7237      46.7237      46.7237 
   32000    89.735718   -8291.9591   -7747.6269   -971.70467     102002.7      46.7237      46.7237      46.7237 
   33000    91.196051   -8286.7166   -7733.5261   -487.09437     102002.7      46.7237      46.7237      46.7237 
   34000    91.977284    -8291.981   -7734.0515   -811.52128     102002.7      46.7237      46.7237      46.7237 
   35000    92.415585   -8283.1008   -7722.5126   -475.44895     102002.7      46.7237      46.7237      46.7237 
   36000    92.337481   -8272.6205   -7712.5061    -533.4685     102002.7      46.7237      46.7237      46.7237 
   37000     90.08846   -8290.5982   -7744.1263   -555.99915     102002.7      46.7237      46.7237      46.7237 
   38000    90.624241   -8275.2325   -7725.5105   -436.61826     102002.7      46.7237      46.7237      46.7237 
   39000    91.757535   -8307.6395   -7751.0431   -630.49145     102002.7      46.7237      46.7237      46.7237 
   40000    92.305642   -8296.7187   -7736.7974   -659.65875     102002.7      46.7237      46.7237      46.7237 
   41000    90.143788   -8268.9729   -7722.1653   -457.59241     102002.7      46.7237      46.7237      46.7237 
   42000     91.08026   -8273.3164   -7720.8283   -503.92651     102002.7      46.7237      46.7237      46.7237 
   43000    90.520153   -8286.4986    -7737.408   -527.78709     102002.7      46.7237      46.7237      46.7237 
   44000    88.729888   -8300.3367   -7762.1058   -521.69693     102002.7      46.7237      46.7237      46.7237 
   45000    88.084826   -8271.4535   -7737.1355   -492.64006     102002.7      46.7237      46.7237      46.7237 
   46000    91.850164   -8284.4561   -7727.2978   -729.83729     102002.7      46.7237      46.7237      46.7237 
   47000    87.568688   -8287.8132   -7756.6261   -682.00944     102002.7      46.7237      46.7237      46.7237 
   48000    93.953615   -8288.2213   -7718.3035   -716.01661     102002.7      46.7237      46.7237      46.7237 
   49000    89.256736   -8285.9712   -7744.5444   -705.97211     102002.7      46.7237      46.7237      46.7237 
   50000    93.428731   -8304.9669    -7738.233   -282.92049     102002.7      46.7237      46.7237      46.7237 
   51000    88.761818   -8293.4073   -7754.9827   -474.05962     102002.7      46.7237      46.7237      46.7237 
   52000    88.824373    -8267.226   -7728.4219   -470.69123     102002.7      46.7237      46.7237      46.7237 
   53000    95.496896   -8278.9624   -7699.6831   -527.69953     102002.7      46.7237      46.7237      46.7237 
   54000    91.740078   -8296.1353   -7739.6447   -668.98017     102002.7      46.7237      46.7237      46.7237 
   55000    87.709106   -8294.5157   -7762.4768   -703.32534     102002.7      46.7237      46.7237      46.7237 
   56000    93.101227   -8301.0862    -7736.339   -784.55344     102002.7      46.7237      46.7237      46.7237 
   57000    93.661547   -8282.2755   -7714.1294   -665.49665     102002.7      46.7237      46.7237      46.7237 
   58000    89.247597   -8277.7948   -7736.4235   -577.18387     102002.7      46.7237      46.7237      46.7237 
   59000    90.944085   -8309.5985   -7757.9364   -620.89281     102002.7      46.7237      46.7237      46.7237 
   60000    90.328387   -8277.3622   -7729.4349   -760.90865     102002.7      46.7237      46.7237      46.7237 
   61000    90.590825    -8297.504   -7747.9847   -571.95935     102002.7      46.7237      46.7237      46.7237 
   62000    87.796709   -8291.8351   -7759.2648   -730.23115     102002.7      46.7237      46.7237      46.7237 
   63000    93.635723   -8268.3326   -7700.3431    -906.9681     102002.7      46.7237      46.7237      46.7237 
   64000    90.935894   -8272.9202   -7721.3077   -846.26371     102002.7      46.7237      46.7237      46.7237 
   65000    91.993263   -8267.9315   -7709.9051   -684.36338     102002.7      46.7237      46.7237      46.7237 
   66000    90.295628   -8289.0167    -7741.288   -529.33966     102002.7      46.7237      46.7237      46.7237 
   67000    90.739684   -8300.0606   -7749.6384    -712.5936     102002.7      46.7237      46.7237      46.7237 
   68000    88.733496   -8279.9286   -7741.6757   -761.56208     102002.7      46.7237      46.7237      46.7237 
   69000    93.643802    -8271.969   -7703.9306   -826.83396     102002.7      46.7237      46.7237      46.7237 
   70000    92.314523   -8288.0215   -7728.0463   -678.51695     102002.7      46.7237      46.7237      46.7237 
   71000    91.365262   -8274.6274   -7720.4105   -577.27486     102002.7      46.7237      46.7237      46.7237 
   72000    89.356046   -8265.0674   -7723.0382   -694.53559     102002.7      46.7237      46.7237      46.7237 
   73000     91.66605   -8254.7576   -7698.7161   -719.65566     102002.7      46.7237      46.7237      46.7237 
   74000    89.539387   -8296.7479   -7753.6066   -672.77525     102002.7      46.7237      46.7237      46.7237 
   75000    91.322203   -8276.0982   -7722.1424   -515.03635     102002.7      46.7237      46.7237      46.7237 
   76000    93.108907   -8285.1283   -7720.3344   -794.61811     102002.7      46.7237      46.7237      46.7237 
   77000     92.57505   -8284.3112   -7722.7557   -396.94897     102002.7      46.7237      46.7237      46.7237 
   78000     92.68042   -8287.5658   -7725.3711   -779.08094     102002.7      46.7237      46.7237      46.7237 
   79000    89.981438   -8297.0407   -7751.2179   -744.81862     102002.7      46.7237      46.7237      46.7237 
   80000    89.366006   -8282.6152   -7740.5256   -677.58772     102002.7      46.7237      46.7237      46.7237 
   81000    87.726978   -8281.8774     -7749.73   -723.40571     102002.7      46.7237      46.7237      46.7237 
   82000    93.925939   -8284.9781   -7715.2282   -667.84566     102002.7      46.7237      46.7237      46.7237 
   83000    90.159972   -8259.4853   -7712.5796   -693.36801     102002.7      46.7237      46.7237      46.7237 
   84000     91.76689   -8285.4068   -7728.7536   -516.73056     102002.7      46.7237      46.7237      46.7237 
   85000    88.343284   -8276.9162   -7741.0303   -778.36983     102002.7      46.7237      46.7237      46.7237 
   86000     90.83298   -8294.5838   -7743.5956   -619.38202     102002.7      46.7237      46.7237      46.7237 
   87000    91.643206    -8282.109    -7726.206   -600.58544     102002.7      46.7237      46.7237      46.7237 
   88000    91.267482   -8261.0051   -7707.3813   -786.55743     102002.7      46.7237      46.7237      46.7237 
   89000    91.637731   -8289.6684   -7733.7986   -807.50988     102002.7      46.7237      46.7237      46.7237 
   90000    85.996015   -8293.8091   -7772.1617   -961.09949     102002.7      46.7237      46.7237      46.7237 
   91000    92.758937   -8274.3013   -7711.6303    -694.3195     102002.7      46.7237      46.7237      46.7237 
   92000    89.307888   -8275.1277   -7733.3906   -667.35644     102002.7      46.7237      46.7237      46.7237 
   93000     90.67254   -8264.8382   -7714.8233    -628.7875     102002.7      46.7237      46.7237      46.7237 
   94000    88.959496   -8291.6279   -7752.0042   -834.04239     102002.7      46.7237      46.7237      46.7237 
   95000    88.993594   -8271.0313   -7731.2007   -909.24118     102002.7      46.7237      46.7237      46.7237 
   96000    91.226836   -8275.5367   -7722.1594   -811.62562     102002.7      46.7237      46.7237      46.7237 
   97000    88.916481    -8267.672   -7728.3092   -658.60995     102002.7      46.7237      46.7237      46.7237 
   98000    90.749575   -8285.4726   -7734.9904    -1059.357     102002.7      46.7237      46.7237      46.7237 
   99000    89.837937   -8286.9622   -7742.0099   -768.21423     102002.7      46.7237      46.7237      46.7237 
  100000    92.653218   -8273.9672   -7711.9376   -845.68151     102002.7      46.7237      46.7237      46.7237 
  101000    91.253167   -8282.4936   -7728.9566   -836.58959     102002.7      46.7237      46.7237      46.7237 
  102000     90.76965    -8269.001    -7718.397   -686.10183     102002.7      46.7237      46.7237      46.7237 
  103000    89.290761   -8275.0464   -7733.4132   -668.33849     102002.7      46.7237      46.7237      46.7237 
  104000    88.549814   -8278.8444   -7741.7058   -786.57774     102002.7      46.7237      46.7237      46.7237 
  105000    93.700064   -8304.7972   -7736.4175   -779.99503     102002.7      46.7237      46.7237      46.7237 
  106000    93.240642   -8279.2316   -7713.6387   -786.93114     102002.7      46.7237      46.7237      46.7237 
  107000    92.756962   -8297.3472   -7734.6882     -934.515     102002.7      46.7237      46.7237      46.7237 
  108000    90.880931   -8287.6162   -7736.3371   -755.60206     102002.7      46.7237      46.7237      46.7237 
  109000    89.996489   -8294.8538   -7748.9398   -792.98653     102002.7      46.7237      46.7237      46.7237 
  110000    87.845417   -8294.8973   -7762.0315   -465.79868     102002.7      46.7237      46.7237      46.7237 
  111000    92.156068   -8276.9633   -7717.9493   -628.97653     102002.7      46.7237      46.7237      46.7237 
  112000    92.677577   -8288.8548   -7726.6774   -575.53956     102002.7      46.7237      46.7237      46.7237 
  113000    89.387273   -8288.6441   -7746.4255   -601.87464     102002.7      46.7237      46.7237      46.7237 
  114000    88.285459   -8281.5236   -7745.9885   -725.51512     102002.7      46.7237      46.7237      46.7237 
  115000    91.739604   -8293.6595   -7737.1718   -255.59375     102002.7      46.7237      46.7237      46.7237 
  116000    91.818501   -8272.8515   -7715.8852   -727.70153     102002.7      46.7237      46.7237      46.7237 
  117000    92.111054   -8270.0645   -7711.3236   -533.81587     102002.7      46.7237      46.7237      46.7237 
  118000    93.824805   -8292.9266   -7723.7902   -475.67801     102002.7      46.7237      46.7237      46.7237 
  119000    88.861031   -8282.2366   -7743.2102   -713.07524     102002.7      46.7237      46.7237      46.7237 
  120000    91.836811    -8295.931   -7738.8536   -771.11334     102002.7      46.7237      46.7237      46.7237 
  121000    91.593524   -8288.5637   -7732.9621   -607.38323     102002.7      46.7237      46.7237      46.7237 
  122000    89.655141   -8306.6017   -7762.7582   -608.01272     102002.7      46.7237      46.7237      46.7237 
  123000    92.318645   -8291.4886   -7731.4885   -725.81045     102002.7      46.7237      46.7237      46.7237 
  124000    92.384404   -8282.9524   -7722.5534     -784.285     102002.7      46.7237      46.7237      46.7237 
  125000    91.539896   -8286.9557   -7731.6794   -569.51947     102002.7      46.7237      46.7237      46.7237 
  126000    93.516572   -8299.3429   -7732.0762   -967.51491     102002.7      46.7237      46.7237      46.7237 
  127000    93.053347   -8281.0802   -7716.6234   -699.21803     102002.7      46.7237      46.7237      46.7237 
  128000    90.669048   -8300.9669   -7750.9731   -576.93895     102002.7      46.7237      46.7237      46.7237 
  129000    89.246011   -8296.1095   -7754.7478   -779.24873     102002.7      46.7237      46.7237      46.7237 
  130000    91.338614   -8286.3151   -7732.2598   -543.60077     102002.7      46.7237      46.7237      46.7237 
  131000    89.301647   -8292.7677   -7751.0686   -633.79737     102002.7      46.7237      46.7237      46.7237 
  132000    90.593942    -8302.406   -7752.8678   -506.56861     102002.7      46.7237      46.7237      46.7237 
  133000    91.184591   -8289.9416   -7736.8206   -770.44532     102002.7      46.7237      46.7237      46.7237 
  134000    93.741083   -8282.8536    -7714.225   -633.01301     102002.7      46.7237      46.7237      46.7237 
  135000    92.499121   -8282.2893   -7721.1944   -474.75415     102002.7      46.7237      46.7237      46.7237 
  136000    90.856999   -8286.5656   -7735.4317   -1013.8805     102002.7      46.7237      46.7237      46.7237 
  137000    94.232674   -8276.5826   -7704.9721   -582.85083     102002.7      46.7237      46.7237      46.7237 
  138000     89.18721   -8302.2626   -7761.2575   -627.28713     102002.7      46.7237      46.7237      46.7237 
  139000    90.585613    -8285.117   -7735.6293   -996.84137     102002.7      46.7237      46.7237      46.7237 
  140000    92.101283   -8277.3623   -7718.6806   -729.30944     102002.7      46.7237      46.7237      46.7237 
  141000    90.577648   -8297.1025   -7747.6632   -761.48572     102002.7      46.7237      46.7237      46.7237 
  142000    93.466044   -8292.0216   -7725.0613   -747.12932     102002.7      46.7237      46.7237      46.7237 
  143000    90.448688   -8288.5121    -7739.855   -375.50357     102002.7      46.7237      46.7237      46.7237 
  144000    91.819754   -8301.0611   -7744.0872   -697.17429     102002.7      46.7237      46.7237      46.7237 
  145000    92.538181   -8278.3314   -7716.9996   -766.44799     102002.7      46.7237      46.7237      46.7237 
  146000    89.203344   -8278.2778   -7737.1749   -677.26494     102002.7      46.7237      46.7237      46.7237 
  147000    90.863992   -8275.6645   -7724.4882     -908.704     102002.7      46.7237      46.7237      46.7237 
  148000    92.024803   -8266.6567    -7708.439   -704.57067     102002.7      46.7237      46.7237      46.7237 
  149000    89.071508    -8287.659   -7747.3558    -771.1848     102002.7      46.7237      46.7237      46.7237 
  150000    91.235788   -8278.6219   -7725.1903   -840.84403     102002.7      46.7237      46.7237      46.7237 
  151000    93.152736   -8272.0746   -7707.0149   -849.04097     102002.7      46.7237      46.7237      46.7237 
  152000    88.958019   -8264.7189   -7725.1042   -676.78503     102002.7      46.7237      46.7237      46.7237 
  153000    89.444571   -8264.2744   -7721.7083   -511.85976     102002.7      46.7237      46.7237      46.7237 
  154000    89.851494   -8280.7738   -7735.7392   -844.39604     102002.7      46.7237      46.7237      46.7237 
  155000    94.833423   -8276.3325   -7701.0779   -571.98695     102002.7      46.7237      46.7237      46.7237 
  156000    92.327905   -8293.4661   -7733.4098   -797.31183     102002.7      46.7237      46.7237      46.7237 
  157000    88.489241    -8291.632   -7754.8608   -868.70312     102002.7      46.7237      46.7237      46.7237 
  158000    91.441564   -8272.7002   -7718.0204   -770.52147     102002.7      46.7237      46.7237      46.7237 
  159000    90.018169   -8277.2128   -7731.1672   -802.10437     102002.7      46.7237      46.7237      46.7237 
  160000    90.418829   -8290.1155   -7741.6396     -744.254     102002.7      46.7237      46.7237      46.7237 
  161000    89.366478   -8266.5342   -7724.4418   -527.80131     102002.7      46.7237      46.7237      46.7237 
  162000    95.207261   -8285.6049   -7708.0826   -758.04144     102002.7      46.7237      46.7237      46.7237 
  163000    88.546163   -8300.9546   -7763.8381   -466.58537     102002.7      46.7237      46.7237      46.7237 
  164000    87.972254   -8269.6318   -7735.9967   -538.18367     102002.7      46.7237      46.7237      46.7237 
  165000       91.234   -8285.2193   -7731.7986   -770.98848     102002.7      46.7237      46.7237      46.7237 
  166000    90.162865   -8275.2546   -7728.3313   -411.50089     102002.7      46.7237      46.7237      46.7237 
  167000    88.908256   -8279.8741   -7740.5612   -548.73105     102002.7      46.7237      46.7237      46.7237 
  168000     92.46891   -8282.6474   -7721.7357   -674.39982     102002.7      46.7237      46.7237      46.7237 
  169000    90.432638   -8277.6102   -7729.0504   -648.11326     102002.7      46.7237      46.7237      46.7237 
  170000    90.738824   -8278.9302   -7728.5132   -803.26024     102002.7      46.7237      46.7237      46.7237 
  171000    90.685739   -8245.1688   -7695.0738   -867.13487     102002.7      46.7237      46.7237      46.7237 
  172000    90.257214   -8270.5899   -7723.0943   -709.17638     102002.7      46.7237      46.7237      46.7237 
  173000     91.73381   -8285.5982   -7729.1456    -663.2341     102002.7      46.7237      46.7237      46.7237 
  174000    91.100165   -8294.4421   -7741.8332    -440.9118     102002.7      46.7237      46.7237      46.7237 
  175000    93.108847   -8294.2903   -7729.4968   -738.31279     102002.7      46.7237      46.7237      46.7237 
  176000    89.846122   -8286.5655   -7741.5636   -475.59649     102002.7      46.7237      46.7237      46.7237 
  177000    92.059593   -8262.6771   -7704.2483   -488.45014     102002.7      46.7237      46.7237      46.7237 
  178000     90.68775    -8294.287   -7744.1798   -981.38125     102002.7      46.7237      46.7237      46.7237 
  179000    90.791079   -8279.5696   -7728.8356   -693.96816     102002.7      46.7237      46.7237      46.7237 
  180000    90.411539   -8292.6069   -7744.1751    -487.5954     102002.7      46.7237      46.7237      46.7237 
  181000    91.461635   -8283.5713   -7728.7697   -730.72985     102002.7      46.7237      46.7237      46.7237 
  182000     92.53905   -8283.7026   -7722.3655   -607.05064     102002.7      46.7237      46.7237      46.7237 
  183000    90.046267   -8282.2179   -7736.0019   -573.08611     102002.7      46.7237      46.7237      46.7237 
  184000    91.440125   -8266.2574   -7711.5863   -731.50398     102002.7      46.7237      46.7237      46.7237 
  185000    89.280766   -8283.4494   -7741.8769   -780.49183     102002.7      46.7237      46.7237      46.7237 
  186000    92.379059   -8266.6184   -7706.2518   -610.89168     102002.7      46.7237      46.7237      46.7237 
  187000    90.496796   -8265.6717   -7716.7228   -587.06896     102002.7      46.7237      46.7237      46.7237 
  188000    89.898731   -8278.1048   -7732.7837   -626.40304     102002.7      46.7237      46.7237      46.7237 
  189000      90.4228   -8289.1462   -7740.6461    -620.4693     102002.7      46.7237      46.7237      46.7237 
  190000    91.928846   -8299.0175   -7741.3819   -537.72336     102002.7      46.7237      46.7237      46.7237 
  191000     89.46433   -8275.8965   -7733.2105   -943.25576     102002.7      46.7237      46.7237      46.7237 
  192000    90.469799   -8286.3449   -7737.5598   -901.90041     102002.7      46.7237      46.7237      46.7237 
  193000    92.211352   -8293.1098   -7733.7604   -635.37261     102002.7      46.7237      46.7237      46.7237 
  194000    90.822083   -8303.7272   -7752.8051    -563.2427     102002.7      46.7237      46.7237      46.7237 
  195000    89.483173   -8284.7971   -7741.9968   -832.05197     102002.7      46.7237      46.7237      46.7237 
  196000    89.790056   -8300.8759   -7756.2141   -702.07137     102002.7      46.7237      46.7237      46.7237 
  197000    91.616976   -8272.1884   -7716.4445   -928.91924     102002.7      46.7237      46.7237      46.7237 
  198000    93.459938   -8275.4278   -7708.5046     -639.453     102002.7      46.7237      46.7237      46.7237 
  199000     91.83928   -8286.7257   -7729.6333   -873.82052     102002.7      46.7237      46.7237      46.7237 
  200000    89.157733   -8287.4014   -7746.5752   -667.40275     102002.7      46.7237      46.7237      46.7237 
  201000    91.954663   -8283.3096   -7725.5174   -776.99461     102002.7      46.7237      46.7237      46.7237 
  202000    88.813366   -8274.4953    -7735.758   -840.70041     102002.7      46.7237      46.7237      46.7237 
  203000     91.72658   -8253.3186   -7696.9099   -565.03328     102002.7      46.7237      46.7237      46.7237 
  204000    90.817945   -8302.4159    -7751.519   -534.17105     102002.7      46.7237      46.7237      46.7237 
  205000     91.59901   -8278.6582   -7723.0233   -638.75316     102002.7      46.7237      46.7237      46.7237 
  206000    91.987803   -8284.3111   -7726.3178   -709.71737     102002.7      46.7237      46.7237      46.7237 
  207000    88.770551   -8311.9075   -7773.4299    -852.7621     102002.7      46.7237      46.7237      46.7237 
  208000    86.560494   -8265.5564   -7740.4849   -999.76575     102002.7      46.7237      46.7237      46.7237 
  209000    88.706617   -8305.1878    -7767.098   -714.61473     102002.7      46.7237      46.7237      46.7237 
  210000    90.552985   -8281.5513   -7732.2616    -1062.433     102002.7      46.7237      46.7237      46.7237 
  211000    90.557901    -8276.738   -7727.4185   -751.48927     102002.7      46.7237      46.7237      46.7237 
  212000    91.641307   -8277.8906   -7721.9991   -635.84516     102002.7      46.7237      46.7237      46.7237 
  213000    90.318688   -8282.3798   -7734.5113   -823.28315     102002.7      46.7237      46.7237      46.7237 
  214000     90.54514   -8271.7696   -7722.5275   -592.70784     102002.7      46.7237      46.7237      46.7237 
  215000    91.455504   -8286.1085   -7731.3441    -618.2534     102002.7      46.7237      46.7237      46.7237 
  216000     92.33072   -8277.1939   -7717.1205   -641.42174     102002.7      46.7237      46.7237      46.7237 
  217000    91.053539   -8274.1047   -7721.7786   -832.21565     102002.7      46.7237      46.7237      46.7237 
  218000      92.2436   -8265.3323   -7705.7873   -850.87559     102002.7      46.7237      46.7237      46.7237 
  219000    89.962371   -8277.5985   -7731.8914   -647.99962     102002.7      46.7237      46.7237      46.7237 
  220000    92.300065   -8272.0286   -7712.1412   -731.67065     102002.7      46.7237      46.7237      46.7237 
  221000    90.806094   -8288.5827   -7737.7577   -859.20521     102002.7      46.7237      46.7237      46.7237 
  222000    90.318276   -8280.1568   -7732.2908   -424.23049     102002.7      46.7237      46.7237      46.7237 
  223000    92.364406   -8281.3848    -7721.107   -755.62528     102002.7      46.7237      46.7237      46.7237 
  224000    90.623989   -8282.3927   -7732.6722   -611.53761     102002.7      46.7237      46.7237      46.7237 
  225000    90.260303   -8271.6679   -7724.1535   -549.74435     102002.7      46.7237      46.7237      46.7237 
  226000     91.53612   -8288.3186   -7733.0652   -791.45561     102002.7      46.7237      46.7237      46.7237 
  227000    88.580053   -8284.2604   -7746.9383   -696.54921     102002.7      46.7237      46.7237      46.7237 
  228000    90.003662   -8271.0302   -7725.0726    -701.2433     102002.7      46.7237      46.7237      46.7237 
  229000    89.781102   -8291.4226    -7746.815   -573.49441     102002.7      46.7237      46.7237      46.7237 
  230000    88.987405   -8273.2085   -7733.4155   -662.81003     102002.7      46.7237      46.7237      46.7237 
  231000    92.205337   -8276.9915   -7717.6787   -964.63161     102002.7      46.7237      46.7237      46.7237 
  232000     91.62459   -8287.8586   -7732.0686   -657.48252     102002.7      46.7237      46.7237      46.7237 
  233000    90.093809   -8265.8794    -7719.375   -1093.5026     102002.7      46.7237      46.7237      46.7237 
  234000    91.418216   -8291.5254   -7736.9872    -1015.233     102002.7      46.7237      46.7237      46.7237 
  235000    90.333601   -8284.5782   -7736.6193   -597.93555     102002.7      46.7237      46.7237      46.7237 
  236000    93.082062    -8282.924    -7718.293   -955.32427     102002.7      46.7237      46.7237      46.7237 
  237000    88.072589   -8269.0252   -7734.7814   -462.54182     102002.7      46.7237      46.7237      46.7237 
  238000    91.833084   -8274.2923   -7717.2376   -938.97842     102002.7      46.7237      46.7237      46.7237 
  239000    93.628876   -8286.3761   -7718.4281   -748.94429     102002.7      46.7237      46.7237      46.7237 
  240000    88.609077   -8287.5765   -7750.0784   -600.78064     102002.7      46.7237      46.7237      46.7237 
  241000    90.475536   -8284.0895   -7735.2696   -709.46351     102002.7      46.7237      46.7237      46.7237 
  242000    92.444333   -8290.7362   -7729.9736    -581.2509     102002.7      46.7237      46.7237      46.7237 
  243000    93.229149    -8291.657   -7726.1338   -827.93707     102002.7      46.7237      46.7237      46.7237 
  244000     93.01206   -8299.9305   -7735.7242   -748.34694     102002.7      46.7237      46.7237      46.7237 
  245000    92.765282   -8269.2694     -7706.56    -643.5609     102002.7      46.7237      46.7237      46.7237 
  246000    88.971933   -8269.0889   -7729.3897   -1063.9661     102002.7      46.7237      46.7237      46.7237 
  247000     90.68465   -8288.9401   -7738.8517   -959.83539     102002.7      46.7237      46.7237      46.7237 
  248000    88.947501   -8270.6634   -7731.1124   -811.62292     102002.7      46.7237      46.7237      46.7237 
  249000    90.009755   -8281.6057   -7735.6112   -1018.6561     102002.7      46.7237      46.7237      46.7237 
  250000    94.548251   -8267.9658    -7694.441   -740.23748     102002.7      46.7237      46.7237      46.7237 
  251000    88.557823   -8273.1925   -7736.0053   -595.30323     102002.7      46.7237      46.7237      46.7237 
  252000    91.638502   -8282.9712   -7727.0968   -733.32114     102002.7      46.7237      46.7237      46.7237 
  253000    89.343876   -8292.2414   -7750.2861   -807.72454     102002.7      46.7237      46.7237      46.7237 
  254000    89.559112   -8281.8108   -7738.5498   -969.71455     102002.7      46.7237      46.7237      46.7237 
  255000    91.445011   -8275.3995   -7720.6988   -831.50117     102002.7      46.7237      46.7237      46.7237 
  256000    92.088146   -8277.9154   -7719.3135   -699.91042     102002.7      46.7237      46.7237      46.7237 
  257000    90.159141   -8267.1272   -7720.2265   -610.55757     102002.7      46.7237      46.7237      46.7237 
  258000    88.500984   -8277.0427   -7740.2003   -802.32885     102002.7      46.7237      46.7237      46.7237 
  259000    90.191403   -8285.9549   -7738.8585    -519.8055     102002.7      46.7237      46.7237      46.7237 
  260000    89.713519    -8277.181   -7732.9834   -546.48393     102002.7      46.7237      46.7237      46.7237 
  261000    90.960156   -8277.3853   -7725.6256    -828.2419     102002.7      46.7237      46.7237      46.7237 
  262000    90.092201    -8296.475   -7749.9803   -783.99986     102002.7      46.7237      46.7237      46.7237 
  263000    91.039229   -8276.2401   -7724.0008   -656.51346     102002.7      46.7237      46.7237      46.7237 
  264000    90.265311   -8273.4545   -7725.9098   -812.59132     102002.7      46.7237      46.7237      46.7237 
  265000    91.897241   -8279.6008   -7722.1569     -643.361     102002.7      46.7237      46.7237      46.7237 
  266000    92.659601   -8272.6206   -7710.5522   -811.94009     102002.7      46.7237      46.7237      46.7237 
  267000    89.615483   -8260.5232   -7716.9203   -702.54947     102002.7      46.7237      46.7237      46.7237 
  268000    89.330664    -8302.302   -7760.4268   -903.53256     102002.7      46.7237      46.7237      46.7237 
  269000    91.010836    -8288.298   -7736.2309   -861.27318     102002.7      46.7237      46.7237      46.7237 
  270000    93.210403   -8259.0398   -7693.6303   -642.47246     102002.7      46.7237      46.7237      46.7237 
  271000    90.856435   -8276.6579   -7725.5275   -973.33777     102002.7      46.7237      46.7237      46.7237 
  272000      89.1374   -8302.6377   -7761.9348   -833.33304     102002.7      46.7237      46.7237      46.7237 
  273000    92.770825   -8280.1085   -7717.3655   -634.07194     102002.7      46.7237      46.7237      46.7237 
  274000    92.910469   -8277.6566   -7714.0665    -792.2409     102002.7      46.7237      46.7237      46.7237 
  275000    89.905183   -8260.2096   -7714.8494   -670.40683     102002.7      46.7237      46.7237      46.7237 
  276000    91.139367   -8299.4056   -7746.5589   -693.81757     102002.7      46.7237      46.7237      46.7237 
  277000    91.031957   -8282.3662    -7730.171   -650.71689     102002.7      46.7237      46.7237      46.7237 
  278000    92.742366   -8268.6158   -7706.0454     -374.031     102002.7      46.7237      46.7237      46.7237 
  279000    89.959254   -8283.0812    -7737.393   -720.89964     102002.7      46.7237      46.7237      46.7237 
  280000    92.033414   -8298.7246   -7740.4546   -364.38599     102002.7      46.7237      46.7237      46.7237 
  281000    92.431158   -8274.7729   -7714.0902   -340.77474     102002.7      46.7237      46.7237      46.7237 
  282000    87.929268   -8290.9406   -7757.5662   -622.00318     102002.7      46.7237      46.7237      46.7237 
  283000    92.538318   -8292.8559   -7731.5232   -262.90752     102002.7      46.7237      46.7237      46.7237 
  284000    89.196111   -8285.3057   -7744.2467   -726.60844     102002.7      46.7237      46.7237      46.7237 
  285000    89.683186   -8283.7914   -7739.7778   -609.85151     102002.7      46.7237      46.7237      46.7237 
  286000    92.218581   -8278.1063   -7718.7131   -785.79134     102002.7      46.7237      46.7237      46.7237 
  287000    91.778258    -8300.837   -7744.1149   -733.26254     102002.7      46.7237      46.7237      46.7237 
  288000    93.266484   -8278.8679   -7713.1182    -512.9344     102002.7      46.7237      46.7237      46.7237 
  289000    91.710378   -8277.9884    -7721.678   -558.46616     102002.7      46.7237      46.7237      46.7237 
  290000    91.195921   -8276.6259   -7723.4361    -788.3591     102002.7      46.7237      46.7237      46.7237 
  291000    91.018886   -8290.3687   -7738.2528   -717.63545     102002.7      46.7237      46.7237      46.7237 
  292000    90.148744   -8277.4888   -7730.6512   -829.54789     102002.7      46.7237      46.7237      46.7237 
  293000    90.240177   -8288.1115   -7740.7192    -697.0264     102002.7      46.7237      46.7237      46.7237 
  294000    90.738072   -8274.2969   -7723.8844   -678.48669     102002.7      46.7237      46.7237      46.7237 
  295000    92.908437   -8271.0162   -7707.4385   -628.53348     102002.7      46.7237      46.7237      46.7237 
  296000    89.700733   -8280.9382   -7736.8182   -702.96852     102002.7      46.7237      46.7237      46.7237 
  297000    89.972082   -8299.1488   -7753.3828   -619.53945     102002.7      46.7237      46.7237      46.7237 
  298000    90.476121   -8258.4185    -7709.595   -858.55503     102002.7      46.7237      46.7237      46.7237 
  299000     85.47881   -8280.2528   -7761.7428   -768.54304     102002.7      46.7237      46.7237      46.7237 
  300000    92.396275   -8283.6562   -7723.1852   -739.61238     102002.7      46.7237      46.7237      46.7237 
  301000    93.368043   -8284.5208   -7718.1551   -900.00429     102002.7      46.7237      46.7237      46.7237 
  302000    90.300629   -8271.2402   -7723.4813    -490.8929     102002.7      46.7237      46.7237      46.7237 
  303000    91.177249   -8275.0474   -7721.9709   -840.90984     102002.7      46.7237      46.7237      46.7237 
  304000    93.473419   -8280.7282   -7713.7233   -485.85625     102002.7      46.7237      46.7237      46.7237 
  305000    91.315132   -8279.4293   -7725.5165   -741.62212     102002.7      46.7237      46.7237      46.7237 
  306000     91.01314   -8303.2493   -7751.1683    -805.9142     102002.7      46.7237      46.7237      46.7237 
  307000    89.107417   -8281.8666   -7741.3456   -554.72352     102002.7      46.7237      46.7237      46.7237 
  308000    89.906223   -8264.7069   -7719.3404   -1017.2102     102002.7      46.7237      46.7237      46.7237 
  309000    90.386309   -8291.1263   -7742.8476   -547.09713     102002.7      46.7237      46.7237      46.7237 
  310000    94.265941   -8272.0034   -7700.1911   -483.93679     102002.7      46.7237      46.7237      46.7237 
  311000    88.917914   -8277.3392   -7737.9678   -773.58586     102002.7      46.7237      46.7237      46.7237 
  312000    91.362771   -8288.5823   -7734.3804   -687.21427     102002.7      46.7237      46.7237      46.7237 
  313000     93.02274   -8275.6312   -7711.3601   -796.24882     102002.7      46.7237      46.7237      46.7237 
  314000    91.629885   -8295.5148   -7739.6926   -437.85148     102002.7      46.7237      46.7237      46.7237 
  315000    89.828379   -8275.0599   -7730.1656   -655.53598     102002.7      46.7237      46.7237      46.7237 
  316000    89.409713   -8279.9044   -7737.5497   -561.09338     102002.7      46.7237      46.7237      46.7237 
  317000    89.573826   -8267.4864   -7724.1362   -599.80017     102002.7      46.7237      46.7237      46.7237 
  318000    92.265263   -8295.3636   -7735.6873   -495.23499     102002.7      46.7237      46.7237      46.7237 
  319000    91.884126   -8292.0294    -7734.665   -307.55658     102002.7      46.7237      46.7237      46.7237 
  320000    93.567677   -8268.1029   -7700.5262   -613.49566     102002.7      46.7237      46.7237      46.7237 
  321000    89.731464   -8282.1715    -7737.865   -621.62041     102002.7      46.7237      46.7237      46.7237 
  322000    92.401474   -8276.6406    -7716.138   -840.30047     102002.7      46.7237      46.7237      46.7237 
  323000     88.62559   -8286.2838   -7748.6856   -867.77469     102002.7      46.7237      46.7237      46.7237 
  324000    86.526304    -8280.686   -7755.8219   -531.52247     102002.7      46.7237      46.7237      46.7237 
  325000    90.354978   -8284.4856    -7736.397   -414.70043     102002.7      46.7237      46.7237      46.7237 
  326000    91.275597   -8276.8151    -7723.142    -679.3615     102002.7      46.7237      46.7237      46.7237 
  327000    90.932851   -8284.1839   -7732.5899    -452.1805     102002.7      46.7237      46.7237      46.7237 
  328000    92.656958   -8266.5749   -7704.5225   -652.06454     102002.7      46.7237      46.7237      46.7237 
  329000    89.439594   -8293.2747   -7750.7387   -668.86666     102002.7      46.7237      46.7237      46.7237 
  330000    91.577991   -8278.9047   -7723.3973   -933.04474     102002.7      46.7237      46.7237      46.7237 
  331000    91.433107   -8294.4573   -7739.8287   -793.79236     102002.7      46.7237      46.7237      46.7237 
  332000    94.361894   -8274.8029   -7702.4085   -285.31682     102002.7      46.7237      46.7237      46.7237 
  333000    90.906847   -8300.7452    -7749.309   -798.63569     102002.7      46.7237      46.7237      46.7237 
  334000     90.24083   -8271.3153   -7723.9191   -504.08654     102002.7      46.7237      46.7237      46.7237 
  335000    88.347421   -8276.3995   -7740.4886   -946.27941     102002.7      46.7237      46.7237      46.7237 
  336000    89.239499   -8285.4008   -7744.0786   -437.41046     102002.7      46.7237      46.7237      46.7237 
  337000    92.425377   -8276.7792   -7716.1316   -649.74756     102002.7      46.7237      46.7237      46.7237 
  338000    88.164698   -8293.6409   -7758.8384   -990.47281     102002.7      46.7237      46.7237      46.7237 
  339000    88.947992   -8281.7665   -7742.2126   -314.82419     102002.7      46.7237      46.7237      46.7237 
  340000    92.666066   -8270.3682   -7708.2606   -591.37482     102002.7      46.7237      46.7237      46.7237 
  341000    91.030043   -8283.0304   -7730.8468   -492.07639     102002.7      46.7237      46.7237      46.7237 
  342000    89.851706   -8254.4669   -7709.4311   -711.90577     102002.7      46.7237      46.7237      46.7237 
  343000    90.815405   -8268.2996    -7717.418   -649.82139     102002.7      46.7237      46.7237      46.7237 
  344000    90.184912     -8282.11   -7735.0529   -459.61567     102002.7      46.7237      46.7237      46.7237 
  345000    92.150227   -8277.0388   -7718.0603   -604.12033     102002.7      46.7237      46.7237      46.7237 
  346000    93.006406   -8272.9616   -7708.7895   -653.71188     102002.7      46.7237      46.7237      46.7237 
  347000    87.177971   -8267.2864   -7738.4693   -854.49968     102002.7      46.7237      46.7237      46.7237 
  348000    91.504866   -8280.8011   -7725.7373   -521.46206     102002.7      46.7237      46.7237      46.7237 
  349000    90.052751   -8271.9201   -7725.6648   -471.83385     102002.7      46.7237      46.7237      46.7237 
  350000    90.041195   -8272.1758   -7725.9906   -440.64837     102002.7      46.7237      46.7237      46.7237 
  351000    92.221902   -8283.7602   -7724.3468   -413.08037     102002.7      46.7237      46.7237      46.7237 
  352000    91.715004   -8275.5752   -7719.2367   -659.27979     102002.7      46.7237      46.7237      46.7237 
  353000    92.585067   -8293.4955   -7731.8792    -626.0968     102002.7      46.7237      46.7237      46.7237 
  354000    90.569847   -8274.0709   -7724.6789   -702.21173     102002.7      46.7237      46.7237      46.7237 
  355000    87.700098   -8266.3046   -7734.3203   -600.23578     102002.7      46.7237      46.7237      46.7237 
  356000    93.238116   -8282.5207   -7716.9431   -490.01226     102002.7      46.7237      46.7237      46.7237 
  357000    90.034217   -8280.1811   -7734.0382   -576.10524     102002.7      46.7237      46.7237      46.7237 
  358000     91.21166   -8266.5586   -7713.2734   -661.79693     102002.7      46.7237      46.7237      46.7237 
  359000    90.680242   -8286.7739   -7736.7122   -506.75673     102002.7      46.7237      46.7237      46.7237 
  360000     89.18094   -8266.3224   -7725.3554    -831.7123     102002.7      46.7237      46.7237      46.7237 
  361000    93.104885   -8297.6947   -7732.9253     -458.343     102002.7      46.7237      46.7237      46.7237 
  362000    90.518681   -8266.8278   -7717.7462   -672.39598     102002.7      46.7237      46.7237      46.7237 
  363000    93.094199    -8271.076   -7706.3713   -684.08866     102002.7      46.7237      46.7237      46.7237 
  364000    88.807575   -8265.2307   -7726.5285   -562.61756     102002.7      46.7237      46.7237      46.7237 
  365000    88.974756   -8282.4421   -7742.7258   -300.49315     102002.7      46.7237      46.7237      46.7237 
  366000    92.230223   -8275.4065   -7715.9427   -428.88748     102002.7      46.7237      46.7237      46.7237 
  367000    89.941598   -8274.7952   -7729.2141   -544.94593     102002.7      46.7237      46.7237      46.7237 
  368000     89.85371    -8273.432    -7728.384   -747.66427     102002.7      46.7237      46.7237      46.7237 
  369000    91.123372   -8252.4567    -7699.707   -574.85252     102002.7      46.7237      46.7237      46.7237 
  370000    89.801811   -8260.2238   -7715.4906   -721.71517     102002.7      46.7237      46.7237      46.7237 
  371000    90.794456   -8273.7844   -7723.0299   -668.08294     102002.7      46.7237      46.7237      46.7237 
  372000    91.216811    -8281.292   -7727.9755   -698.20326     102002.7      46.7237      46.7237      46.7237 
  373000    93.212791   -8271.1904   -7705.7664   -746.66073     102002.7      46.7237      46.7237      46.7237 
  374000     91.67238   -8282.8909    -7726.811   -813.55977     102002.7      46.7237      46.7237      46.7237 
  375000    92.386655   -8280.9883   -7720.5756   -417.34164     102002.7      46.7237      46.7237      46.7237 
  376000    91.469094   -8288.8684   -7734.0216   -951.18337     102002.7      46.7237      46.7237      46.7237 
  377000    88.929039     -8286.96    -7747.521    -799.5833     102002.7      46.7237      46.7237      46.7237 
  378000    89.042362   -8267.6617   -7727.5353   -624.82637     102002.7      46.7237      46.7237      46.7237 
  379000    92.713306   -8262.8045   -7700.4103   -899.68979     102002.7      46.7237      46.7237      46.7237 
  380000    92.094866    -8284.442   -7725.7993   -872.25714     102002.7      46.7237      46.7237      46.7237 
  381000    91.549516   -8266.6769   -7711.3423   -1104.3458     102002.7      46.7237      46.7237      46.7237 
  382000    87.551905    -8275.743   -7744.6576   -853.86286     102002.7      46.7237      46.7237      46.7237 
  383000    90.960509   -8290.5715   -7738.8097   -890.35833     102002.7      46.7237      46.7237      46.7237 
  384000    93.410247   -8256.6569   -7690.0351   -721.52175     102002.7      46.7237      46.7237      46.7237 
  385000     91.75737    -8280.511   -7723.9156   -457.36288     102002.7      46.7237      46.7237      46.7237 
  386000    88.977066   -8277.7009   -7737.9706   -1104.2235     102002.7      46.7237      46.7237      46.7237 
  387000    90.144343   -8266.9721   -7720.1611   -811.60632     102002.7      46.7237      46.7237      46.7237 
  388000    93.288218   -8287.8992   -7722.0177   -715.81032     102002.7      46.7237      46.7237      46.7237 
  389000    90.736816   -8279.5453   -7729.1404   -821.47863     102002.7      46.7237      46.7237      46.7237 
  390000    91.893185   -8252.0044   -7694.5851   -835.42107     102002.7      46.7237      46.7237      46.7237 
  391000    92.367244   -8269.7748   -7709.4798   -1103.1736     102002.7      46.7237      46.7237      46.7237 
  392000    93.356757   -8264.7306   -7698.4334    -642.2802     102002.7      46.7237      46.7237      46.7237 
  393000    92.481041    -8286.025   -7725.0398   -849.94972     102002.7      46.7237      46.7237      46.7237 
  394000    89.593832   -8245.7314   -7702.2599   -1100.9254     102002.7      46.7237      46.7237      46.7237 
  395000    89.369067   -8263.5515   -7721.4433   -807.37181     102002.7      46.7237      46.7237      46.7237 
  396000    91.446748   -8304.0444   -7749.3331   -769.25501     102002.7      46.7237      46.7237      46.7237 
  397000    89.062883   -8282.7048    -7742.454   -356.73485     102002.7      46.7237      46.7237      46.7237 
  398000     91.21818   -8268.9282   -7715.6034   -668.38088     102002.7      46.7237      46.7237      46.7237 
  399000    91.654844   -8278.4167   -7722.4431   -630.94285     102002.7      46.7237      46.7237      46.7237 
  400000    90.506827   -8266.5775   -7717.5678   -714.07731     102002.7      46.7237      46.7237      46.7237 
  401000    89.692141   -8282.2964   -7738.2285   -838.59507     102002.7      46.7237      46.7237      46.7237 
  402000    90.727494   -8284.3552   -7734.0069   -872.00365     102002.7      46.7237      46.7237      46.7237 
  403000    95.743008   -8273.8066   -7693.0345    -717.0867     102002.7      46.7237      46.7237      46.7237 
  404000    90.980452   -8266.1958    -7714.313   -775.48111     102002.7      46.7237      46.7237      46.7237 
  405000    87.365433    -8307.134   -7777.1798   -795.75222     102002.7      46.7237      46.7237      46.7237 
  406000    90.035947   -8272.6328   -7726.4794   -889.45863     102002.7      46.7237      46.7237      46.7237 
  407000    91.484257    -8282.727   -7727.7883    -580.9679     102002.7      46.7237      46.7237      46.7237 
  408000    90.868486   -8266.6241   -7715.4205   -730.77353     102002.7      46.7237      46.7237      46.7237 
  409000    91.120885    -8261.198   -7708.4634    -602.3564     102002.7      46.7237      46.7237      46.7237 
  410000    92.125357   -8261.9647    -7703.137   -576.81986     102002.7      46.7237      46.7237      46.7237 
  411000     91.57244   -8270.2633   -7714.7896   -524.62111     102002.7      46.7237      46.7237      46.7237 
  412000    88.893389   -8275.8947    -7736.672   -399.69913     102002.7      46.7237      46.7237      46.7237 
  413000    89.796736   -8285.7889   -7741.0865   -232.86889     102002.7      46.7237      46.7237      46.7237 
  414000    91.745606   -8270.3083   -7713.7842   -853.60911     102002.7      46.7237      46.7237      46.7237 
  415000    91.586744   -8261.7445   -7706.1841   -841.84956     102002.7      46.7237      46.7237      46.7237 
  416000     92.15989   -8276.5289   -7717.4918   -733.53935     102002.7      46.7237      46.7237      46.7237 
  417000    90.438657   -8269.7802    -7721.184   -525.40051     102002.7      46.7237      46.7237      46.7237 
  418000    92.738439   -8272.6552   -7710.1086   -623.02794     102002.7      46.7237      46.7237      46.7237 
  419000    95.289869   -8283.5549   -7705.5315   -495.91447     102002.7      46.7237      46.7237      46.7237 
  420000    89.898532   -8283.9929   -7738.6731   -860.35596     102002.7      46.7237      46.7237      46.7237 
  421000    90.334769   -8280.8528   -7732.8867   -809.47812     102002.7      46.7237      46.7237      46.7237 
  422000    90.873539   -8278.8511   -7727.6169   -795.82345     102002.7      46.7237      46.7237      46.7237 
  423000    90.626327   -8299.3786    -7749.644   -1014.0549     102002.7      46.7237      46.7237      46.7237 
  424000    91.799921   -8279.0377   -7722.1841   -731.49633     102002.7      46.7237      46.7237      46.7237 
  425000    89.402379   -8282.9323   -7740.6221   -910.39949     102002.7      46.7237      46.7237      46.7237 
  426000    89.429895   -8293.4479   -7750.9708   -796.83659     102002.7      46.7237      46.7237      46.7237 
  427000    91.889345   -8306.2216   -7748.8256   -780.74235     102002.7      46.7237      46.7237      46.7237 
  428000    89.999439    -8284.344   -7738.4121   -1104.4509     102002.7      46.7237      46.7237      46.7237 
  429000    87.421872   -8286.9268   -7756.6302    -857.5731     102002.7      46.7237      46.7237      46.7237 
  430000    90.404129   -8277.5928    -7729.206   -541.64016     102002.7      46.7237      46.7237      46.7237 
  431000    89.956245   -8284.3849    -7738.715   -619.63831     102002.7      46.7237      46.7237      46.7237 
  432000    93.052372   -8298.7067   -7734.2558   -615.06768     102002.7      46.7237      46.7237      46.7237 
  433000    87.914763   -8282.3515   -7749.0651   -719.43691     102002.7      46.7237      46.7237      46.7237 
  434000    93.159767   -8277.0326   -7711.9303   -531.09993     102002.7      46.7237      46.7237      46.7237 
  435000    90.725376   -8280.9652   -7730.6298   -700.61664     102002.7      46.7237      46.7237      46.7237 
  436000       89.073   -8287.8608   -7747.5486   -836.93224     102002.7      46.7237      46.7237      46.7237 
  437000    92.569038   -8269.1321   -7707.6131   -566.23632     102002.7      46.7237      46.7237      46.7237 
  438000    87.708849   -8292.7002   -7760.6628   -592.91482     102002.7      46.7237      46.7237      46.7237 
  439000    90.280893   -8268.5114   -7720.8722   -668.50127     102002.7      46.7237      46.7237      46.7237 
  440000    91.749692   -8289.2526   -7732.7037   -649.33656     102002.7      46.7237      46.7237      46.7237 
  441000    92.805975   -8290.5725   -7727.6162   -714.53323     102002.7      46.7237      46.7237      46.7237 
  442000    92.420536   -8261.7769   -7701.1587   -732.29536     102002.7      46.7237      46.7237      46.7237 
  443000    89.397909   -8271.5807   -7729.2976   -590.20325     102002.7      46.7237      46.7237      46.7237 
  444000     91.87297   -8265.1439   -7707.8472   -892.42218     102002.7      46.7237      46.7237      46.7237 
  445000    88.696451   -8289.5837   -7751.5556   -827.95871     102002.7      46.7237      46.7237      46.7237 
  446000    93.808614   -8275.2333   -7706.1951   -749.16278     102002.7      46.7237      46.7237      46.7237 
  447000    89.432667   -8280.9932   -7738.4992   -745.23886     102002.7      46.7237      46.7237      46.7237 
  448000    89.842897   -8262.2918   -7717.3095   -1020.9285     102002.7      46.7237      46.7237      46.7237 
  449000    91.746051   -8290.2112   -7733.6844   -720.47925     102002.7      46.7237      46.7237      46.7237 
  450000    91.234805   -8279.9313   -7726.5057   -902.46971     102002.7      46.7237      46.7237      46.7237 
  451000    88.826166   -8276.7687   -7737.9538   -827.11892     102002.7      46.7237      46.7237      46.7237 
  452000    91.686789   -8275.0505   -7718.8831   -799.45291     102002.7      46.7237      46.7237      46.7237 
  453000    88.996981   -8282.7027   -7742.8516   -663.52197     102002.7      46.7237      46.7237      46.7237 
  454000    92.630056   -8279.7158   -7717.8266   -717.97473     102002.7      46.7237      46.7237      46.7237 
  455000    92.174268   -8286.9466   -7727.8222    -868.7359     102002.7      46.7237      46.7237      46.7237 
  456000    90.224417   -8269.5726    -7722.276   -791.40152     102002.7      46.7237      46.7237      46.7237 
  457000    91.222046   -8264.3267   -7710.9784   -979.15024     102002.7      46.7237      46.7237      46.7237 
  458000    92.861609   -8285.0129   -7721.7192   -783.32378     102002.7      46.7237      46.7237      46.7237 
  459000    90.575233    -8291.683   -7742.2583   -941.04039     102002.7      46.7237      46.7237      46.7237 
  460000    93.669283   -8276.2247   -7708.0316   -1022.6223     102002.7      46.7237      46.7237      46.7237 
  461000    90.726639   -8285.9497   -7735.6066   -759.59215     102002.7      46.7237      46.7237      46.7237 
  462000    90.907648   -8288.1841    -7736.743   -658.09465     102002.7      46.7237      46.7237      46.7237 
  463000    89.314155   -8281.6752   -7739.9002   -933.59581     102002.7      46.7237      46.7237      46.7237 
  464000    87.404044   -8284.4435    -7754.255   -803.58225     102002.7      46.7237      46.7237      46.7237 
  465000    90.944228   -8271.9001   -7720.2371   -398.90403     102002.7      46.7237      46.7237      46.7237 
  466000    90.085449   -8280.2498   -7733.7961   -631.67867     102002.7      46.7237      46.7237      46.7237 
  467000    88.760246   -8282.9407   -7744.5256   -553.17362     102002.7      46.7237      46.7237      46.7237 
  468000    89.796386   -8273.4505   -7728.7502   -618.06485     102002.7      46.7237      46.7237      46.7237 
  469000    88.247093   -8277.2905   -7741.9882   -616.29474     102002.7      46.7237      46.7237      46.7237 
  470000    89.519494   -8257.1332   -7714.1126   -624.22175     102002.7      46.7237      46.7237      46.7237 
  471000     90.36205   -8279.8688   -7731.7373   -569.09609     102002.7      46.7237      46.7237      46.7237 
  472000    90.919163   -8288.4425   -7736.9315   -662.02782     102002.7      46.7237      46.7237      46.7237 
  473000    92.269925   -8276.7224   -7717.0178   -690.94194     102002.7      46.7237      46.7237      46.7237 
  474000      90.3416   -8299.5178   -7751.5103   -614.33408     102002.7      46.7237      46.7237      46.7237 
  475000    91.022098   -8274.6244    -7722.489   -723.43554     102002.7      46.7237      46.7237      46.7237 
  476000    87.778312   -8264.3234   -7731.8646   -557.09366     102002.7      46.7237      46.7237      46.7237 
  477000    92.349115   -8303.1551   -7742.9701   -794.35827     102002.7      46.7237      46.7237      46.7237 
  478000    92.407537    -8278.928   -7718.3886   -920.41191     102002.7      46.7237      46.7237      46.7237 
  479000    89.363918   -8266.4982   -7724.4213   -713.94988     102002.7      46.7237      46.7237      46.7237 
  480000    90.817247   -8296.2046   -7745.3119    -592.9416     102002.7      46.7237      46.7237      46.7237 
  481000    88.081923    -8290.039   -7755.7386   -915.21757     102002.7      46.7237      46.7237      46.7237 
  482000    92.006765   -8274.8236   -7716.7154   -684.48998     102002.7      46.7237      46.7237      46.7237 
  483000    91.141903   -8283.8742   -7731.0121   -809.87243     102002.7      46.7237      46.7237      46.7237 
  484000    93.036593   -8282.2218   -7717.8666   -667.02926     102002.7      46.7237      46.7237      46.7237 
  485000      89.8326   -8290.1252   -7745.2053   -644.66359     102002.7      46.7237      46.7237      46.7237 
  486000    89.918606   -8301.7113   -7756.2696   -828.00941     102002.7      46.7237      46.7237      46.7237 
  487000    91.181607   -8297.3736   -7744.2707   -833.74576     102002.7      46.7237      46.7237      46.7237 
  488000    90.443088   -8280.5617   -7731.9386    -768.2833     102002.7      46.7237      46.7237      46.7237 
  489000    90.870778   -8282.7278   -7731.5103   -773.96079     102002.7      46.7237      46.7237      46.7237 
  490000    88.757495   -8291.8787   -7753.4803   -698.02446     102002.7      46.7237      46.7237      46.7237 
  491000    92.040987    -8289.523   -7731.2071   -755.13402     102002.7      46.7237      46.7237      46.7237 
  492000    90.363885   -8273.8708   -7725.7281   -698.27465     102002.7      46.7237      46.7237      46.7237 
  493000    89.703021   -8295.5641   -7751.4302   -592.58848     102002.7      46.7237      46.7237      46.7237 
  494000    90.296011    -8284.054   -7736.3231   -655.49404     102002.7      46.7237      46.7237      46.7237 
  495000    90.644424   -8280.5471   -7730.7027   -891.94367     102002.7      46.7237      46.7237      46.7237 
  496000    91.153288   -8288.0923   -7735.1612   -890.39951     102002.7      46.7237      46.7237      46.7237 
  497000    90.626139   -8276.9178   -7727.1843   -819.74731     102002.7      46.7237      46.7237      46.7237 
  498000    92.310089   -8284.4813    -7724.533   -630.94818     102002.7      46.7237      46.7237      46.7237 
  499000    88.568185   -8295.2551    -7758.005   -568.66364     102002.7      46.7237      46.7237      46.7237 
  500000    89.441126   -8282.7137   -7740.1684   -685.42731     102002.7      46.7237      46.7237      46.7237 
  500501    92.195996   -8272.6606   -7713.4044   -751.10857     102002.7      46.7237      46.7237      46.7237 
Loop time of 1402.01 on 16 procs for 500000 steps with 2036 atoms

Performance: 30.813 ns/day, 0.779 hours/ns, 356.631 timesteps/s
99.8% CPU use with 16 MPI tasks x no OpenMP threads

MPI task timing breakdown:
Section |  min time  |  avg time  |  max time  |%varavg| %total
---------------------------------------------------------------
Pair    | 574.46     | 770.67     | 1003.3     | 528.8 | 54.97
Bond    | 163.35     | 174.59     | 182.51     |  49.3 | 12.45
Neigh   | 6.246      | 6.2769     | 6.2953     |   0.6 |  0.45
Comm    | 196.47     | 436.58     | 639.97     | 719.2 | 31.14
Output  | 0.020669   | 0.021251   | 0.024414   |   0.6 |  0.00
Modify  | 7.7475     | 8.381      | 9.624      |  22.2 |  0.60
Other   |            | 5.488      |            |       |  0.39

Nlocal:    127.25 ave 166 max 96 min
Histogram: 2 2 1 2 1 3 2 2 0 1
Nghost:    2521 ave 2554 max 2488 min
Histogram: 1 0 4 4 0 0 2 1 2 2
Neighs:    11465.7 ave 18357 max 6394 min
Histogram: 3 3 0 3 1 1 3 0 1 1

Total # of neighbors = 183451
Ave neighs/atom = 90.1036
Ave special neighs/atom = 5.65815
Neighbor list builds = 3853
Dangerous builds = 0
Neighbor list info ...
  update every 1 steps, delay 10 steps, check yes
  max neighbors/atom: 2000, page size: 100000
  master list distance cutoff = 16
  ghost atom cutoff = 16
  binsize = 8, bins = 6 6 6
  3 neighbor lists, perpetual/occasional/extra = 3 0 0
  (1) pair buck6d/coul/gauss/dsf, perpetual, skip from (3)
      attributes: half, newton on
      pair build: skip
      stencil: none
      bin: none
  (2) pair lj/cut, perpetual, skip from (3)
      attributes: half, newton on
      pair build: skip
      stencil: none
      bin: none
  (3) neighbor class addition, perpetual
      attributes: half, newton on
      pair build: half/bin/newton
      stencil: half/bin/3d/newton
      bin: standard
Setting up Verlet run ...
  Unit style    : real
  Current step  : 500501
  Time step     : 1
WARNING: Inconsistent image flags (../domain.cpp:786)
Per MPI rank memory allocation (min/avg/max) = 23.05 | 23.31 | 23.36 Mbytes
Step Time TotEng KinEng PotEng E_mol E_pair Temp Pxx Pyy Pzz Pxy Pxz Pyz Cella Cellb Cellc CellAlpha CellBeta CellGamma Volume Press 
  500501       500000   -7713.4044    559.25616   -8272.6606    4198.4182   -12471.079    92.195996   -392.15938   -610.72279   -1250.4435   -26.010912   -194.09657    66.125211      46.7237      46.7237      46.7237           90           90           90     102002.7   -751.10857 
  501000       500499   -7706.9029    559.12626   -8266.0292    4198.5857   -12464.615    92.174582   -736.76077   -653.75985   -514.05922   -93.346527     -62.4524   -321.98612      46.7237      46.7237      46.7237           90           90           90     102002.7   -634.85994 
  502000       501499   -7714.5575    560.69217   -8275.2497    4180.9727   -12456.222    92.432729   -895.09374   -1149.6941   -778.36552   -95.041326    273.72441   -123.19347      46.7237      46.7237      46.7237           90           90           90     102002.7   -941.05112 
  503000       502499   -7730.0539    547.44151   -8277.4954    4180.0684   -12457.564    90.248295   -935.91343   -443.87994   -697.05817    103.79675    37.244929    56.247478      46.7237      46.7237      46.7237           90           90           90     102002.7   -692.28385 
  504000       503499   -7726.8518    551.91897   -8278.7708    4194.2586   -12473.029    90.986426    -697.1574   -685.74247   -570.06518    5.1243201    134.78296   -128.03481      46.7237      46.7237      46.7237           90           90           90     102002.7   -650.98835 
  505000       504499   -7748.5252    541.47919   -8290.0043      4151.12   -12441.124    89.265379   -587.84741   -771.89063   -576.70568   -108.21452   -194.46598    24.249549      46.7237      46.7237      46.7237           90           90           90     102002.7   -645.48124 
  506000       505499   -7736.3476    559.92489   -8296.2725    4167.7122   -12463.985     92.30624   -343.98046   -602.79673   -750.69679    17.671765    142.61782   -9.5858507      46.7237      46.7237      46.7237           90           90           90     102002.7   -565.82466 
  507000       506499   -7718.1237    553.95821   -8272.0819    4181.3816   -12453.464    91.322605   -874.73807   -699.89348   -1160.6313   -91.560056    152.47344   -319.70486      46.7237      46.7237      46.7237           90           90           90     102002.7   -911.75427 
  508000       507499   -7713.1892    556.51762   -8269.7068    4187.3435    -12457.05    91.744534   -518.21462   -128.98256   -462.68295    98.465449   -77.577298   -147.41189      46.7237      46.7237      46.7237           90           90           90     102002.7   -369.96004 
  509000       508499   -7733.5307    562.48047   -8296.0112    4157.4723   -12453.483    92.727539   -154.72175   -938.70265   -454.03405   -123.98042   -10.595655     -39.9822      46.7237      46.7237      46.7237           90           90           90     102002.7   -515.81948 
  510000       509499   -7728.8694    542.32559    -8271.195    4184.4677   -12455.663    89.404912   -837.76928   -761.34053   -644.38793   -152.78973   -59.659048    -94.45422      46.7237      46.7237      46.7237           90           90           90     102002.7   -747.83258 
  511000       510499   -7713.2251    562.72341   -8275.9485    4198.2874   -12474.236    92.767588   -522.12355   -863.86435   -185.98308    106.49629    16.611955   -204.54777      46.7237      46.7237      46.7237           90           90           90     102002.7   -523.99033 
  512000       511499   -7751.7069    539.03174   -8290.7387     4167.798   -12458.537    88.861905   -583.92034   -790.67402     -723.653    44.304945    4.7671411   -138.06415      46.7237      46.7237      46.7237           90           90           90     102002.7   -699.41579 
  513000       512499    -7720.747    550.76625   -8271.5133    4182.5471    -12454.06    90.796394   -801.30432   -375.20533   -452.21634    19.292223    270.27781    81.675188      46.7237      46.7237      46.7237           90           90           90     102002.7   -542.90867 
  514000       513499    -7758.376    533.25314   -8291.6292    4178.5695   -12470.199    87.909276   -362.89626   -928.06356    -724.0469   -102.85149    31.344719    165.43689      46.7237      46.7237      46.7237           90           90           90     102002.7   -671.66891 
  515000       514499   -7739.1998    549.36584   -8288.5656    4182.5425   -12471.108     90.56553   -999.17749   -673.08158   -948.22595    115.82776    187.50702     173.7181      46.7237      46.7237      46.7237           90           90           90     102002.7   -873.49501 
  516000       515499   -7721.5157    548.18664   -8269.7024    4200.9409   -12470.643    90.371134   -841.72429   -592.49838   -310.71488   -146.80707    170.09472    326.55021      46.7237      46.7237      46.7237           90           90           90     102002.7   -581.64585 
  517000       516499    -7735.008     540.6525   -8275.6605    4209.2241   -12484.885    89.129096    -634.5821   -664.86581   -827.61947    55.441326   -108.48464    -83.23472      46.7237      46.7237      46.7237           90           90           90     102002.7   -709.02246 
  518000       517499   -7741.0001    538.13925   -8279.1394    4176.5231   -12455.662    88.714775    -611.2997   -551.56261   -202.14234   -74.319209   -75.324709   -53.364754      46.7237      46.7237      46.7237           90           90           90     102002.7   -455.00155 
  519000       518499   -7720.2884     551.3296    -8271.618    4196.4394   -12468.057    90.889265   -819.28991   -1048.2407   -437.42871   -119.01156    10.387188    115.11766      46.7237      46.7237      46.7237           90           90           90     102002.7   -768.31977 
  520000       519499   -7732.6815    562.16116   -8294.8427    4172.7164   -12467.559    92.674898   -934.09701   -864.01314   -713.38565    -26.18771   -169.74984    11.641668      46.7237      46.7237      46.7237           90           90           90     102002.7   -837.16527 
  521000       520499   -7710.3957    564.51233   -8274.9081    4181.4347   -12456.343    93.062501   -838.01505   -578.18477   -784.76122   -5.3011405    305.41149   -331.94852      46.7237      46.7237      46.7237           90           90           90     102002.7   -733.65368 
  522000       521499   -7717.1817     554.9689   -8272.1506    4188.8409   -12460.991    91.489222   -717.99205   -705.34368   -816.94752    93.683903    3.8796156    170.82244      46.7237      46.7237      46.7237           90           90           90     102002.7   -746.76109 
  523000       522499   -7740.4468    553.18137   -8293.6281    4161.2065   -12454.835    91.194538   -610.44035   -611.32986   -384.05515   -66.166323    147.53449     -231.454      46.7237      46.7237      46.7237           90           90           90     102002.7   -535.27512 
  524000       523499   -7725.6377    541.32092   -8266.9586    4206.1441   -12473.103    89.239287   -824.99489    -867.0442   -892.51482   -139.13673    27.724134    304.41147      46.7237      46.7237      46.7237           90           90           90     102002.7   -861.51797 
  525000       524499   -7758.5391    523.19667   -8281.7358     4180.218   -12461.954     86.25142   -959.82569   -753.13273   -391.58274   -129.04698   -119.48211     48.59087      46.7237      46.7237      46.7237           90           90           90     102002.7   -701.51372 
  526000       525499    -7729.704    554.38208    -8284.086     4162.919   -12447.005    91.392481   -610.60772   -686.59176   -842.20985    23.991124    2.0164631   -109.57911      46.7237      46.7237      46.7237           90           90           90     102002.7   -713.13644 
  527000       526499   -7709.9363    567.71388   -8277.6502    4184.6575   -12462.308    93.590291   -446.06021   -600.42581   -643.00725    162.56254   -144.66862    39.222782      46.7237      46.7237      46.7237           90           90           90     102002.7   -563.16442 
  528000       527499   -7740.2848    551.70538   -8291.9902    4163.7586   -12455.749    90.951215   -623.80182   -741.35877   -549.01678   -161.47408     112.6069    54.539365      46.7237      46.7237      46.7237           90           90           90     102002.7   -638.05913 
  529000       528499   -7718.0546    545.41422   -8263.4688    4192.4193   -12455.888    89.914088   -990.33567    -1197.356   -880.46803   -45.491368    54.947381    373.77864      46.7237      46.7237      46.7237           90           90           90     102002.7   -1022.7199 
  530000       529499   -7741.3068    545.03665   -8286.3434    4183.9555   -12470.299    89.851843   -699.07428   -602.64546    -720.4597    90.013355   -38.560681   -213.97387      46.7237      46.7237      46.7237           90           90           90     102002.7   -674.05982 
  531000       530499   -7742.9552    553.15007   -8296.1053    4170.8906   -12466.996    91.189379   -871.22857   -680.82529   -1059.6678   -99.418962    226.01511   -3.7363935      46.7237      46.7237      46.7237           90           90           90     102002.7   -870.57388 
  532000       531499   -7714.7219     553.6136   -8268.3355     4198.215    -12466.55    91.265793   -809.90791   -839.55056   -1002.7579   -16.429394    115.05835    88.192812      46.7237      46.7237      46.7237           90           90           90     102002.7   -884.07212 
  533000       532499   -7742.7223    545.66198   -8288.3843    4169.3467   -12457.731    89.954932   -172.67273   -665.57032   -685.08288   -93.230727   -206.47706   -116.69877      46.7237      46.7237      46.7237           90           90           90     102002.7   -507.77531 
  534000       533499   -7744.8635    543.72216   -8288.5856    4169.9157   -12458.501    89.635143   -939.41019   -927.94934   -812.92428    41.676967    12.109315     275.7542      46.7237      46.7237      46.7237           90           90           90     102002.7   -893.42793 
  535000       534499   -7750.0742    536.73983    -8286.814    4189.4824   -12476.296    88.484074   -757.58141   -1214.9493   -799.27773   -42.844587   -27.495452    69.949771      46.7237      46.7237      46.7237           90           90           90     102002.7   -923.93616 
  536000       535499    -7743.142    552.58401    -8295.726    4192.2641    -12487.99    91.096062   -768.89346   -853.76087   -991.00414   -82.512687   -92.871867    68.808341      46.7237      46.7237      46.7237           90           90           90     102002.7   -871.21949 
  537000       536499   -7720.1798     560.7508   -8280.9306     4168.335   -12449.266    92.442394   -687.08555   -876.11197   -1223.2438   -213.78253     80.50245   -192.29279      46.7237      46.7237      46.7237           90           90           90     102002.7   -928.81377 
  538000       537499   -7728.1113    555.69875     -8283.81    4175.1722   -12458.982     91.60954   -368.98152    -676.9046    -394.6795    210.84328    191.67218    38.464107      46.7237      46.7237      46.7237           90           90           90     102002.7   -480.18854 
  539000       538499   -7686.3861    571.52546   -8257.9116    4194.3691   -12452.281    94.218648   -785.56032   -802.46153   -1093.7287   -61.947387    113.40357    21.615939      46.7237      46.7237      46.7237           90           90           90     102002.7   -893.91684 
  540000       539499   -7722.1558    556.52354   -8278.6793    4184.0026   -12462.682    91.745512   -588.65256   -810.32993   -938.03599   -47.278701    39.933111   -107.01597      46.7237      46.7237      46.7237           90           90           90     102002.7   -779.00616 
  541000       540499   -7715.5718    554.71735   -8270.2892    4189.0094   -12459.299    91.447752   -394.30707   -747.57365   -692.94274   -2.7198564   -158.91995    -56.04871      46.7237      46.7237      46.7237           90           90           90     102002.7   -611.60782 
  542000       541499   -7735.6399    551.34882   -8286.9887    4181.8818   -12468.871    90.892434   -544.07877   -938.88781   -995.04574    96.278728   -100.55444   -316.99722      46.7237      46.7237      46.7237           90           90           90     102002.7   -826.00411 
  543000       542499   -7711.8863    565.15732   -8277.0436    4175.8794   -12452.923     93.16883   -407.93212   -839.07571   -1039.1902    -35.35572   -251.41186    10.453307      46.7237      46.7237      46.7237           90           90           90     102002.7   -762.06601 
  544000       543499   -7723.6566    543.32077   -8266.9774    4173.5982   -12440.576    89.568972   -606.92474   -1135.1967   -635.14778   -165.65494   -71.100665   -124.37498      46.7237      46.7237      46.7237           90           90           90     102002.7   -792.42306 
  545000       544499   -7695.2419    570.13669   -8265.3786    4192.6008   -12457.979    93.989703   -491.42732   -616.19537   -823.77443   -36.609943    150.79408   -98.127959      46.7237      46.7237      46.7237           90           90           90     102002.7   -643.79904 
  546000       545499   -7739.8932    546.71511   -8286.6083    4158.9882   -12445.596    90.128545   -581.63297    -787.8868   -794.72667   -75.584379   -56.800721    180.64732      46.7237      46.7237      46.7237           90           90           90     102002.7   -721.41548 
  547000       546499   -7743.3049    537.18581   -8280.4907    4201.5696    -12482.06    88.557595   -828.73946   -681.18573   -779.63531    337.32665   -90.363474     82.97502      46.7237      46.7237      46.7237           90           90           90     102002.7   -763.18684 
  548000       547499   -7705.5064    553.98271   -8259.4891    4197.6803   -12457.169    91.326643   -945.27998   -694.49334   -980.28999   -150.33598    64.371726    82.923398      46.7237      46.7237      46.7237           90           90           90     102002.7   -873.35443 
  549000       548499   -7728.8257    544.19744   -8273.0231     4180.236   -12453.259    89.713496   -817.84366   -673.05172   -630.72416   -186.10011    225.68029   -87.855825      46.7237      46.7237      46.7237           90           90           90     102002.7   -707.20651 
  550000       549499   -7719.7521    556.29399   -8276.0461    4187.0855   -12463.132    91.707668   -470.05907   -597.28872   -469.78975    -280.4296    173.21766   -54.346463      46.7237      46.7237      46.7237           90           90           90     102002.7   -512.37918 
  551000       550499    -7697.173    553.29977   -8250.4727    4204.3475    -12454.82    91.214057   -1009.2401   -744.54339   -902.91854    165.11425   -2.7869456    65.169273      46.7237      46.7237      46.7237           90           90           90     102002.7   -885.56733 
  552000       551499   -7731.6528    561.32957   -8292.9824    4175.0219   -12468.004    92.537807   -863.33367   -919.86588   -393.87054    45.011196    79.687802   -286.01522      46.7237      46.7237      46.7237           90           90           90     102002.7   -725.69003 
  553000       552499   -7723.7731    554.87503   -8278.6481    4186.3258   -12464.974    91.473746   -480.29219   -558.24586   -986.47125    1.9164683    130.83287   -101.19931      46.7237      46.7237      46.7237           90           90           90     102002.7    -675.0031 
  554000       553499   -7732.2202     547.2779   -8279.4981    4191.5325   -12471.031    90.221324   -612.96083   -676.06151    -821.5187   -200.45583    247.37252    38.636139      46.7237      46.7237      46.7237           90           90           90     102002.7   -703.51368 
  555000       554499   -7723.4697    561.64433    -8285.114     4176.545   -12461.659    92.589697   -458.25562   -585.78005   -822.95361   -216.86775    157.98537   -78.571745      46.7237      46.7237      46.7237           90           90           90     102002.7   -622.32976 
[...]
  936000       935499   -7723.3486    563.08487   -8286.4335     4163.541   -12449.975    92.827177   -715.48507   -1045.2423   -978.63826    264.59591    1.1097015   -184.37575      46.7237      46.7237      46.7237           90           90           90     102002.7   -913.12187 
  937000       936499   -7691.4021    560.82346   -8252.2256    4229.4942    -12481.72    92.454372   -632.19104   -988.92893   -908.16517    105.65237   -161.41109    167.99173      46.7237      46.7237      46.7237           90           90           90     102002.7   -843.09504 
  938000       937499   -7729.0259    557.30279   -8286.3287    4171.3568   -12457.685    91.873973   -687.64841   -597.86547   -1023.4195   -213.04172    211.22041    26.318247      46.7237      46.7237      46.7237           90           90           90     102002.7   -769.64445 
  939000       938499   -7728.9178    550.05808   -8278.9758    4172.3457   -12451.322     90.67965   -346.76621   -807.56364   -816.89061   -97.348247   -12.515491     -87.7095      46.7237      46.7237      46.7237           90           90           90     102002.7   -657.07349 
  940000       939499   -7739.5832    548.45015   -8288.0333    4187.7836   -12475.817    90.414575   -451.34215   -758.17411   -843.43602    102.59575   -21.172845    136.61378      46.7237      46.7237      46.7237           90           90           90     102002.7   -684.31743 
  941000       940499   -7708.2677    549.69391   -8257.9616    4215.7723   -12473.734    90.619615   -999.26671   -785.94088    -1243.873    14.359418     50.14404   -94.986475      46.7237      46.7237      46.7237           90           90           90     102002.7   -1009.6935 
  942000       941499   -7722.0857    554.46813   -8276.5539     4195.192   -12471.746    91.406668   -557.87514   -703.37982   -883.99126   -114.95692    28.868884     47.50141      46.7237      46.7237      46.7237           90           90           90     102002.7   -715.08207 
  943000       942499   -7739.6767    543.51678   -8283.1935     4174.876   -12458.069    89.601286   -605.33754   -614.90635   -627.29741   -206.84628   0.25847709   -17.158608      46.7237      46.7237      46.7237           90           90           90     102002.7    -615.8471 
  944000       943499    -7721.154    554.97842   -8276.1324    4196.0645   -12472.197    91.490791   -833.14781   -600.45741    -743.0031   -26.561494   -24.253583    81.791233      46.7237      46.7237      46.7237           90           90           90     102002.7   -725.53611 
  945000       944499   -7715.1893    568.08927   -8283.2786    4175.2746   -12458.553    93.652175   -775.34873   -270.16215   -553.71593   -7.0984843    155.17645    152.37121      46.7237      46.7237      46.7237           90           90           90     102002.7    -533.0756 
  946000       945499   -7742.9951    540.11801   -8283.1131     4192.743   -12475.856    89.040982   -719.44701   -520.91725   -997.80582   -55.691164    128.87745    16.529194      46.7237      46.7237      46.7237           90           90           90     102002.7    -746.0567 
  947000       946499   -7735.7874    546.30923   -8282.0967    4185.8652   -12467.962    90.061634   -1059.2749   -988.71312   -950.03828   -3.0789894    42.530507    166.31198      46.7237      46.7237      46.7237           90           90           90     102002.7    -999.3421 
  948000       947499   -7716.2491    550.57063   -8266.8198    4192.8906    -12459.71    90.764145   -717.16985   -881.88467   -980.95712    57.265148    41.164114    51.346065      46.7237      46.7237      46.7237           90           90           90     102002.7   -860.00388 
  949000       948499   -7735.1647    557.61768   -8292.7824    4184.7786   -12477.561    91.925885   -940.02607   -764.01005   -1002.1961   -14.766816    87.216983    142.08583      46.7237      46.7237      46.7237           90           90           90     102002.7   -902.07742 
  950000       949499   -7722.4994    552.60135   -8275.1007    4182.7294    -12457.83     91.09892   -659.20209   -1005.5271    -766.2081    61.783993    128.34222     121.1679      46.7237      46.7237      46.7237           90           90           90     102002.7   -810.31243 
  951000       950499   -7710.4237    558.25119   -8268.6748    4204.7788   -12473.454    92.030322   -597.18447   -687.64345   -747.47685   -339.98075    117.71296   -41.623859      46.7237      46.7237      46.7237           90           90           90     102002.7   -677.43492 
  952000       951499   -7730.4861    555.54974   -8286.0359    4185.3127   -12471.349    91.584976   -808.53393   -320.08829   -1105.9442    196.29708    -82.55739    156.82948      46.7237      46.7237      46.7237           90           90           90     102002.7   -744.85547 
  953000       952499   -7730.8343     556.3885   -8287.2228    4177.4538   -12464.677    91.723249   -770.96884   -782.76808   -789.54552    52.825933   -210.89058    117.08464      46.7237      46.7237      46.7237           90           90           90     102002.7   -781.09414 
  954000       953499   -7744.1834    535.60344   -8279.7869    4188.9123   -12468.699    88.296734    -573.7921   -879.57917   -861.15358   -125.55386    203.18996   -41.319327      46.7237      46.7237      46.7237           90           90           90     102002.7   -771.50828 
  955000       954499   -7736.2474    554.90055   -8291.1479    4181.3723    -12472.52    91.477953   -635.78997    -784.3465   -863.90497    24.085162   -2.5222458   -26.963901      46.7237      46.7237      46.7237           90           90           90     102002.7   -761.34715 
  956000       955499   -7737.7686    547.60716   -8285.3757     4185.851   -12471.227    90.275604   -926.43875   -705.07225   -800.14477   -89.765224   -56.625752   -96.341293      46.7237      46.7237      46.7237           90           90           90     102002.7   -810.55192 
  957000       956499   -7766.5349    539.29498   -8305.8299    4173.0625   -12478.892    88.905303   -704.48882   -687.12269    -938.1159   -67.016915   -83.432029   -87.718495      46.7237      46.7237      46.7237           90           90           90     102002.7   -776.57581 
  958000       957499    -7725.239     556.9859   -8282.2249    4191.9501   -12474.175    91.821734   -582.36528   -767.67215   -581.13432     30.79403   -99.790775    -213.8783      46.7237      46.7237      46.7237           90           90           90     102002.7   -643.72392 
  959000       958499   -7734.9837    555.36969   -8290.3534    4179.4029   -12469.756    91.555293   -748.29391   -944.79398   -717.86514   -27.516919    155.40016    10.227013      46.7237      46.7237      46.7237           90           90           90     102002.7   -803.65101 
  960000       959499   -7726.0915     572.1093   -8298.2008    4173.4226   -12471.623    94.314897   -727.44968   -485.83856   -731.49355    21.250399    46.763769    132.84455      46.7237      46.7237      46.7237           90           90           90     102002.7    -648.2606 
  961000       960499   -7706.3299    573.79861   -8280.1285    4194.0213    -12474.15    94.593387   -293.08139    -731.2372   -738.69417    146.83208    113.54692   -250.50234      46.7237      46.7237      46.7237           90           90           90     102002.7   -587.67092 
  962000       961499   -7729.0881    547.76697   -8276.8551    4197.5835   -12474.439    90.301949   -447.50216   -654.28868   -1090.6387   -25.490806   -96.611627    -129.6499      46.7237      46.7237      46.7237           90           90           90     102002.7   -730.80984 
  963000       962499   -7745.5571    548.97711   -8294.5342    4174.3913   -12468.926    90.501446   -434.54602   -605.09279   -740.47916    -47.53366   -56.576744    107.18515      46.7237      46.7237      46.7237           90           90           90     102002.7   -593.37265 
  964000       963499   -7762.0229    528.17906    -8290.202    4181.9621   -12472.164    87.072791   -632.60382   -869.07508    -624.4331    111.61692    -13.91234   -208.73759      46.7237      46.7237      46.7237           90           90           90     102002.7     -708.704 
  965000       964499   -7730.3966    547.01383   -8277.4104    4195.3553   -12472.766     90.17779   -830.50463    -1062.855   -957.40107   -167.34495   -140.26272   -163.31024      46.7237      46.7237      46.7237           90           90           90     102002.7   -950.25356 
  966000       965499   -7710.1824    551.22779   -8261.4101    4197.6838   -12459.094    90.872481   -649.40059   -627.86255   -613.48844   -169.33463    109.14928   -34.308796      46.7237      46.7237      46.7237           90           90           90     102002.7   -630.25053 
  967000       966499     -7737.19    554.29277   -8291.4828    4170.5789   -12462.062    91.377758   -426.79879   -314.86988   -286.39651   -161.75253    228.21248    17.035852      46.7237      46.7237      46.7237           90           90           90     102002.7   -342.68839 
  968000       967499   -7738.2934    568.01371   -8306.3071    4166.7016   -12473.009    93.639719   -479.75123   -516.03037   -810.57349    83.310262    65.777645    40.021255      46.7237      46.7237      46.7237           90           90           90     102002.7   -602.11837 
  969000       968499   -7777.6412    525.03286    -8302.674    4184.4922   -12487.166    86.554125   -453.00209   -673.72318   -819.55977    19.795934   -35.205678    55.108921      46.7237      46.7237      46.7237           90           90           90     102002.7   -648.76168 
  970000       969499   -7726.3528    554.60631   -8280.9591    4203.1985   -12484.158    91.429447   -1010.3597   -788.35183   -606.41384    79.700223   -162.85749   -116.16807      46.7237      46.7237      46.7237           90           90           90     102002.7   -801.70846 
  971000       970499   -7768.3062    532.19248   -8300.4987    4175.3373   -12475.836    87.734422   -482.80444   -316.56297   -705.83597   -147.43061   -36.313599   -42.889881      46.7237      46.7237      46.7237           90           90           90     102002.7   -501.73446 
  972000       971499   -7720.5146    561.28534      -8281.8    4189.8715   -12471.671    92.530516   -596.02419   -283.34234   -723.62195   -179.39651   -52.473963    119.02778      46.7237      46.7237      46.7237           90           90           90     102002.7    -534.3295 
  973000       972499   -7745.4071    549.03347   -8294.4406    4192.9518   -12487.392    90.510738   -722.40576   -323.06491   -424.69854     4.070637   -105.85283   -8.5545163      46.7237      46.7237      46.7237           90           90           90     102002.7    -490.0564 
  974000       973499   -7746.5142    547.34256   -8293.8568    4180.6057   -12474.463    90.231984   -194.70921   -546.25369   -524.61462    7.2618499   -84.333703    98.065666      46.7237      46.7237      46.7237           90           90           90     102002.7   -421.85917 
  975000       974499   -7712.5283    566.07208   -8278.6004    4185.5346   -12464.135    93.319632   -590.44136   -536.66105    -1043.238   -38.176382    145.67401   -179.73195      46.7237      46.7237      46.7237           90           90           90     102002.7   -723.44679 
  976000       975499    -7721.866    559.85065   -8281.7166    4196.8774   -12478.594    92.294001   -626.50114   -523.43421   -319.93587   -47.194988    116.64331   -65.733512      46.7237      46.7237      46.7237           90           90           90     102002.7   -489.95707 
  977000       976499   -7754.9505    560.44473   -8315.3952    4165.9563   -12481.352    92.391938   -706.46202   -208.81086   -1018.5243   -98.113306   -83.757325    181.73334      46.7237      46.7237      46.7237           90           90           90     102002.7   -644.59907 
  978000       977499    -7762.536    543.13953   -8305.6755    4173.9729   -12479.648    89.539095   -1105.8526   -691.29078   -285.10718   -102.93264   -145.32274   -118.50318      46.7237      46.7237      46.7237           90           90           90     102002.7   -694.08353 
  979000       978499   -7733.4919    542.44065   -8275.9325    4189.1736   -12465.106    89.423881   -1005.1508   -578.33113   -493.03093    130.12271    -22.02882   -26.331023      46.7237      46.7237      46.7237           90           90           90     102002.7   -692.17095 
  980000       979499   -7722.3749    549.80889   -8272.1838    4203.2333   -12475.417    90.638569   -1058.2674   -634.19019   -216.31494    175.18729   -144.18808   -58.963873      46.7237      46.7237      46.7237           90           90           90     102002.7   -636.25752 
  981000       980499   -7743.7555    552.33708   -8296.0925    4198.5679    -12494.66    91.055354   -346.45022   -1152.4242   -571.22606   -124.84253    110.35625    120.16573      46.7237      46.7237      46.7237           90           90           90     102002.7    -690.0335 
  982000       981499      -7717.5    557.03775   -8274.5377    4199.9492   -12474.487    91.830281   -449.05911   -1103.5021   -661.65575    20.156188    122.94482    141.43948      46.7237      46.7237      46.7237           90           90           90     102002.7   -738.07232 
  983000       982499   -7763.1989     524.2523   -8287.4512    4198.1227   -12485.574    86.425446   -782.52188   -1051.3183   -892.69494    131.11348    157.05861     91.28643      46.7237      46.7237      46.7237           90           90           90     102002.7   -908.84504 
  984000       983499   -7710.7531    560.81917   -8271.5723    4195.8571   -12467.429    92.453665    -591.8852   -922.01924   -771.44559    240.03848    71.294543    15.455555      46.7237      46.7237      46.7237           90           90           90     102002.7   -761.78335 
  985000       984499   -7730.9306    535.40403   -8266.3346    4200.8938   -12467.228     88.26386   -295.93395    -1085.774   -560.88196    153.92988    125.90423    -3.364465      46.7237      46.7237      46.7237           90           90           90     102002.7   -647.52998 
  986000       985499   -7718.3338    567.00015    -8285.334    4196.7591   -12482.093     93.47263   -660.33475   -642.72765   -891.70008   -209.63715   -135.32934   -90.962438      46.7237      46.7237      46.7237           90           90           90     102002.7   -731.58749 
  987000       986499   -7746.9516    543.30919   -8290.2608    4179.2073   -12469.468    89.567064   -651.40232   -564.86127   -844.99166    143.70513   -43.131611   -42.414028      46.7237      46.7237      46.7237           90           90           90     102002.7   -687.08508 
  988000       987499   -7755.9963    544.67313   -8300.6694    4178.9617   -12479.631    89.791916   -659.47961   -657.74303   -597.57937   -136.81788    58.140228    6.7963742      46.7237      46.7237      46.7237           90           90           90     102002.7   -638.26734 
  989000       988499   -7730.1073    548.98785   -8279.0952    4189.2347    -12468.33    90.503217   -565.94349   -143.85098    -922.4835    118.50574    160.22361    117.70384      46.7237      46.7237      46.7237           90           90           90     102002.7   -544.09266 
  990000       989499   -7745.2468    551.02499   -8296.2718    4186.0615   -12482.333     90.83905   -701.40246   -881.91445    -1200.602    90.958475    13.595113   -46.969956      46.7237      46.7237      46.7237           90           90           90     102002.7   -927.97298 
  991000       990499   -7744.6575     542.7906   -8287.4481    4190.3619    -12477.81    89.481572   -667.13614   -402.91787   -940.30937   -95.515791   -31.480277   -149.18923      46.7237      46.7237      46.7237           90           90           90     102002.7   -670.12113 
  992000       991499   -7751.4258    540.96309   -8292.3889     4182.932   -12475.321    89.180298   -591.68913   -893.74835   -1018.2669    54.720516    26.923985    22.491948      46.7237      46.7237      46.7237           90           90           90     102002.7   -834.56812 
  993000       992499    -7725.696    553.98093   -8279.6769    4196.2746   -12475.951    91.326349   -697.95938   -1034.8323   -917.29937   -112.99943    54.265837   -118.93045      46.7237      46.7237      46.7237           90           90           90     102002.7    -883.3637 
  994000       993499   -7723.5229    554.73746   -8278.2604    4195.2403   -12473.501    91.451067    -662.1759   -314.54856   -703.04422    192.18853   -63.221046   -165.25472      46.7237      46.7237      46.7237           90           90           90     102002.7   -559.92289 
  995000       994499   -7730.4442    551.56634   -8282.0106    4182.9427   -12464.953    90.928293   -875.35391   -778.21955    -981.3335   -118.19481   -108.18415   -58.888313      46.7237      46.7237      46.7237           90           90           90     102002.7   -878.30232 
  996000       995499    -7715.213    558.24017   -8273.4531    4195.2049   -12468.658    92.028505   -673.53077   -576.37404   -765.78931    114.82784   -150.74205   -62.750425      46.7237      46.7237      46.7237           90           90           90     102002.7   -671.89804 
  997000       996499   -7721.1226    554.67256   -8275.7952    4192.5691   -12468.364    91.440369   -676.73356   -326.98205   -653.43404   -315.51714    107.71505   -79.535395      46.7237      46.7237      46.7237           90           90           90     102002.7   -552.38322 
  998000       997499   -7745.3762    544.34327   -8289.7195    4171.4851   -12461.205    89.737537   -564.57372   -766.55351   -993.42182   -70.969643   -260.39829   -25.722911      46.7237      46.7237      46.7237           90           90           90     102002.7   -774.84968 
  999000       998499   -7718.2793    555.49497   -8273.7743    4196.9163   -12470.691    91.575946   -333.50246   -657.26859   -473.16782    212.47869   -35.198791    51.594304      46.7237      46.7237      46.7237           90           90           90     102002.7   -487.97962 
 1000000       999499   -7731.4042    557.95896   -8289.3631    4203.1529   -12492.516    91.982147   -556.94618   -956.91588   -301.34382     -10.3691    72.328847   -201.10788      46.7237      46.7237      46.7237           90           90           90     102002.7   -605.06863 
 1000501      1000000   -7740.4313    545.01357   -8285.4449    4197.4766   -12482.921    89.848038   -497.70721   -902.82112   -513.58087   -35.007234   -9.9796262   -127.99435      46.7237      46.7237      46.7237           90           90           90     102002.7    -638.0364 
Loop time of 1658.66 on 16 procs for 500000 steps with 2036 atoms

Performance: 26.045 ns/day, 0.921 hours/ns, 301.448 timesteps/s
99.8% CPU use with 16 MPI tasks x no OpenMP threads

MPI task timing breakdown:
Section |  min time  |  avg time  |  max time  |%varavg| %total
---------------------------------------------------------------
Pair    | 607.93     | 898.18     | 1211.4     | 743.6 | 54.15
Bond    | 154.63     | 183.79     | 209.05     | 147.4 | 11.08
Neigh   | 6.4776     | 6.5049     | 6.5262     |   0.5 |  0.39
Comm    | 206.15     | 541.84     | 844.17     |1036.6 | 32.67
Output  | 0.10525    | 0.10983    | 0.11027    |   0.4 |  0.01
Modify  | 21.972     | 22.731     | 24.302     |  16.6 |  1.37
Other   |            | 5.516      |            |       |  0.33

Nlocal:    127.25 ave 154 max 101 min
Histogram: 2 1 0 3 2 2 3 1 0 2
Nghost:    2543.25 ave 2568 max 2521 min
Histogram: 2 2 2 0 3 2 0 1 2 2
Neighs:    11452.9 ave 17202 max 5947 min
Histogram: 2 2 2 2 0 1 2 2 1 2

Total # of neighbors = 183247
Ave neighs/atom = 90.0034
Ave special neighs/atom = 5.65815
Neighbor list builds = 3877
Dangerous builds = 0
Total wall time: 0:51:04
