LAMMPS (30 Mar 2018)
Reading data file ...
  orthogonal box = (0 0 0) to (46.7237 46.7237 46.7237)
  2 by 2 by 4 MPI processor grid
  reading atoms ...
  1751 atoms
  scanning bonds ...
  5 = max bonds/atom
  scanning angles ...
  10 = max angles/atom
  scanning dihedrals ...
  32 = max dihedrals/atom
  scanning impropers ...
  3 = max impropers/atom
  reading bonds ...
  2064 bonds
  reading angles ...
  3696 angles
  reading dihedrals ...
  6240 dihedrals
  reading impropers ...
  1008 impropers
Finding 1-2 1-3 1-4 neighbors ...
  special bond factors lj:   0          0          0         
  special bond factors coul: 0          0          0         
  5 = max # of 1-2 neighbors
  8 = max # of 1-3 neighbors
  20 = max # of 1-4 neighbors
  19 = max # of special neighbors
Finding 1-2 1-3 1-4 neighbors ...
  special bond factors lj:   0          0          1         
  special bond factors coul: 1          1          1         
  5 = max # of 1-2 neighbors
  8 = max # of 1-3 neighbors
  19 = max # of special neighbors
WARNING: Using 'neigh_modify every 1 delay 0 check yes' setting during minimization (../min.cpp:168)
Neighbor list info ...
  update every 1 steps, delay 0 steps, check yes
  max neighbors/atom: 2000, page size: 100000
  master list distance cutoff = 16
  ghost atom cutoff = 16
  binsize = 8, bins = 6 6 6
  3 neighbor lists, perpetual/occasional/extra = 3 0 0
  (1) pair buck6d/coul/gauss/dsf, perpetual, skip from (3)
      attributes: half, newton on
      pair build: skip
      stencil: none
      bin: none
  (2) pair lj/cut, perpetual, skip from (3)
      attributes: half, newton on
      pair build: skip
      stencil: none
      bin: none
  (3) neighbor class addition, perpetual
      attributes: half, newton on
      pair build: half/bin/newton
      stencil: half/bin/3d/newton
      bin: standard
Setting up cg style minimization ...
  Unit style    : real
  Current step  : 0
WARNING: Inconsistent image flags (../domain.cpp:786)
Per MPI rank memory allocation (min/avg/max) = 22.89 | 23.35 | 23.79 Mbytes
Step Temp E_pair E_mol TotEng Press 
       0            0   -11582.601    6482.8914   -5099.7099    6261.0873 
     504            0   -11611.203    3739.2708   -7871.9326   -501.92736 
Loop time of 2.77225 on 16 procs for 504 steps with 1751 atoms

99.9% CPU use with 16 MPI tasks x no OpenMP threads

Minimization stats:
  Stopping criterion = max force evaluations
  Energy initial, next-to-last, final = 
        -5099.70994286     -7871.92689354     -7871.93256661
  Force two-norm initial, final = 2576.84 3.64514
  Force max component initial, final = 151.966 0.533866
  Final line search alpha, max atom move = 0.0152515 0.00814228
  Iterations, force evaluations = 504 1000

MPI task timing breakdown:
Section |  min time  |  avg time  |  max time  |%varavg| %total
---------------------------------------------------------------
Pair    | 1.1968     | 1.5874     | 2.0753     |  17.8 | 57.26
Bond    | 0.29448    | 0.35972    | 0.43422    |   6.7 | 12.98
Neigh   | 0.011207   | 0.011293   | 0.011343   |   0.0 |  0.41
Comm    | 0.26255    | 0.77421    | 1.1504     |  25.6 | 27.93
Output  | 0          | 0          | 0          |   0.0 |  0.00
Modify  | 0          | 0          | 0          |   0.0 |  0.00
Other   |            | 0.03959    |            |       |  1.43

Nlocal:    109.438 ave 125 max 84 min
Histogram: 1 0 1 2 1 2 3 1 1 4
Nghost:    2206.06 ave 2229 max 2191 min
Histogram: 3 2 2 1 2 2 2 1 0 1
Neighs:    11439.4 ave 15657 max 6950 min
Histogram: 2 0 3 2 2 1 0 2 1 3

Total # of neighbors = 183030
Ave neighs/atom = 104.529
Ave special neighs/atom = 6.5791
Neighbor list builds = 9
Dangerous builds = 0
Neighbor list info ...
  update every 1 steps, delay 10 steps, check yes
  max neighbors/atom: 2000, page size: 100000
  master list distance cutoff = 16
  ghost atom cutoff = 16
  binsize = 8, bins = 6 6 6
  3 neighbor lists, perpetual/occasional/extra = 3 0 0
  (1) pair buck6d/coul/gauss/dsf, perpetual, skip from (3)
      attributes: half, newton on
      pair build: skip
      stencil: none
      bin: none
  (2) pair lj/cut, perpetual, skip from (3)
      attributes: half, newton on
      pair build: skip
      stencil: none
      bin: none
  (3) neighbor class addition, perpetual
      attributes: half, newton on
      pair build: half/bin/newton
      stencil: half/bin/3d/newton
      bin: standard
Setting up Verlet run ...
  Unit style    : real
  Current step  : 504
  Time step     : 1
WARNING: Inconsistent image flags (../domain.cpp:786)
Per MPI rank memory allocation (min/avg/max) = 22.54 | 22.61 | 22.67 Mbytes
Step Temp PotEng TotEng Press Volume Lx Ly Lz 
     504           91   -7871.9326   -7397.2386   -289.19434     102002.7      46.7237      46.7237      46.7237 
    1000    83.552808   -7468.7168   -7032.8704   -696.09583     102002.7      46.7237      46.7237      46.7237 
    2000     92.87182   -7383.4145   -6898.9563   -676.60832     102002.7      46.7237      46.7237      46.7237 
    3000    87.371365   -7375.8198   -6920.0542   -1003.2368     102002.7      46.7237      46.7237      46.7237 
    4000    89.375777   -7392.8127   -6926.5913   -634.65583     102002.7      46.7237      46.7237      46.7237 
    5000    91.079105   -7376.9535   -6901.8469   -737.47492     102002.7      46.7237      46.7237      46.7237 
    6000    89.818291   -7388.5812   -6920.0515   -657.46304     102002.7      46.7237      46.7237      46.7237 
    7000    91.070236   -7394.2067   -6919.1463   -583.07815     102002.7      46.7237      46.7237      46.7237 
    8000    91.963406    -7371.906   -6892.1865   -700.54576     102002.7      46.7237      46.7237      46.7237 
    9000    90.145712   -7390.8894   -6920.6517   -602.24781     102002.7      46.7237      46.7237      46.7237 
   10000    91.926956   -7397.7538   -6918.2244   -789.59022     102002.7      46.7237      46.7237      46.7237 
   11000    91.743772   -7380.5149   -6901.9411   -781.97882     102002.7      46.7237      46.7237      46.7237 
   12000    89.839436   -7381.7007   -6913.0607   -938.43252     102002.7      46.7237      46.7237      46.7237 
   13000    90.799099   -7398.5166   -6924.8706   -667.68118     102002.7      46.7237      46.7237      46.7237 
   14000    91.591065   -7384.6945   -6906.9173   -715.88552     102002.7      46.7237      46.7237      46.7237 
   15000    90.484821   -7378.5119   -6906.5052   -797.97335     102002.7      46.7237      46.7237      46.7237 
   16000    89.810498   -7380.0023   -6911.5133   -695.39922     102002.7      46.7237      46.7237      46.7237 
   17000    90.140348   -7390.5229   -6920.3132   -736.50702     102002.7      46.7237      46.7237      46.7237 
   18000    91.525959   -7380.7418   -6903.3042   -1010.2909     102002.7      46.7237      46.7237      46.7237 
   19000    91.078163   -7369.7202   -6894.6184   -841.51061     102002.7      46.7237      46.7237      46.7237 
   20000    91.957753   -7390.9103   -6911.2202    -640.8444     102002.7      46.7237      46.7237      46.7237 
   21000    89.225846     -7383.94   -6918.5007   -501.89849     102002.7      46.7237      46.7237      46.7237 
   22000    93.282828   -7387.6456   -6901.0434   -791.23727     102002.7      46.7237      46.7237      46.7237 
   23000    89.249488   -7390.9925   -6925.4299   -559.88542     102002.7      46.7237      46.7237      46.7237 
   24000    92.399387   -7374.3022   -6892.3084   -629.70792     102002.7      46.7237      46.7237      46.7237 
   25000    91.813913   -7378.8399   -6899.9002   -438.04679     102002.7      46.7237      46.7237      46.7237 
   26000    91.552679   -7403.4775   -6925.9005   -500.76736     102002.7      46.7237      46.7237      46.7237 
   27000    94.098225   -7392.2143   -6901.3587   -633.65356     102002.7      46.7237      46.7237      46.7237 
   28000    90.398856   -7387.6574   -6916.0992   -657.05381     102002.7      46.7237      46.7237      46.7237 
   29000    89.703292   -7380.5603   -6912.6305   -883.02616     102002.7      46.7237      46.7237      46.7237 
   30000      94.5668    -7380.653   -6887.3531   -533.71901     102002.7      46.7237      46.7237      46.7237 
   31000    90.945159   -7393.4058   -6918.9979   -438.19529     102002.7      46.7237      46.7237      46.7237 
   32000    88.576719   -7373.5429   -6911.4897   -606.20663     102002.7      46.7237      46.7237      46.7237 
   33000    92.743082   -7378.1142   -6894.3276   -742.08833     102002.7      46.7237      46.7237      46.7237 
   34000    89.948678   -7381.9877   -6912.7778   -565.49335     102002.7      46.7237      46.7237      46.7237 
   35000    88.838621   -7388.6882   -6925.2689   -737.77187     102002.7      46.7237      46.7237      46.7237 
   36000    90.670184    -7400.077   -6927.1035   -602.39688     102002.7      46.7237      46.7237      46.7237 
   37000    92.530914    -7396.786   -6914.1061   -627.22821     102002.7      46.7237      46.7237      46.7237 
   38000    92.777075   -7396.0739   -6912.1099   -555.57949     102002.7      46.7237      46.7237      46.7237 
   39000     87.83566    -7389.625   -6931.4375    -830.1108     102002.7      46.7237      46.7237      46.7237 
   40000    89.868154   -7385.1712   -6916.3814   -703.39739     102002.7      46.7237      46.7237      46.7237 
   41000     90.01903   -7384.0547   -6914.4778    -793.0089     102002.7      46.7237      46.7237      46.7237 
   42000    91.861868   -7385.0215   -6905.8316   -802.44851     102002.7      46.7237      46.7237      46.7237 
   43000    90.839798   -7390.6608   -6916.8025   -810.20337     102002.7      46.7237      46.7237      46.7237 
   44000    90.705049   -7411.7361   -6938.5807    -638.8789     102002.7      46.7237      46.7237      46.7237 
   45000    94.370714   -7396.0956   -6903.8185   -844.74645     102002.7      46.7237      46.7237      46.7237 
   46000    92.746814   -7396.2634   -6912.4573   -774.13981     102002.7      46.7237      46.7237      46.7237 
   47000     89.90324   -7373.0621   -6904.0892   -825.52139     102002.7      46.7237      46.7237      46.7237 
   48000    91.930507   -7384.9195   -6905.3716   -627.84212     102002.7      46.7237      46.7237      46.7237 
   49000    91.777458   -7388.1191   -6909.3695   -812.83472     102002.7      46.7237      46.7237      46.7237 
   50000    94.107545   -7384.4005   -6893.4963   -857.75801     102002.7      46.7237      46.7237      46.7237 
   51000    89.809502   -7385.3439     -6916.86   -412.17329     102002.7      46.7237      46.7237      46.7237 
   52000    93.128579   -7403.0655    -6917.268   -812.77519     102002.7      46.7237      46.7237      46.7237 
   53000     91.58788   -7381.6067    -6903.846   -747.47547     102002.7      46.7237      46.7237      46.7237 
   54000    90.420488   -7398.7138   -6927.0427   -653.06762     102002.7      46.7237      46.7237      46.7237 
   55000    89.432218   -7391.5264   -6925.0106    -638.3682     102002.7      46.7237      46.7237      46.7237 
   56000    92.307687   -7391.5411   -6910.0257   -539.60273     102002.7      46.7237      46.7237      46.7237 
   57000    92.146233   -7400.7371   -6920.0639   -813.81112     102002.7      46.7237      46.7237      46.7237 
   58000    91.779471   -7397.1673   -6918.4073   -748.31859     102002.7      46.7237      46.7237      46.7237 
   59000    91.324275   -7376.7157   -6900.3302   -636.71089     102002.7      46.7237      46.7237      46.7237 
   60000    89.046604   -7382.9017   -6918.3974   -896.20584     102002.7      46.7237      46.7237      46.7237 
   61000    87.799012   -7375.5662   -6917.5699   -858.72996     102002.7      46.7237      46.7237      46.7237 
   62000     93.26127   -7402.7824   -6916.2927   -848.78919     102002.7      46.7237      46.7237      46.7237 
   63000    91.371267   -7393.8502   -6917.2195   -555.30715     102002.7      46.7237      46.7237      46.7237 
   64000    96.692492   -7381.4979   -6877.1095   -589.74351     102002.7      46.7237      46.7237      46.7237 
   65000    86.953851   -7405.0374   -6951.4498   -742.69148     102002.7      46.7237      46.7237      46.7237 
   66000    92.694364   -7391.8559   -6908.3234   -698.06276     102002.7      46.7237      46.7237      46.7237 
   67000    90.741408   -7389.9378   -6916.5927   -547.76983     102002.7      46.7237      46.7237      46.7237 
   68000    91.773848    -7388.396   -6909.6653    -591.1195     102002.7      46.7237      46.7237      46.7237 
   69000    89.418139   -7372.7692   -6906.3268   -649.02267     102002.7      46.7237      46.7237      46.7237 
   70000    88.978434   -7382.4023   -6918.2537   -603.69011     102002.7      46.7237      46.7237      46.7237 
   71000    91.944258    -7383.887   -6904.2673   -724.86559     102002.7      46.7237      46.7237      46.7237 
   72000    92.039634   -7391.0577   -6910.9405   -614.77661     102002.7      46.7237      46.7237      46.7237 
   73000    88.704856   -7397.0613   -6934.3397   -483.45268     102002.7      46.7237      46.7237      46.7237 
   74000    89.648898   -7374.8908   -6907.2447   -643.31989     102002.7      46.7237      46.7237      46.7237 
   75000    92.914959   -7378.5964   -6893.9131   -741.84881     102002.7      46.7237      46.7237      46.7237 
   76000    91.550814   -7396.9048   -6919.3376   -678.66964     102002.7      46.7237      46.7237      46.7237 
   77000    91.191938    -7384.697   -6909.0018   -675.57007     102002.7      46.7237      46.7237      46.7237 
   78000    93.254748   -7385.9647    -6899.509   -496.88496     102002.7      46.7237      46.7237      46.7237 
   79000    89.750011   -7393.4038   -6925.2303   -585.01623     102002.7      46.7237      46.7237      46.7237 
   80000    89.671854   -7406.4695   -6938.7037   -706.16413     102002.7      46.7237      46.7237      46.7237 
   81000    91.153724   -7382.2537   -6906.7578    -652.7916     102002.7      46.7237      46.7237      46.7237 
   82000    89.443235   -7393.7828   -6927.2095   -712.38509     102002.7      46.7237      46.7237      46.7237 
   83000     92.96669   -7387.7788   -6902.8257   -709.31344     102002.7      46.7237      46.7237      46.7237 
   84000    91.835033   -7392.3337   -6913.2838   -559.36238     102002.7      46.7237      46.7237      46.7237 
   85000     92.98459   -7414.7374    -6929.691   -501.70163     102002.7      46.7237      46.7237      46.7237 
   86000    94.938527    -7393.218    -6897.979   -601.30167     102002.7      46.7237      46.7237      46.7237 
   87000    91.477283   -7374.4209   -6897.2372   -1109.3618     102002.7      46.7237      46.7237      46.7237 
   88000    89.586349   -7379.1707   -6911.8509   -667.53652     102002.7      46.7237      46.7237      46.7237 
   89000    92.488564   -7385.5082   -6903.0492   -924.07136     102002.7      46.7237      46.7237      46.7237 
   90000    90.379912   -7390.0075   -6918.5481    -733.8347     102002.7      46.7237      46.7237      46.7237 
   91000    91.555128   -7384.3552   -6906.7655   -968.88274     102002.7      46.7237      46.7237      46.7237 
   92000    92.180714   -7400.1776   -6919.3245   -605.11022     102002.7      46.7237      46.7237      46.7237 
   93000    86.039092   -7383.2224   -6934.4065   -688.24517     102002.7      46.7237      46.7237      46.7237 
   94000    90.299433   -7372.0269   -6900.9873   -764.55386     102002.7      46.7237      46.7237      46.7237 
   95000    88.309769   -7378.2518   -6917.5912   -863.04315     102002.7      46.7237      46.7237      46.7237 
   96000    92.398814   -7405.3222   -6923.3315    -809.6619     102002.7      46.7237      46.7237      46.7237 
   97000    92.529917   -7379.3626   -6896.6879   -699.18624     102002.7      46.7237      46.7237      46.7237 
   98000    87.372134   -7400.6657   -6944.8962   -704.48119     102002.7      46.7237      46.7237      46.7237 
   99000    92.902878   -7395.9673   -6911.3471   -462.58399     102002.7      46.7237      46.7237      46.7237 
  100000    95.353907   -7385.3518    -6887.946    -563.1756     102002.7      46.7237      46.7237      46.7237 
  101000     92.69757   -7390.5733   -6907.0241   -892.37786     102002.7      46.7237      46.7237      46.7237 
  102000    90.970862   -7405.1789   -6930.6369   -673.64001     102002.7      46.7237      46.7237      46.7237 
  103000    90.176122    -7383.426   -6913.0297   -805.96927     102002.7      46.7237      46.7237      46.7237 
  104000    90.303492   -7385.9397   -6914.8789    -671.7345     102002.7      46.7237      46.7237      46.7237 
  105000    93.593825   -7388.8639   -6900.6395   -652.98909     102002.7      46.7237      46.7237      46.7237 
  106000    91.122399   -7396.4066   -6921.0741   -496.51859     102002.7      46.7237      46.7237      46.7237 
  107000    89.890012   -7367.2292   -6898.3254   -206.45023     102002.7      46.7237      46.7237      46.7237 
  108000    91.170316    -7394.922   -6919.3395   -531.28097     102002.7      46.7237      46.7237      46.7237 
  109000    88.226647    -7392.803    -6932.576   -428.10239     102002.7      46.7237      46.7237      46.7237 
  110000    88.180917   -7388.0421   -6928.0537   -492.53005     102002.7      46.7237      46.7237      46.7237 
  111000    91.363054    -7386.828   -6910.2402   -371.30981     102002.7      46.7237      46.7237      46.7237 
  112000    86.847482   -7395.5962   -6942.5634   -581.49288     102002.7      46.7237      46.7237      46.7237 
  113000     90.12805   -7394.1092   -6923.9636   -372.01508     102002.7      46.7237      46.7237      46.7237 
  114000    88.665889   -7390.8984   -6928.3801   -545.70873     102002.7      46.7237      46.7237      46.7237 
  115000    95.402741   -7387.2672   -6889.6067   -623.08801     102002.7      46.7237      46.7237      46.7237 
  116000    91.241333   -7404.8987   -6928.9458   -629.47623     102002.7      46.7237      46.7237      46.7237 
  117000    88.374928   -7392.6879   -6931.6874   -585.96853     102002.7      46.7237      46.7237      46.7237 
  118000    89.174437   -7383.4496   -6918.2785   -334.64944     102002.7      46.7237      46.7237      46.7237 
  119000    88.133383   -7381.8777   -6922.1371   -782.26603     102002.7      46.7237      46.7237      46.7237 
  120000    90.910054   -7401.8552   -6927.6303   -680.80568     102002.7      46.7237      46.7237      46.7237 
  121000    92.934745    -7392.433   -6907.6466   -705.79308     102002.7      46.7237      46.7237      46.7237 
  122000    88.176766   -7372.5468   -6912.5799   -527.85703     102002.7      46.7237      46.7237      46.7237 
  123000      93.7008   -7388.5244   -6899.7419   -666.17456     102002.7      46.7237      46.7237      46.7237 
  124000    88.948185   -7386.7009   -6922.7101   -854.19168     102002.7      46.7237      46.7237      46.7237 
  125000    93.357411   -7390.6105   -6903.6192   -411.53765     102002.7      46.7237      46.7237      46.7237 
  126000    92.334413     -7398.64   -6916.9851   -655.89315     102002.7      46.7237      46.7237      46.7237 
  127000    93.066991   -7382.7959   -6897.3196   -586.86122     102002.7      46.7237      46.7237      46.7237 
  128000    92.977593   -7388.8226   -6903.8127   -731.70968     102002.7      46.7237      46.7237      46.7237 
  129000    89.593792   -7392.4237    -6925.065   -838.07054     102002.7      46.7237      46.7237      46.7237 
  130000    88.603123   -7391.9724   -6929.7815    -660.6768     102002.7      46.7237      46.7237      46.7237 
  131000    93.071898   -7391.6943   -6906.1924   -940.39825     102002.7      46.7237      46.7237      46.7237 
  132000    89.309374   -7386.5011   -6920.6261    -640.7364     102002.7      46.7237      46.7237      46.7237 
  133000    90.589255   -7392.2992   -6919.7479   -1045.1523     102002.7      46.7237      46.7237      46.7237 
  134000    89.621331   -7357.6263    -6890.124   -900.70362     102002.7      46.7237      46.7237      46.7237 
  135000    93.442803   -7394.2119   -6906.7752   -969.55232     102002.7      46.7237      46.7237      46.7237 
  136000     91.45323   -7384.1857   -6907.1274   -1069.8164     102002.7      46.7237      46.7237      46.7237 
  137000    91.902157   -7388.8986   -6909.4986   -815.15943     102002.7      46.7237      46.7237      46.7237 
  138000    88.662704   -7395.6661   -6933.1644   -739.98415     102002.7      46.7237      46.7237      46.7237 
  139000    91.438305   -7383.8111   -6906.8308   -801.69667     102002.7      46.7237      46.7237      46.7237 
  140000     89.33241   -7385.4605   -6919.4653   -703.68756     102002.7      46.7237      46.7237      46.7237 
  141000     90.11658   -7404.3396   -6934.2539   -795.60456     102002.7      46.7237      46.7237      46.7237 
  142000    91.423796   -7381.0725   -6904.1678   -768.92018     102002.7      46.7237      46.7237      46.7237 
  143000    89.406077   -7390.5091   -6924.1296   -881.10554     102002.7      46.7237      46.7237      46.7237 
  144000    88.697928   -7391.0812   -6928.3957   -780.26952     102002.7      46.7237      46.7237      46.7237 
  145000    92.030902   -7393.2377   -6913.1661   -646.74195     102002.7      46.7237      46.7237      46.7237 
  146000    90.089571   -7368.6413   -6898.6964   -804.13574     102002.7      46.7237      46.7237      46.7237 
  147000    91.956954   -7395.8359     -6916.15   -580.62979     102002.7      46.7237      46.7237      46.7237 
  148000    93.511321   -7391.8464   -6904.0523   -539.02966     102002.7      46.7237      46.7237      46.7237 
  149000    91.568527   -7402.5013   -6924.8416   -598.83911     102002.7      46.7237      46.7237      46.7237 
  150000    90.984856   -7387.0612   -6912.4462   -657.99414     102002.7      46.7237      46.7237      46.7237 
  151000    91.039971   -7386.2961   -6911.3936   -635.53515     102002.7      46.7237      46.7237      46.7237 
  152000    89.647516   -7383.5125   -6915.8736   -681.69177     102002.7      46.7237      46.7237      46.7237 
  153000    93.591303   -7380.1419   -6891.9306   -743.25609     102002.7      46.7237      46.7237      46.7237 
  154000    87.752775    -7379.262   -6921.5069   -656.93992     102002.7      46.7237      46.7237      46.7237 
  155000    93.706645   -7385.5051   -6896.6921   -592.41746     102002.7      46.7237      46.7237      46.7237 
  156000    89.372603   -7378.7968    -6912.592   -870.30735     102002.7      46.7237      46.7237      46.7237 
  157000    90.048247   -7396.1823   -6926.4531    -890.7497     102002.7      46.7237      46.7237      46.7237 
  158000    89.632576   -7375.6753   -6908.1144   -835.84326     102002.7      46.7237      46.7237      46.7237 
  159000    93.966609   -7381.5165   -6891.3474   -871.53513     102002.7      46.7237      46.7237      46.7237 
  160000    92.039995   -7400.4377   -6920.3187   -477.35703     102002.7      46.7237      46.7237      46.7237 
  161000    89.382929   -7379.6961   -6913.4375   -775.06025     102002.7      46.7237      46.7237      46.7237 
  162000    92.508471   -7378.8685   -6896.3057   -817.90307     102002.7      46.7237      46.7237      46.7237 
  163000     87.68338   -7378.7382   -6921.3451   -805.15028     102002.7      46.7237      46.7237      46.7237 
  164000    91.674834   -7386.1307   -6907.9165    -946.0914     102002.7      46.7237      46.7237      46.7237 
  165000     90.86035   -7400.2488   -6926.2833   -871.40093     102002.7      46.7237      46.7237      46.7237 
  166000    91.716046   -7389.7367   -6911.3075   -762.54655     102002.7      46.7237      46.7237      46.7237 
  167000    87.693307   -7379.4415   -6921.9966   -670.66893     102002.7      46.7237      46.7237      46.7237 
  168000    93.041499   -7391.9573    -6906.614   -632.97981     102002.7      46.7237      46.7237      46.7237 
  169000    90.563471   -7393.0867   -6920.6698   -603.17104     102002.7      46.7237      46.7237      46.7237 
  170000    92.589866   -7385.5887   -6902.6013   -453.91196     102002.7      46.7237      46.7237      46.7237 
  171000    86.700746   -7383.4542   -6931.1869   -385.24178     102002.7      46.7237      46.7237      46.7237 
  172000     89.80088   -7366.3586   -6897.9197   -776.33168     102002.7      46.7237      46.7237      46.7237 
  173000    89.396613    -7381.845   -6915.5149    -680.8133     102002.7      46.7237      46.7237      46.7237 
  174000    91.949443   -7380.7763   -6901.1296   -689.21118     102002.7      46.7237      46.7237      46.7237 
  175000    89.205089   -7381.3574   -6916.0264   -822.24344     102002.7      46.7237      46.7237      46.7237 
  176000    91.941836    -7391.603    -6911.996     -466.555     102002.7      46.7237      46.7237      46.7237 
  177000    88.738942    -7384.288   -6921.3886   -728.94182     102002.7      46.7237      46.7237      46.7237 
  178000    90.784394    -7365.558   -6891.9887   -773.67633     102002.7      46.7237      46.7237      46.7237 
  179000    89.906834   -7387.3097   -6918.3181   -473.28868     102002.7      46.7237      46.7237      46.7237 
  180000    91.118242   -7382.4942   -6907.1834   -997.76171     102002.7      46.7237      46.7237      46.7237 
  181000    88.811271   -7396.4576   -6933.1809   -609.59802     102002.7      46.7237      46.7237      46.7237 
  182000    89.380718   -7388.4973   -6922.2502   -794.61944     102002.7      46.7237      46.7237      46.7237 
  183000    90.939592   -7377.1696   -6902.7908   -537.88303     102002.7      46.7237      46.7237      46.7237 
  184000    88.807285   -7373.5961   -6910.3402   -548.12096     102002.7      46.7237      46.7237      46.7237 
  185000    92.199888   -7376.3442   -6895.3911   -835.39653     102002.7      46.7237      46.7237      46.7237 
  186000    90.296884   -7391.8343    -6920.808   -396.81054     102002.7      46.7237      46.7237      46.7237 
  187000    92.389365   -7392.0716   -6910.1301   -848.77014     102002.7      46.7237      46.7237      46.7237 
  188000     89.24921   -7376.8355   -6911.2744   -600.00256     102002.7      46.7237      46.7237      46.7237 
  189000    91.677512   -7375.8488   -6897.6206   -844.47015     102002.7      46.7237      46.7237      46.7237 
  190000    93.903086   -7389.7163   -6899.8786   -712.21288     102002.7      46.7237      46.7237      46.7237 
  191000    86.425308   -7399.6258   -6948.7953   -413.28749     102002.7      46.7237      46.7237      46.7237 
  192000     89.97307   -7376.1645   -6906.8274   -589.65772     102002.7      46.7237      46.7237      46.7237 
  193000    88.602947    -7391.658   -6929.4681   -711.61031     102002.7      46.7237      46.7237      46.7237 
  194000    89.929419   -7373.1642   -6904.0548   -934.69078     102002.7      46.7237      46.7237      46.7237 
  195000     90.19729   -7384.6754   -6914.1686   -680.46649     102002.7      46.7237      46.7237      46.7237 
  196000    91.072632   -7371.6541   -6896.5812   -948.00513     102002.7      46.7237      46.7237      46.7237 
  197000    93.213287   -7403.2176   -6916.9781   -910.47718     102002.7      46.7237      46.7237      46.7237 
  198000    91.859473   -7399.7637   -6920.5863   -707.35795     102002.7      46.7237      46.7237      46.7237 
  199000    91.285527   -7375.1357   -6898.9523    -874.3277     102002.7      46.7237      46.7237      46.7237 
  200000    91.190116    -7399.668   -6923.9823   -613.05402     102002.7      46.7237      46.7237      46.7237 
  201000    92.567729   -7389.9623   -6907.0904    -829.9183     102002.7      46.7237      46.7237      46.7237 
  202000     92.12618   -7376.3967    -6895.828   -993.89773     102002.7      46.7237      46.7237      46.7237 
  203000    90.967555   -7398.4186   -6923.8938   -481.68017     102002.7      46.7237      46.7237      46.7237 
  204000     90.90499   -7388.5142   -6914.3159   -766.15833     102002.7      46.7237      46.7237      46.7237 
  205000    92.687633   -7386.2368   -6902.7394   -778.43158     102002.7      46.7237      46.7237      46.7237 
  206000    88.814546   -7394.7959   -6931.5021   -373.56338     102002.7      46.7237      46.7237      46.7237 
  207000    88.470481   -7401.7739   -6940.2749   -618.64148     102002.7      46.7237      46.7237      46.7237 
  208000    90.884363   -7390.3681   -6916.2773    -837.8501     102002.7      46.7237      46.7237      46.7237 
  209000     89.82281   -7399.0995   -6930.5462   -697.17213     102002.7      46.7237      46.7237      46.7237 
  210000    92.643795   -7386.4617    -6903.193   -640.64456     102002.7      46.7237      46.7237      46.7237 
  211000      92.2631    -7386.314   -6905.0311   -895.92981     102002.7      46.7237      46.7237      46.7237 
  212000    87.009336   -7379.0597   -6925.1826   -955.23449     102002.7      46.7237      46.7237      46.7237 
  213000    88.100776   -7388.3123   -6928.7418   -815.00009     102002.7      46.7237      46.7237      46.7237 
  214000    90.578364   -7375.4898   -6902.9952   -777.66752     102002.7      46.7237      46.7237      46.7237 
  215000    93.624763   -7391.6375   -6903.2517    -805.3806     102002.7      46.7237      46.7237      46.7237 
  216000    89.963713   -7394.3843    -6925.096    -691.7256     102002.7      46.7237      46.7237      46.7237 
  217000    91.650808     -7398.31   -6920.2211   -725.65553     102002.7      46.7237      46.7237      46.7237 
  218000    90.773502   -7383.7802   -6910.2677   -741.50271     102002.7      46.7237      46.7237      46.7237 
  219000    89.933651   -7396.3577   -6927.2263   -736.05747     102002.7      46.7237      46.7237      46.7237 
  220000     91.03674   -7371.3894   -6896.5037   -789.03324     102002.7      46.7237      46.7237      46.7237 
  221000    91.646002   -7386.9466   -6908.8828   -577.48035     102002.7      46.7237      46.7237      46.7237 
  222000    93.739363   -7390.3697    -6901.386   -678.37443     102002.7      46.7237      46.7237      46.7237 
  223000     91.78393   -7383.3823    -6904.599   -710.68984     102002.7      46.7237      46.7237      46.7237 
  224000    91.087067   -7391.2802    -6916.132   -761.46061     102002.7      46.7237      46.7237      46.7237 
  225000    91.988886   -7384.4228   -6904.5703   -625.34361     102002.7      46.7237      46.7237      46.7237 
  226000    91.118663   -7394.3866   -6919.0736   -494.75948     102002.7      46.7237      46.7237      46.7237 
  227000    87.759518   -7391.7734   -6933.9831   -713.84922     102002.7      46.7237      46.7237      46.7237 
  228000    89.267585    -7382.483    -6916.826   -590.69607     102002.7      46.7237      46.7237      46.7237 
  229000    89.848542   -7394.2311   -6925.5436   -666.75817     102002.7      46.7237      46.7237      46.7237 
  230000    89.286678    -7385.298   -6919.5414   -664.04009     102002.7      46.7237      46.7237      46.7237 
  231000    94.681523   -7376.1719   -6882.2735   -563.95193     102002.7      46.7237      46.7237      46.7237 
  232000    90.625469   -7372.4369   -6899.6966   -805.50537     102002.7      46.7237      46.7237      46.7237 
  233000    88.630428   -7387.8894   -6925.5561   -601.96053     102002.7      46.7237      46.7237      46.7237 
  234000    93.118073   -7396.2817   -6910.5389   -620.79073     102002.7      46.7237      46.7237      46.7237 
  235000    91.201009   -7379.5685    -6903.826   -674.74131     102002.7      46.7237      46.7237      46.7237 
  236000    88.153121   -7393.1352   -6933.2917    -791.2108     102002.7      46.7237      46.7237      46.7237 
  237000    94.426029   -7380.6916    -6888.126    -773.3711     102002.7      46.7237      46.7237      46.7237 
  238000    90.842638   -7381.8592   -6907.9861   -584.70501     102002.7      46.7237      46.7237      46.7237 
  239000    91.809795   -7392.0145   -6913.0962   -610.30772     102002.7      46.7237      46.7237      46.7237 
  240000    87.575014   -7395.9441   -6939.1162   -558.47658     102002.7      46.7237      46.7237      46.7237 
  241000    90.837651   -7396.6123   -6922.7652   -628.83298     102002.7      46.7237      46.7237      46.7237 
  242000    88.885789   -7383.1969   -6919.5315   -289.69965     102002.7      46.7237      46.7237      46.7237 
  243000    94.016398    -7386.837   -6896.4083   -434.28621     102002.7      46.7237      46.7237      46.7237 
  244000    92.942943   -7383.2817   -6898.4525   -479.66591     102002.7      46.7237      46.7237      46.7237 
  245000    91.428754   -7384.6542   -6907.7236   -600.49397     102002.7      46.7237      46.7237      46.7237 
  246000     89.11974   -7394.5453   -6929.6596   -422.04637     102002.7      46.7237      46.7237      46.7237 
  247000    92.410273   -7387.3979   -6905.3473   -489.12438     102002.7      46.7237      46.7237      46.7237 
  248000    90.139342   -7409.3033   -6939.0989   -761.08882     102002.7      46.7237      46.7237      46.7237 
  249000     90.39957   -7382.5506   -6910.9887     -399.987     102002.7      46.7237      46.7237      46.7237 
  250000    90.399169   -7403.6097   -6932.0499   -622.41826     102002.7      46.7237      46.7237      46.7237 
  251000     92.89552   -7386.9478    -6902.366   -694.38219     102002.7      46.7237      46.7237      46.7237 
  252000    88.493229   -7394.1713   -6932.5537   -751.35752     102002.7      46.7237      46.7237      46.7237 
  253000    88.862515   -7364.1332   -6900.5892   -807.72159     102002.7      46.7237      46.7237      46.7237 
  254000    90.858437   -7383.5205   -6909.5649   -500.04299     102002.7      46.7237      46.7237      46.7237 
  255000    92.185353   -7382.5258   -6901.6485   -872.65854     102002.7      46.7237      46.7237      46.7237 
  256000    90.180842    -7384.097   -6913.6761   -603.07726     102002.7      46.7237      46.7237      46.7237 
  257000    91.726235   -7374.8637   -6896.3814    -700.9886     102002.7      46.7237      46.7237      46.7237 
  258000    90.492885   -7379.2687     -6907.22   -802.03478     102002.7      46.7237      46.7237      46.7237 
  259000    88.394231   -7378.2827   -6917.1814   -687.12869     102002.7      46.7237      46.7237      46.7237 
  260000    88.424639   -7374.3194   -6913.0595    -879.7321     102002.7      46.7237      46.7237      46.7237 
  261000     92.03221   -7401.1676   -6921.0891   -632.20672     102002.7      46.7237      46.7237      46.7237 
  262000    90.369298   -7407.4108   -6936.0068   -715.35915     102002.7      46.7237      46.7237      46.7237 
  263000    92.685206   -7378.7427    -6895.258   -964.90062     102002.7      46.7237      46.7237      46.7237 
  264000    92.668985   -7398.0433   -6914.6432    -970.0906     102002.7      46.7237      46.7237      46.7237 
  265000    90.736136   -7380.3052   -6906.9877   -710.85587     102002.7      46.7237      46.7237      46.7237 
  266000    91.157315   -7370.7963   -6895.2817   -886.06875     102002.7      46.7237      46.7237      46.7237 
  267000    90.063212   -7383.0464   -6913.2391   -938.64762     102002.7      46.7237      46.7237      46.7237 
  268000    90.338241   -7379.2617   -6908.0197   -872.60454     102002.7      46.7237      46.7237      46.7237 
  269000    88.412758   -7394.7273   -6933.5294   -889.06824     102002.7      46.7237      46.7237      46.7237 
  270000    90.189123    -7381.517   -6911.0529   -891.49133     102002.7      46.7237      46.7237      46.7237 
  271000    89.776729    -7389.719   -6921.4061   -439.55684     102002.7      46.7237      46.7237      46.7237 
  272000    89.156553   -7370.5194   -6905.4416   -663.07219     102002.7      46.7237      46.7237      46.7237 
  273000    88.963598   -7385.7104   -6921.6391   -561.81186     102002.7      46.7237      46.7237      46.7237 
  274000    90.692589   -7385.3675   -6912.2771    -669.2435     102002.7      46.7237      46.7237      46.7237 
  275000    89.870884   -7398.4022   -6929.5981   -524.45427     102002.7      46.7237      46.7237      46.7237 
  276000    89.610262   -7413.0957   -6945.6512   -905.00848     102002.7      46.7237      46.7237      46.7237 
  277000    90.258878   -7382.0237   -6911.1957   -458.89132     102002.7      46.7237      46.7237      46.7237 
  278000    91.574968   -7390.6757   -6912.9824   -587.45672     102002.7      46.7237      46.7237      46.7237 
  279000    89.215678   -7404.7883   -6939.4021   -331.85109     102002.7      46.7237      46.7237      46.7237 
  280000    91.293986   -7382.4124   -6906.1849   -784.93187     102002.7      46.7237      46.7237      46.7237 
  281000     90.12509   -7389.8171    -6919.687     -567.558     102002.7      46.7237      46.7237      46.7237 
  282000    92.685542   -7397.8308   -6914.3443   -714.35968     102002.7      46.7237      46.7237      46.7237 
  283000    93.013192   -7386.3967    -6901.201   -811.60156     102002.7      46.7237      46.7237      46.7237 
  284000    89.375439   -7390.6396     -6924.42   -691.95723     102002.7      46.7237      46.7237      46.7237 
  285000    92.517355   -7394.4299   -6911.8208   -689.11605     102002.7      46.7237      46.7237      46.7237 
  286000    93.750989   -7384.2635   -6895.2192   -534.13114     102002.7      46.7237      46.7237      46.7237 
  287000    90.113801    -7384.025   -6913.9538   -585.04844     102002.7      46.7237      46.7237      46.7237 
  288000    89.215933   -7395.3103   -6929.9227   -599.83492     102002.7      46.7237      46.7237      46.7237 
  289000    91.419757   -7377.6498   -6900.7662   -576.81561     102002.7      46.7237      46.7237      46.7237 
  290000    88.954156   -7396.3369   -6932.3149   -934.34768     102002.7      46.7237      46.7237      46.7237 
  291000    92.158342   -7387.9631   -6907.2267   -478.88221     102002.7      46.7237      46.7237      46.7237 
  292000     87.66731   -7388.2436   -6930.9343    -426.9342     102002.7      46.7237      46.7237      46.7237 
  293000    89.897444   -7392.3468   -6923.4042   -652.48998     102002.7      46.7237      46.7237      46.7237 
  294000    91.336194   -7373.8226   -6897.3749   -495.07018     102002.7      46.7237      46.7237      46.7237 
  295000    90.252224   -7390.5817   -6919.7884   -852.49353     102002.7      46.7237      46.7237      46.7237 
  296000    93.539088    -7378.275   -6890.3361   -739.34995     102002.7      46.7237      46.7237      46.7237 
  297000    89.899084   -7375.0862    -6906.135   -667.04985     102002.7      46.7237      46.7237      46.7237 
  298000    92.261597   -7375.0805   -6893.8054   -756.22201     102002.7      46.7237      46.7237      46.7237 
  299000    90.645594   -7393.1404   -6920.2952   -493.57366     102002.7      46.7237      46.7237      46.7237 
  300000    92.289438   -7372.7114   -6891.2911   -851.97078     102002.7      46.7237      46.7237      46.7237 
  301000    93.134594   -7395.8171   -6909.9881   -673.15532     102002.7      46.7237      46.7237      46.7237 
  302000    92.878721    -7395.592   -6911.0978   -682.87162     102002.7      46.7237      46.7237      46.7237 
  303000    91.763096   -7408.5385   -6929.8638   -622.18798     102002.7      46.7237      46.7237      46.7237 
  304000     91.59148   -7384.2289   -6906.4495    -512.8597     102002.7      46.7237      46.7237      46.7237 
  305000    88.770109   -7392.4239   -6929.3619   -658.38067     102002.7      46.7237      46.7237      46.7237 
  306000    92.154372   -7383.1854   -6902.4697   -442.97739     102002.7      46.7237      46.7237      46.7237 
  307000     90.63875   -7400.1001   -6927.2905   -765.38788     102002.7      46.7237      46.7237      46.7237 
  308000    90.221075   -7397.6695   -6927.0387   -583.30306     102002.7      46.7237      46.7237      46.7237 
  309000    91.578822   -7387.6214    -6909.908   -562.43731     102002.7      46.7237      46.7237      46.7237 
  310000    91.476828   -7395.3961   -6918.2147   -660.60465     102002.7      46.7237      46.7237      46.7237 
  311000    91.361416   -7368.7475   -6892.1682   -618.71345     102002.7      46.7237      46.7237      46.7237 
  312000     90.47618   -7391.4049   -6919.4434   -809.97422     102002.7      46.7237      46.7237      46.7237 
  313000    93.147955   -7374.5516    -6888.653   -618.36267     102002.7      46.7237      46.7237      46.7237 
  314000    89.754705   -7394.4338   -6926.2358   -951.74053     102002.7      46.7237      46.7237      46.7237 
  315000    90.799594   -7377.6771   -6904.0285   -634.40604     102002.7      46.7237      46.7237      46.7237 
  316000    90.398638   -7402.4985   -6930.9415   -537.58634     102002.7      46.7237      46.7237      46.7237 
  317000       91.773   -7385.3493    -6906.623   -819.92715     102002.7      46.7237      46.7237      46.7237 
  318000    88.763437   -7408.2878   -6945.2607   -491.75414     102002.7      46.7237      46.7237      46.7237 
  319000    90.769234   -7390.1074   -6916.6172   -585.56102     102002.7      46.7237      46.7237      46.7237 
  320000    93.366707   -7394.2061   -6907.1664   -645.66389     102002.7      46.7237      46.7237      46.7237 
  321000    90.610955   -7388.7882   -6916.1236   -525.87125     102002.7      46.7237      46.7237      46.7237 
  322000    93.566325   -7380.9523   -6892.8713   -733.14323     102002.7      46.7237      46.7237      46.7237 
  323000    90.696713   -7389.2806   -6916.1687   -584.49197     102002.7      46.7237      46.7237      46.7237 
  324000    90.357413   -7398.8473   -6927.5053   -676.79643     102002.7      46.7237      46.7237      46.7237 
  325000    91.258684    -7385.682   -6909.6386   -362.13522     102002.7      46.7237      46.7237      46.7237 
  326000    89.255195   -7385.4817   -6919.8893   -842.76822     102002.7      46.7237      46.7237      46.7237 
  327000    89.887331   -7398.3264   -6929.4365   -735.43221     102002.7      46.7237      46.7237      46.7237 
  328000    90.838152   -7375.7308   -6901.8811   -447.42817     102002.7      46.7237      46.7237      46.7237 
  329000    89.479089   -7380.8447   -6914.0844   -737.22415     102002.7      46.7237      46.7237      46.7237 
  330000       93.594   -7388.7405   -6900.5152   -462.56925     102002.7      46.7237      46.7237      46.7237 
  331000    90.243618   -7390.4753   -6919.7269   -546.90017     102002.7      46.7237      46.7237      46.7237 
  332000    90.824242   -7388.4698   -6914.6927   -713.79469     102002.7      46.7237      46.7237      46.7237 
  333000    93.211534    -7383.541   -6897.3107   -514.42901     102002.7      46.7237      46.7237      46.7237 
  334000    90.617792    -7387.729   -6915.0287   -756.13789     102002.7      46.7237      46.7237      46.7237 
  335000    92.469221   -7385.7692   -6903.4111   -556.37127     102002.7      46.7237      46.7237      46.7237 
  336000    89.652585   -7398.7474   -6931.0821   -658.66516     102002.7      46.7237      46.7237      46.7237 
  337000    92.081057   -7394.5546   -6914.2214   -594.56779     102002.7      46.7237      46.7237      46.7237 
  338000    95.791713   -7377.6948   -6878.0052   -565.43938     102002.7      46.7237      46.7237      46.7237 
  339000    92.708224   -7394.2891   -6910.6843   -583.71626     102002.7      46.7237      46.7237      46.7237 
  340000    88.593635   -7403.2513   -6941.1099   -482.20389     102002.7      46.7237      46.7237      46.7237 
  341000    91.039362   -7394.5719   -6919.6726   -835.12096     102002.7      46.7237      46.7237      46.7237 
  342000    90.614615   -7393.1794   -6920.4958   -737.10884     102002.7      46.7237      46.7237      46.7237 
  343000    90.450567   -7377.7172   -6905.8892   -578.26804     102002.7      46.7237      46.7237      46.7237 
  344000    89.443272   -7388.0248   -6921.4513   -791.14156     102002.7      46.7237      46.7237      46.7237 
  345000    92.068925   -7397.4476   -6917.1777   -577.41903     102002.7      46.7237      46.7237      46.7237 
  346000    89.657294   -7380.0647   -6912.3748   -611.15382     102002.7      46.7237      46.7237      46.7237 
  347000    93.057446   -7383.6811   -6898.2546   -577.56372     102002.7      46.7237      46.7237      46.7237 
  348000    90.570643   -7387.3738   -6914.9195   -673.19975     102002.7      46.7237      46.7237      46.7237 
  349000    92.041875   -7404.1189   -6923.9901   -923.97593     102002.7      46.7237      46.7237      46.7237 
  350000     90.71369   -7400.9022   -6927.7018    -699.0186     102002.7      46.7237      46.7237      46.7237 
  351000    88.959342   -7391.2534   -6927.2043   -1057.7014     102002.7      46.7237      46.7237      46.7237 
  352000    91.701908   -7373.2994    -6894.944   -954.88626     102002.7      46.7237      46.7237      46.7237 
  353000    91.010381   -7392.4684   -6917.7203   -898.47677     102002.7      46.7237      46.7237      46.7237 
  354000    89.898831   -7390.2723   -6921.3224   -816.46336     102002.7      46.7237      46.7237      46.7237 
  355000    90.316618     -7372.74   -6901.6108    -702.8071     102002.7      46.7237      46.7237      46.7237 
  356000    86.353542   -7387.2208   -6936.7646   -1009.0899     102002.7      46.7237      46.7237      46.7237 
  357000    91.624976   -7392.4538   -6914.4996   -759.14465     102002.7      46.7237      46.7237      46.7237 
  358000    90.686885   -7391.4999   -6918.4392   -605.13265     102002.7      46.7237      46.7237      46.7237 
  359000    90.469358   -7385.1142   -6913.1883    -814.1593     102002.7      46.7237      46.7237      46.7237 
  360000    92.619695    -7373.346   -6890.2029    -574.7186     102002.7      46.7237      46.7237      46.7237 
  361000    89.616878   -7389.8788   -6922.3997   -556.78105     102002.7      46.7237      46.7237      46.7237 
  362000    91.327814   -7395.0404   -6918.6364   -497.08548     102002.7      46.7237      46.7237      46.7237 
  363000    93.684699   -7397.9768   -6909.2782   -629.49153     102002.7      46.7237      46.7237      46.7237 
  364000    92.771494   -7390.8893   -6906.9544   -695.13405     102002.7      46.7237      46.7237      46.7237 
  365000    88.668497   -7389.3977   -6926.8658   -863.96685     102002.7      46.7237      46.7237      46.7237 
  366000    92.206689   -7378.3663   -6897.3777   -812.81835     102002.7      46.7237      46.7237      46.7237 
  367000    90.252299   -7392.0307    -6921.237   -867.18078     102002.7      46.7237      46.7237      46.7237 
  368000    88.011714   -7401.0374   -6941.9315   -820.00686     102002.7      46.7237      46.7237      46.7237 
  369000    91.960485   -7382.4587   -6902.7544   -833.96324     102002.7      46.7237      46.7237      46.7237 
  370000    88.070096   -7381.9804     -6922.57   -782.34108     102002.7      46.7237      46.7237      46.7237 
  371000    94.074686   -7387.4653   -6896.7325   -705.01391     102002.7      46.7237      46.7237      46.7237 
  372000    90.376258   -7394.6807   -6923.2404   -683.35481     102002.7      46.7237      46.7237      46.7237 
  373000    92.029291   -7400.0518   -6919.9886    -826.2133     102002.7      46.7237      46.7237      46.7237 
  374000    90.084823   -7377.9377   -6908.0177   -904.79801     102002.7      46.7237      46.7237      46.7237 
  375000    92.631397   -7405.0503   -6921.8463   -810.37775     102002.7      46.7237      46.7237      46.7237 
  376000    90.984759   -7386.7648   -6912.1503    -885.4132     102002.7      46.7237      46.7237      46.7237 
  377000    89.710864   -7385.9967   -6918.0274   -737.51747     102002.7      46.7237      46.7237      46.7237 
  378000     91.10061   -7406.9103   -6931.6915   -573.81615     102002.7      46.7237      46.7237      46.7237 
  379000    93.885828   -7388.7699   -6899.0222   -605.56936     102002.7      46.7237      46.7237      46.7237 
  380000    90.598561   -7383.5624   -6910.9625    -749.8421     102002.7      46.7237      46.7237      46.7237 
  381000    89.078845   -7387.1212   -6922.4488   -487.54249     102002.7      46.7237      46.7237      46.7237 
  382000     90.71016   -7380.5048   -6907.3228   -516.99442     102002.7      46.7237      46.7237      46.7237 
  383000    91.752835   -7383.2475   -6904.6264   -618.21714     102002.7      46.7237      46.7237      46.7237 
  384000    92.007913   -7396.9848   -6917.0331   -516.40664     102002.7      46.7237      46.7237      46.7237 
  385000    88.521749   -7376.9622   -6915.1957   -600.31947     102002.7      46.7237      46.7237      46.7237 
  386000    92.039858    -7394.784   -6914.6657   -776.67329     102002.7      46.7237      46.7237      46.7237 
  387000    91.235584   -7384.8173   -6908.8943   -526.30287     102002.7      46.7237      46.7237      46.7237 
  388000    90.855548   -7383.4473   -6909.5068   -723.05278     102002.7      46.7237      46.7237      46.7237 
  389000    89.276336   -7388.4223   -6922.7196   -634.34725     102002.7      46.7237      46.7237      46.7237 
  390000    90.798159   -7397.1253   -6923.4842   -608.29077     102002.7      46.7237      46.7237      46.7237 
  391000    90.522496   -7379.2358   -6907.0327   -657.23239     102002.7      46.7237      46.7237      46.7237 
  392000    91.567106   -7391.1542    -6913.502   -791.38491     102002.7      46.7237      46.7237      46.7237 
  393000    88.781234   -7402.6422   -6939.5222    -792.0471     102002.7      46.7237      46.7237      46.7237 
  394000    92.001786   -7380.6657    -6900.746    -833.3028     102002.7      46.7237      46.7237      46.7237 
  395000    87.265471   -7393.3033   -6938.0901   -712.93781     102002.7      46.7237      46.7237      46.7237 
  396000    89.945502   -7368.6991   -6899.5058   -487.30897     102002.7      46.7237      46.7237      46.7237 
  397000    88.136915   -7385.8492   -6926.0902   -622.54225     102002.7      46.7237      46.7237      46.7237 
  398000    92.047779   -7379.2531   -6899.0934   -808.20625     102002.7      46.7237      46.7237      46.7237 
  399000    92.729759   -7383.6434   -6899.9262   -769.89293     102002.7      46.7237      46.7237      46.7237 
  400000    93.939496   -7390.4592   -6900.4316   -942.28396     102002.7      46.7237      46.7237      46.7237 
  401000    93.961023   -7385.1168   -6894.9768   -720.89706     102002.7      46.7237      46.7237      46.7237 
  402000    90.689707   -7398.7089   -6925.6336    -591.5253     102002.7      46.7237      46.7237      46.7237 
  403000    91.953148   -7398.3707   -6918.7047   -439.47674     102002.7      46.7237      46.7237      46.7237 
  404000    87.642991    -7391.598   -6934.4156   -576.33942     102002.7      46.7237      46.7237      46.7237 
  405000    91.813174   -7389.5149   -6910.5791   -428.08637     102002.7      46.7237      46.7237      46.7237 
  406000    91.921629   -7386.8277   -6907.3261   -405.47287     102002.7      46.7237      46.7237      46.7237 
  407000    89.260146   -7398.0141   -6932.3959   -495.81007     102002.7      46.7237      46.7237      46.7237 
  408000    88.797569   -7392.8531   -6929.6479   -428.57125     102002.7      46.7237      46.7237      46.7237 
  409000    88.340986   -7380.8305    -6920.007    -348.6086     102002.7      46.7237      46.7237      46.7237 
  410000    95.233794   -7381.9574   -6885.1782    -407.6831     102002.7      46.7237      46.7237      46.7237 
  411000    90.169986   -7384.6521   -6914.2878   -528.43015     102002.7      46.7237      46.7237      46.7237 
  412000    89.608737   -7404.0611   -6936.6245    -738.5887     102002.7      46.7237      46.7237      46.7237 
  413000    92.036682   -7376.0156   -6895.9138    -577.6396     102002.7      46.7237      46.7237      46.7237 
  414000    90.688035   -7377.2029   -6904.1362    -731.9552     102002.7      46.7237      46.7237      46.7237 
  415000    91.720286   -7395.1715   -6916.7202   -838.64669     102002.7      46.7237      46.7237      46.7237 
  416000    90.374753   -7381.4476   -6910.0151   -579.80289     102002.7      46.7237      46.7237      46.7237 
  417000    92.878711   -7407.0039   -6922.5098   -671.07549     102002.7      46.7237      46.7237      46.7237 
  418000    92.601303   -7386.9435   -6903.8965   -498.26555     102002.7      46.7237      46.7237      46.7237 
  419000    88.320949   -7416.0272   -6955.3083   -699.23053     102002.7      46.7237      46.7237      46.7237 
  420000    92.239503   -7392.8408   -6911.6811    -934.9136     102002.7      46.7237      46.7237      46.7237 
  421000    94.770745   -7378.1296   -6883.7658   -816.55137     102002.7      46.7237      46.7237      46.7237 
  422000    88.173978   -7378.5327   -6918.5804    -804.6098     102002.7      46.7237      46.7237      46.7237 
  423000    92.771213   -7384.6683   -6900.7349   -700.49509     102002.7      46.7237      46.7237      46.7237 
  424000    91.163579   -7392.4008   -6916.8535   -673.68802     102002.7      46.7237      46.7237      46.7237 
  425000    88.568818   -7390.2488   -6928.2368   -342.03863     102002.7      46.7237      46.7237      46.7237 
  426000    90.822848   -7384.7206   -6910.9507   -894.76887     102002.7      46.7237      46.7237      46.7237 
  427000    89.083223   -7380.4816   -6915.7863   -647.39683     102002.7      46.7237      46.7237      46.7237 
  428000    89.229748   -7363.0219   -6897.5623   -809.17659     102002.7      46.7237      46.7237      46.7237 
  429000    90.043346   -7387.4149   -6917.7112    -834.8679     102002.7      46.7237      46.7237      46.7237 
  430000    90.562886   -7384.0062   -6911.5924   -637.18031     102002.7      46.7237      46.7237      46.7237 
  431000    90.040671   -7385.3655   -6915.6757   -907.77874     102002.7      46.7237      46.7237      46.7237 
  432000    93.333329   -7380.1942   -6893.3286   -663.96963     102002.7      46.7237      46.7237      46.7237 
  433000    88.666772   -7375.5367   -6913.0138   -1139.0117     102002.7      46.7237      46.7237      46.7237 
  434000    90.001569   -7386.2423   -6916.7566   -907.43645     102002.7      46.7237      46.7237      46.7237 
  435000    87.572301   -7375.0982   -6918.2845   -782.69099     102002.7      46.7237      46.7237      46.7237 
  436000    89.956066   -7399.2097   -6929.9613   -699.05902     102002.7      46.7237      46.7237      46.7237 
  437000    89.535705   -7399.3256     -6932.27   -669.28763     102002.7      46.7237      46.7237      46.7237 
  438000    89.676919   -7384.8002   -6917.0079   -851.64068     102002.7      46.7237      46.7237      46.7237 
  439000     92.64544   -7373.0686   -6889.7913   -723.93207     102002.7      46.7237      46.7237      46.7237 
  440000    91.934144   -7391.5689    -6912.002   -619.03672     102002.7      46.7237      46.7237      46.7237 
  441000    89.682713   -7392.9616   -6925.1391    -788.4862     102002.7      46.7237      46.7237      46.7237 
  442000    92.808912    -7397.567    -6913.437    -573.5561     102002.7      46.7237      46.7237      46.7237 
  443000    91.198568   -7400.7269    -6924.997   -581.12985     102002.7      46.7237      46.7237      46.7237 
  444000    93.201202   -7403.0643   -6916.8879   -357.96767     102002.7      46.7237      46.7237      46.7237 
  445000    91.529435   -7385.6266   -6908.1708    -636.9626     102002.7      46.7237      46.7237      46.7237 
  446000    91.269698   -7384.6013   -6908.5004   -599.74018     102002.7      46.7237      46.7237      46.7237 
  447000    90.705005   -7385.0074   -6911.8522    -675.7384     102002.7      46.7237      46.7237      46.7237 
  448000    91.100797   -7392.4088    -6917.189   -819.69661     102002.7      46.7237      46.7237      46.7237 
  449000    89.978712   -7387.8216   -6918.4551    -378.7063     102002.7      46.7237      46.7237      46.7237 
  450000    92.890264   -7383.2422   -6898.6878   -846.21384     102002.7      46.7237      46.7237      46.7237 
  451000    92.431399   -7401.0189   -6918.8582   -543.02428     102002.7      46.7237      46.7237      46.7237 
  452000    93.020757   -7378.6625   -6893.4273   -915.60876     102002.7      46.7237      46.7237      46.7237 
  453000    88.826988   -7397.6111   -6934.2524   -862.77476     102002.7      46.7237      46.7237      46.7237 
  454000     91.93491   -7390.7562   -6911.1853   -672.88419     102002.7      46.7237      46.7237      46.7237 
  455000    89.359355   -7367.9778   -6901.8421   -789.27245     102002.7      46.7237      46.7237      46.7237 
  456000    88.929273   -7379.8877   -6915.9955   -714.24515     102002.7      46.7237      46.7237      46.7237 
  457000    90.821877   -7393.0929   -6919.3281   -762.76321     102002.7      46.7237      46.7237      46.7237 
  458000    90.786333   -7387.4757   -6913.8963   -490.02422     102002.7      46.7237      46.7237      46.7237 
  459000    90.563395    -7385.836   -6913.4195   -549.65584     102002.7      46.7237      46.7237      46.7237 
  460000    92.404275   -7384.4263    -6902.407   -716.00799     102002.7      46.7237      46.7237      46.7237 
  461000    90.197922   -7396.2215   -6925.7115   -708.16667     102002.7      46.7237      46.7237      46.7237 
  462000    95.174233   -7398.8748   -6902.4063   -644.08045     102002.7      46.7237      46.7237      46.7237 
  463000    92.492251   -7382.7756   -6900.2974   -704.12103     102002.7      46.7237      46.7237      46.7237 
  464000      88.6593   -7380.1157   -6917.6318   -926.73636     102002.7      46.7237      46.7237      46.7237 
  465000    90.353809   -7387.6912    -6916.368   -431.26881     102002.7      46.7237      46.7237      46.7237 
  466000     94.18881   -7371.2507   -6879.9226   -714.56079     102002.7      46.7237      46.7237      46.7237 
  467000     91.22518   -7373.0749   -6897.2062   -816.97923     102002.7      46.7237      46.7237      46.7237 
  468000    88.937404    -7386.397   -6922.4624   -518.63971     102002.7      46.7237      46.7237      46.7237 
  469000    91.385016   -7384.8577   -6908.1553    -409.6267     102002.7      46.7237      46.7237      46.7237 
  470000    88.270447   -7366.9473   -6906.4918   -617.75303     102002.7      46.7237      46.7237      46.7237 
  471000    89.291511   -7383.9306   -6918.1488   -868.18759     102002.7      46.7237      46.7237      46.7237 
  472000    93.851519   -7390.6301   -6901.0614   -571.19632     102002.7      46.7237      46.7237      46.7237 
  473000    89.089797   -7384.0897   -6919.3601   -944.85867     102002.7      46.7237      46.7237      46.7237 
  474000    87.197818   -7386.3789   -6931.5187    -684.7457     102002.7      46.7237      46.7237      46.7237 
  475000    90.818018   -7391.1592   -6917.4145   -487.19659     102002.7      46.7237      46.7237      46.7237 
  476000    92.924298     -7384.68   -6899.9481   -637.07414     102002.7      46.7237      46.7237      46.7237 
  477000    93.028416   -7372.9805   -6887.7054   -523.91962     102002.7      46.7237      46.7237      46.7237 
  478000    88.448141   -7382.9027   -6921.5203   -591.48568     102002.7      46.7237      46.7237      46.7237 
  479000    86.773583   -7395.0413   -6942.3941   -715.07611     102002.7      46.7237      46.7237      46.7237 
  480000    94.208377   -7393.4186   -6901.9884   -505.68385     102002.7      46.7237      46.7237      46.7237 
  481000    90.164602   -7383.1603   -6912.8241   -708.27246     102002.7      46.7237      46.7237      46.7237 
  482000    92.525094   -7374.0408   -6891.3912   -552.76495     102002.7      46.7237      46.7237      46.7237 
  483000    91.144139   -7387.3174   -6911.8715   -587.21095     102002.7      46.7237      46.7237      46.7237 
  484000    90.089357   -7397.0722   -6927.1285   -642.20821     102002.7      46.7237      46.7237      46.7237 
  485000    91.312328   -7374.6968   -6898.3736   -519.89303     102002.7      46.7237      46.7237      46.7237 
  486000    90.112091   -7378.9641   -6908.9018   -745.89536     102002.7      46.7237      46.7237      46.7237 
  487000    90.169925   -7406.6489   -6936.2849   -684.73493     102002.7      46.7237      46.7237      46.7237 
  488000    90.834165   -7384.8371   -6911.0082   -868.39117     102002.7      46.7237      46.7237      46.7237 
  489000    90.087927   -7389.9462   -6920.0099   -796.66445     102002.7      46.7237      46.7237      46.7237 
  490000    90.286005   -7380.2805    -6909.311    -968.3991     102002.7      46.7237      46.7237      46.7237 
  491000    92.243547   -7384.9827   -6903.8018   -667.56861     102002.7      46.7237      46.7237      46.7237 
  492000    92.074331   -7386.3539   -6906.0558   -659.30017     102002.7      46.7237      46.7237      46.7237 
  493000     87.08374   -7381.9104   -6927.6452   -608.81933     102002.7      46.7237      46.7237      46.7237 
  494000    91.149204   -7389.4463    -6913.974   -627.82138     102002.7      46.7237      46.7237      46.7237 
  495000    93.421862   -7390.8093   -6903.4819   -676.51266     102002.7      46.7237      46.7237      46.7237 
  496000    90.484164   -7392.3184   -6920.3152   -627.77271     102002.7      46.7237      46.7237      46.7237 
  497000    91.593045   -7385.7103   -6907.9227   -274.81876     102002.7      46.7237      46.7237      46.7237 
  498000     89.18072   -7389.5753   -6924.3714    -560.3911     102002.7      46.7237      46.7237      46.7237 
  499000    91.337043   -7393.8715   -6917.4194   -257.49131     102002.7      46.7237      46.7237      46.7237 
  500000    92.787928   -7376.2447   -6892.2241   -457.86886     102002.7      46.7237      46.7237      46.7237 
  500504    89.393356   -7383.1597   -6916.8467   -435.24581     102002.7      46.7237      46.7237      46.7237 
Loop time of 1297.67 on 16 procs for 500000 steps with 1751 atoms

Performance: 33.290 ns/day, 0.721 hours/ns, 385.305 timesteps/s
99.8% CPU use with 16 MPI tasks x no OpenMP threads

MPI task timing breakdown:
Section |  min time  |  avg time  |  max time  |%varavg| %total
---------------------------------------------------------------
Pair    | 498.02     | 687.78     | 905.12     | 482.9 | 53.00
Bond    | 165.63     | 174.04     | 182.91     |  37.5 | 13.41
Neigh   | 3.7526     | 3.7723     | 3.7909     |   0.5 |  0.29
Comm    | 191.35     | 418.19     | 607.66     | 632.4 | 32.23
Output  | 0.020063   | 0.020562   | 0.023349   |   0.5 |  0.00
Modify  | 7.6565     | 8.4359     | 9.1633     |  21.0 |  0.65
Other   |            | 5.439      |            |       |  0.42

Nlocal:    109.438 ave 139 max 78 min
Histogram: 2 1 2 0 0 3 4 2 0 2
Nghost:    2217.81 ave 2250 max 2186 min
Histogram: 1 1 2 2 3 2 0 2 1 2
Neighs:    11458.7 ave 17454 max 6225 min
Histogram: 1 1 4 2 1 1 2 3 0 1

Total # of neighbors = 183339
Ave neighs/atom = 104.705
Ave special neighs/atom = 6.5791
Neighbor list builds = 3124
Dangerous builds = 0
Neighbor list info ...
  update every 1 steps, delay 10 steps, check yes
  max neighbors/atom: 2000, page size: 100000
  master list distance cutoff = 16
  ghost atom cutoff = 16
  binsize = 8, bins = 6 6 6
  3 neighbor lists, perpetual/occasional/extra = 3 0 0
  (1) pair buck6d/coul/gauss/dsf, perpetual, skip from (3)
      attributes: half, newton on
      pair build: skip
      stencil: none
      bin: none
  (2) pair lj/cut, perpetual, skip from (3)
      attributes: half, newton on
      pair build: skip
      stencil: none
      bin: none
  (3) neighbor class addition, perpetual
      attributes: half, newton on
      pair build: half/bin/newton
      stencil: half/bin/3d/newton
      bin: standard
Setting up Verlet run ...
  Unit style    : real
  Current step  : 500504
  Time step     : 1
WARNING: Inconsistent image flags (../domain.cpp:786)
Per MPI rank memory allocation (min/avg/max) = 23.06 | 23.28 | 23.34 Mbytes
Step Time TotEng KinEng PotEng E_mol E_pair Temp Pxx Pyy Pzz Pxy Pxz Pyz Cella Cellb Cellc CellAlpha CellBeta CellGamma Volume Press 
  500504       500000   -6916.8467    466.31307   -7383.1597    4209.0329   -11592.193    89.393356   -871.23298   -79.068491   -355.43596   -93.805325    25.967396    6.4824261      46.7237      46.7237      46.7237           90           90           90     102002.7   -435.24581 
  501000       500496   -6920.2486    469.17902   -7389.4277    4192.1893   -11581.617    89.942765    -730.7613    -497.2675   -662.80416   -111.82304   -105.69307     148.4697      46.7237      46.7237      46.7237           90           90           90     102002.7   -630.27765 
  502000       501496   -6918.5546    478.15307   -7396.7077    4191.7339   -11588.442    91.663112   -657.80921   -753.81459   -547.63508    178.67608   -305.26394    19.203235      46.7237      46.7237      46.7237           90           90           90     102002.7   -653.08629 
  503000       502496   -6907.2826    481.24273   -7388.5253    4222.7305   -11611.256    92.255408   -847.40493   -595.43457   -860.81167    244.51624    206.08513   -202.10727      46.7237      46.7237      46.7237           90           90           90     102002.7   -767.88372 
  504000       503496   -6910.4911    469.77916   -7380.2703    4224.1056   -11604.376    90.057812   -832.47294   -508.00836   -588.61437    145.54919    194.49353   -236.23598      46.7237      46.7237      46.7237           90           90           90     102002.7   -643.03189 
  505000       504496   -6917.3372    472.08308   -7389.4203    4214.4658   -11603.886     90.49948   -813.46296   -561.45645   -630.17592    209.35811    247.35842   -55.863269      46.7237      46.7237      46.7237           90           90           90     102002.7   -668.36511 
  506000       505496   -6904.1383    476.38163     -7380.52    4224.7294   -11605.249    91.323523   -724.80971   -1164.7997   -871.44951    -88.89264   -101.79842   -357.10064      46.7237      46.7237      46.7237           90           90           90     102002.7   -920.35296 
  507000       506496     -6915.61    470.31937   -7385.9294    4222.8076   -11608.737    90.161373   -492.94597   -521.97382    -775.4299    254.72291   -28.579207    66.499277      46.7237      46.7237      46.7237           90           90           90     102002.7   -596.78323 
  508000       507496   -6873.8401    499.41387    -7373.254      4229.27   -11602.524    95.738859   -1151.0681    -869.8877   -642.41155    171.47641   -13.118595   -35.788441      46.7237      46.7237      46.7237           90           90           90     102002.7   -887.78913 
  509000       508496   -6920.9978    479.66538   -7400.6632    4199.6711   -11600.334    91.953026   -629.16242   -923.73724   -909.02336    219.70652    -97.29643   -111.49963      46.7237      46.7237      46.7237           90           90           90     102002.7   -820.64101 
  510000       509496   -6921.2019    458.14035   -7379.3423    4226.4047   -11605.747    87.826624   -981.00468   -860.81837   -977.61139    139.11534   -100.40453     171.2142      46.7237      46.7237      46.7237           90           90           90     102002.7   -939.81148 
  511000       510496   -6908.7788    476.72067   -7385.4995    4213.6319   -11599.131    91.388518   -778.08818   -1012.6824    -1160.828   -28.607363    73.196741   -50.189352      46.7237      46.7237      46.7237           90           90           90     102002.7   -983.86621 
  512000       511496   -6911.1704    486.50777   -7397.6782    4210.8123   -11608.491    93.264728   -1220.9052   -1284.8115   -823.13778    89.127631    22.012168    232.60167      46.7237      46.7237      46.7237           90           90           90     102002.7   -1109.6182 
  513000       512496   -6921.3114    472.03874   -7393.3502    4196.5193   -11589.869     90.49098   -978.95642   -851.16721   -915.62023    94.662236    128.25809    42.539685      46.7237      46.7237      46.7237           90           90           90     102002.7   -915.24795 
  514000       513496    -6921.898    478.79834   -7400.6964    4206.4678   -11607.164    91.786812   -860.17847   -543.38133   -997.93195   -7.0263205     75.87355    207.13992      46.7237      46.7237      46.7237           90           90           90     102002.7   -800.49725 
  515000       514496   -6889.9102    473.72747   -7363.6377    4223.4797   -11587.117    90.814714   -894.68826    -620.2449   -826.11075    37.335511   -167.47454    129.53342      46.7237      46.7237      46.7237           90           90           90     102002.7   -780.34797 
  516000       515496   -6915.7002    462.45722   -7378.1575    4219.6211   -11597.779     88.65418   -468.07642    -621.6043   -1051.4329   -107.36518    145.58647   -223.60149      46.7237      46.7237      46.7237           90           90           90     102002.7   -713.70453 
  517000       516496   -6930.9532    456.37316   -7387.3264    4206.8368   -11594.163    87.487851   -731.29096   -541.05625   -786.03364    44.612929    257.79206   -124.69561      46.7237      46.7237      46.7237           90           90           90     102002.7   -686.12695 
  518000       517496   -6907.3038    483.14857   -7390.4524    4220.6916   -11611.144    92.620761   -924.70108   -761.67738   -922.40372   -88.065466   -110.91857   -125.90812      46.7237      46.7237      46.7237           90           90           90     102002.7   -869.59406 
  519000       518496   -6926.6156    470.82287   -7397.4385    4200.3303   -11597.769    90.257894   -712.76975   -414.83758   -643.57275    252.03298   -173.70625    165.52026      46.7237      46.7237      46.7237           90           90           90     102002.7   -590.39336 
  520000       519496   -6901.0418    478.61737   -7379.6591    4218.1741   -11597.833     91.75212    -886.8814   -321.68822   -823.92702   -24.515209   -17.712247    25.668775      46.7237      46.7237      46.7237           90           90           90     102002.7   -677.49888 
  521000       520496   -6933.3286    467.35577   -7400.6844    4202.2664   -11602.951    89.593244   -337.43724   -304.76152   -734.67602   -335.57953    219.33337   -21.869904      46.7237      46.7237      46.7237           90           90           90     102002.7   -458.95826 
  522000       521496   -6910.5785    468.49623   -7379.0747    4227.9585   -11607.033    89.811872   -657.95901   -400.48255   -867.49968     198.4121   -175.84533    33.823554      46.7237      46.7237      46.7237           90           90           90     102002.7   -641.98041 
  523000       522496   -6890.5539    485.63597   -7376.1899    4223.4373   -11599.627    93.097602   -863.06188   -294.72672   -783.82241   -62.953888    4.9922398   0.71828311      46.7237      46.7237      46.7237           90           90           90     102002.7   -647.20367 
  524000       523496   -6919.8218    485.69435   -7405.5162    4192.6081   -11598.124    93.108793   -560.28529    -567.8535     -341.869    110.23243    150.97818   -234.57428      46.7237      46.7237      46.7237           90           90           90     102002.7    -490.0026 
  525000       524496   -6911.0272    466.48068   -7377.5078    4224.7911   -11602.299    89.425486   -1066.1424   -559.61389   -997.45176   -22.151468    19.953642   -156.71833      46.7237      46.7237      46.7237           90           90           90     102002.7   -874.40267 
  526000       525496     -6896.24    483.04189   -7379.2819    4213.0016   -11592.283    92.600312   -569.41149   -319.94658   -847.21491    10.506751   -146.38296   -16.102161      46.7237      46.7237      46.7237           90           90           90     102002.7   -578.85766 
  527000       526496    -6907.455    464.79644   -7372.2514    4228.6643   -11600.916    89.102613   -703.41915   -552.44367   -608.99855   -45.614403   -122.22247    76.175744      46.7237      46.7237      46.7237           90           90           90     102002.7   -621.62045 
  528000       527496   -6926.8661      459.126   -7385.9921    4205.7196   -11591.712    88.015575   -810.45066   -707.71583   -868.05799    71.335902    198.99172    29.337317      46.7237      46.7237      46.7237           90           90           90     102002.7   -795.40816 
  529000       528496   -6875.9558      501.994   -7377.9498     4219.982   -11597.932    96.233476   -484.48044    -500.3068   -1123.4188   -104.31728   -114.29056    17.505587      46.7237      46.7237      46.7237           90           90           90     102002.7   -702.73536 
  530000       529496   -6915.2561    468.86441   -7384.1205     4230.567   -11614.687    89.882453   -889.36238   -601.49067   -674.75131     -70.9472   -70.056935    -28.85739      46.7237      46.7237      46.7237           90           90           90     102002.7   -721.86812 
  531000       530496   -6905.1037     483.4402   -7388.5439    4196.8157    -11585.36    92.676668   -522.63265   -188.03252   -671.63781    125.98235    164.45654   -84.396325      46.7237      46.7237      46.7237           90           90           90     102002.7   -460.76766 
  532000       531496   -6938.1651     462.6276   -7400.7927    4209.8771    -11610.67    88.686842   -574.90025   -559.49629   -472.49001   -159.01912   -321.44921    182.47086      46.7237      46.7237      46.7237           90           90           90     102002.7   -535.62885 
  533000       532496   -6912.3322     477.6318    -7389.964    4218.6083   -11608.572    91.563184   -514.01369   -877.87705   -575.69603    65.493743    57.291971   -29.924636      46.7237      46.7237      46.7237           90           90           90     102002.7   -655.86226 
  534000       533496   -6917.2531    469.38602   -7386.6391    4205.6104   -11592.249    89.982447   -905.36693   -680.02077   -507.92664    89.236031    50.366215    67.322133      46.7237      46.7237      46.7237           90           90           90     102002.7   -697.77145 
  535000       534496   -6875.7141    496.20649   -7371.9206    4241.8494    -11613.77    95.123996   -876.26536   -517.66023   -1333.6234      108.821    79.185709    -174.8027      46.7237      46.7237      46.7237           90           90           90     102002.7   -909.18301 
  536000       535496   -6915.2846    480.81538      -7396.1    4198.4323   -11594.532    92.173484   -779.62532   -679.45154   -219.92335    186.30622    -18.78451    62.163144      46.7237      46.7237      46.7237           90           90           90     102002.7   -559.66674 
  537000       536496   -6904.7693    479.85281   -7384.6221     4215.325   -11599.947    91.988956   -423.08493   -1209.1296   -1068.5684   -53.021766   -27.736518   -232.60125      46.7237      46.7237      46.7237           90           90           90     102002.7   -900.26097 
  538000       537496   -6930.8214    465.06552   -7395.8869    4194.5348   -11590.422    89.154197   -868.50401    -548.9307   -429.84975    25.487624   -94.789355    5.8349187      46.7237      46.7237      46.7237           90           90           90     102002.7   -615.76149 
  539000       538496    -6917.692    478.31745   -7396.0094    4217.7991   -11613.809    91.694624   -605.28398   -769.48399   -506.97743    47.604543    77.588008    66.475467      46.7237      46.7237      46.7237           90           90           90     102002.7   -627.24847 
  540000       539496   -6920.4092    469.15035   -7389.5595    4215.3675   -11604.927    89.937268   -492.47918   -592.53534    -823.5681   -6.7074453    12.563571   -117.39839      46.7237      46.7237      46.7237           90           90           90     102002.7    -636.1942 
  541000       540496   -6883.0061    486.09049   -7369.0966    4220.8945   -11589.991    93.184735   -767.04111   -499.77225   -350.48782   -15.969705   -93.003411    37.879829      46.7237      46.7237      46.7237           90           90           90     102002.7   -539.10039 
  542000       541496   -6903.4936    474.91435    -7378.408    4235.6319    -11614.04    91.042241   -697.72167   -571.81431   -725.01715    76.442553   -196.31105     135.3349      46.7237      46.7237      46.7237           90           90           90     102002.7   -664.85104 
  543000       542496   -6900.1995    482.33221   -7382.5317    4209.1579    -11591.69    92.464262   -484.94522   -415.43373   -932.75213   -172.44622   -62.139398   -112.64909      46.7237      46.7237      46.7237           90           90           90     102002.7   -611.04369 
  544000       543496    -6931.467    475.19201    -7406.659     4203.696   -11610.355     91.09547   -1038.2169   -743.60125   -535.26569    89.961453    21.132223   -171.40486      46.7237      46.7237      46.7237           90           90           90     102002.7   -772.36128 
  545000       544496   -6909.3245    481.66494   -7390.9894    4218.7653   -11609.755    92.336347   -341.43379   -696.71096   -518.64167    240.14911    199.65669   -212.42122      46.7237      46.7237      46.7237           90           90           90     102002.7   -518.92881 
  546000       545496   -6920.9878    478.81413   -7399.8019    4207.3191   -11607.121     91.78984   -459.24866   -804.01823   -693.08913    147.23825   -25.993616    73.330584      46.7237      46.7237      46.7237           90           90           90     102002.7   -652.11867 
  547000       546496   -6925.5626    456.61837    -7382.181    4207.8963   -11590.077    87.534858   -495.32974   -362.63179   -778.33673    71.408068    1.2038983    -90.35569      46.7237      46.7237      46.7237           90           90           90     102002.7   -545.43275 
  548000       547496   -6909.1876    483.28839    -7392.476    4226.4984   -11618.974    92.647566   -434.13072   -544.02294   -335.70944   -105.73618    208.99936    2.3643444      46.7237      46.7237      46.7237           90           90           90     102002.7   -437.95437 
  549000       548496   -6925.4694    461.81665    -7387.286    4217.9625   -11605.248     88.53138   -545.26701   -1093.7905   -748.53951     22.78472   -172.24818   -114.20145      46.7237      46.7237      46.7237           90           90           90     102002.7   -795.86566 
  550000       549496   -6903.4761    471.97151   -7375.4476    4234.7374   -11610.185    90.478092    -811.0275   -492.54452   -1034.9816   -57.857811   -11.822345    157.27979      46.7237      46.7237      46.7237           90           90           90     102002.7   -779.51788 
  551000       550496   -6916.7618    474.55085   -7391.3127    4216.6041   -11607.917    90.972557   -1179.0734    -646.3294   -784.85294   -176.80215    92.108708    89.620291      46.7237      46.7237      46.7237           90           90           90     102002.7   -870.08526 
  552000       551496   -6915.9646    471.10296   -7387.0675    4222.1444   -11609.212    90.311589    -742.5379    -585.2986   -976.59325    44.173803    30.855736   -140.47216      46.7237      46.7237      46.7237           90           90           90     102002.7   -768.14325 
  553000       552496   -6895.1328    492.62412   -7387.7569    4220.5347   -11608.292    94.437247    -951.1287   -683.07778   -729.12334    120.11242   -147.04357    268.66836      46.7237      46.7237      46.7237           90           90           90     102002.7   -787.77661 
  554000       553496   -6915.4136    481.78382   -7397.1974    4209.1246   -11606.322    92.359136    -719.5694   -590.25418   -893.53435   -71.598258    193.04164    -153.7407      46.7237      46.7237      46.7237           90           90           90     102002.7   -734.45264 
  555000       554496   -6873.2789     490.2386   -7363.5175    4256.1587   -11619.676    93.979938     -779.961   -1017.6129   -1170.7133   -88.686703    212.77433   -111.90033      46.7237      46.7237      46.7237           90           90           90     102002.7   -989.42908 
[...]
  936000       935496   -6911.1149    474.79229   -7385.9072    4223.5438   -11609.451    91.018843   -787.33888   -915.19087   -1334.3617     80.84529   -99.491556    421.18822      46.7237      46.7237      46.7237           90           90           90     102002.7   -1012.2972 
  937000       936496   -6911.6101    473.69978   -7385.3099    4229.3507   -11614.661    90.809405   -873.29814   -755.06557   -806.27408    63.903609    260.73079   -108.47582      46.7237      46.7237      46.7237           90           90           90     102002.7   -811.54593 
  938000       937496   -6904.8057     475.6763    -7380.482    4221.6409   -11602.123    91.188309   -866.98252   -840.73608   -583.57531    252.51995    -224.6445    158.23634      46.7237      46.7237      46.7237           90           90           90     102002.7   -763.76463 
  939000       938496   -6901.1375    469.04188   -7370.1794    4243.6291   -11613.808    89.916475   -1112.5404   -531.21487   -663.48975    84.633507    103.10453     4.836993      46.7237      46.7237      46.7237           90           90           90     102002.7   -769.08168 
  940000       939496   -6924.4739    470.69881   -7395.1727     4218.836   -11614.009    90.234111    -1124.446   -1053.4947   -537.90849   -157.35518    84.757184   -0.9080434      46.7237      46.7237      46.7237           90           90           90     102002.7   -905.28304 
  941000       940496   -6930.3809     468.8693   -7399.2502    4207.2823   -11606.532    89.883391   -649.14932   -869.42993   -692.94827    159.77569    138.84984    -231.4094      46.7237      46.7237      46.7237           90           90           90     102002.7   -737.17584 
  942000       941496   -6896.7019    475.00973   -7371.7116    4233.1236   -11604.835    91.060526   -684.75115   -302.88713   -866.95763   -216.25503   -97.675788    -103.8498      46.7237      46.7237      46.7237           90           90           90     102002.7   -618.19864 
  943000       942496   -6911.3794    483.16998   -7394.5494    4213.5293   -11608.079    92.624867   -245.37237   -814.71611   -585.69388    75.457384    135.96125    84.032519      46.7237      46.7237      46.7237           90           90           90     102002.7   -548.59412 
  944000       943496   -6924.3528    474.84126   -7399.1941    4202.6444   -11601.839    91.028231   -866.27428   -418.38224   -772.05992   -57.502002    106.38748    206.16672      46.7237      46.7237      46.7237           90           90           90     102002.7   -685.57215 
  945000       944496   -6908.9098    468.74204   -7377.6519    4239.3478       -11617    89.858995   -520.80809   -497.39752   -476.45611   -6.1715554   0.78335148    138.03018      46.7237      46.7237      46.7237           90           90           90     102002.7   -498.22057 
  946000       945496   -6932.4913    477.03962   -7409.5309    4167.7125   -11577.243    91.449661   -728.14745   -538.23433   -663.19571    33.808248    130.15384   -123.21223      46.7237      46.7237      46.7237           90           90           90     102002.7    -643.1925 
  947000       946496   -6898.2252     485.0713   -7383.2965     4219.777   -11603.074    92.989354   -425.76531   -504.36078    -606.0749   -17.918434   -84.714522    136.81371      46.7237      46.7237      46.7237           90           90           90     102002.7     -512.067 
  948000       947496   -6895.2284    477.14072   -7372.3691    4220.4382   -11592.807    91.469043   -828.57162   -578.83515   -712.69042   -253.34841       106.53    127.13073      46.7237      46.7237      46.7237           90           90           90     102002.7   -706.69906 
  949000       948496   -6909.4226    477.96899   -7387.3916    4196.7841   -11584.176    91.627823   -1084.2371   -713.88742   -887.55798   -168.43447     -23.8304   -28.580925      46.7237      46.7237      46.7237           90           90           90     102002.7   -895.22752 
  950000       949496   -6928.2842    455.92058   -7384.2048    4217.8471   -11602.052     87.40109   -737.86089   -694.41305   -552.16763   -145.63881    165.64845   -4.3428308      46.7237      46.7237      46.7237           90           90           90     102002.7   -661.48052 
  951000       950496    -6906.408    478.05876   -7384.4668    4218.5536    -11603.02    91.645033   -616.83459   -768.26824   -1435.3269    84.589314    278.42523    27.008616      46.7237      46.7237      46.7237           90           90           90     102002.7   -940.14324 
  952000       951496   -6892.6477    485.76632    -7378.414    4224.6183   -11603.032    93.122591   -889.60405     -647.693   -479.43343    59.623155    157.40951   -59.501511      46.7237      46.7237      46.7237           90           90           90     102002.7   -672.24349 
  953000       952496   -6917.4189    476.54358   -7393.9624    4219.8833   -11613.846    91.354568   -738.28868   -1147.1833   -492.34042    37.756496    151.49032     173.2239      46.7237      46.7237      46.7237           90           90           90     102002.7   -792.60412 
  954000       953496   -6913.1295    472.41994   -7385.5495    4221.9477   -11607.497    90.564057   -487.94297   -969.08066   -837.10348    87.276546   -90.439324    101.58236      46.7237      46.7237      46.7237           90           90           90     102002.7   -764.70903 
  955000       954496    -6915.924     467.3629   -7383.2869    4216.2437   -11599.531    89.594611   -900.40448   -503.74751   -556.17178    108.28444    67.352997   -23.659214      46.7237      46.7237      46.7237           90           90           90     102002.7   -653.44126 
  956000       955496   -6909.1878    479.35354   -7388.5413    4226.0489    -11614.59    91.893245   -1118.3271   -518.12382   -855.42333   -92.999307    65.890781   -68.960557      46.7237      46.7237      46.7237           90           90           90     102002.7   -830.62475 
  957000       956496   -6917.3626    467.56563   -7384.9282    4228.5515    -11613.48    89.633474   -793.14932   -674.85783   -714.33513   -16.711582    -136.2341   -86.238202      46.7237      46.7237      46.7237           90           90           90     102002.7   -727.44743 
  958000       957496   -6912.4115    471.11551    -7383.527    4220.9559   -11604.483    90.313995   -956.92645   -982.74257   -742.36516   -47.728256    62.116656    10.806587      46.7237      46.7237      46.7237           90           90           90     102002.7   -894.01139 
  959000       958496   -6931.2735    464.93563   -7396.2091    4197.9916   -11594.201    89.129296   -629.74957   -577.35555   -1087.4452    1.0738238    67.599051   -132.75749      46.7237      46.7237      46.7237           90           90           90     102002.7   -764.85011 
  960000       959496   -6926.9443    454.64949   -7381.5938    4212.0661    -11593.66    87.157418   -1226.6272   -735.10977   -649.45318    30.298635    37.694468   -148.62194      46.7237      46.7237      46.7237           90           90           90     102002.7   -870.39672 
  961000       960496   -6880.7299    493.77788   -7374.5078    4237.8069   -11612.315    94.658427   -989.22838   -708.20891   -571.63764    14.363307   -143.60827   -119.45461      46.7237      46.7237      46.7237           90           90           90     102002.7   -756.35831 
  962000       961496   -6918.0478    468.09493   -7386.1427     4212.661   -11598.804    89.734942   -784.18155    -636.3053    -944.7281     91.02897     50.79521    143.22981      46.7237      46.7237      46.7237           90           90           90     102002.7   -788.40498 
  963000       962496   -6935.5144    462.73819   -7398.2526    4210.9237   -11609.176    88.708042   -520.21654   -256.24524   -959.07382    185.80294   -254.13012    48.147381      46.7237      46.7237      46.7237           90           90           90     102002.7   -578.51187 
  964000       963496    -6912.632    468.51347   -7381.1455     4224.948   -11606.093    89.815177    -762.6818   -365.45063   -340.13367    199.76649    13.719085    10.471346      46.7237      46.7237      46.7237           90           90           90     102002.7   -489.42203 
  965000       964496   -6910.3961    478.37203   -7388.7681    4204.2804   -11593.049    91.705086   -1048.7211   -562.25294   -1135.2401     158.5716    47.898737   -25.643075      46.7237      46.7237      46.7237           90           90           90     102002.7   -915.40471 
  966000       965496   -6919.4215        472.7   -7392.1215    4191.1246   -11583.246    90.617746   -296.59348   -581.89694   -984.48818   -119.94753    107.04843    53.331188      46.7237      46.7237      46.7237           90           90           90     102002.7   -620.99287 
  967000       966496    -6930.699    457.16815   -7387.8672    4215.9561   -11603.823    87.640252   -1051.1779   -894.50038   -340.55794   -97.442972    120.90357    110.60927      46.7237      46.7237      46.7237           90           90           90     102002.7   -762.07874 
  968000       967496   -6900.8376     467.0488   -7367.8864    4228.3706   -11596.257    89.534397   -773.45549   -440.19355   -606.27161     115.1869    52.020652    210.41017      46.7237      46.7237      46.7237           90           90           90     102002.7   -606.64022 
  969000       968496   -6900.5009    471.48366   -7371.9845    4229.0523   -11601.037     90.38457   -510.46061   -357.39089   -440.29182   -202.27364   -137.71192   -362.94738      46.7237      46.7237      46.7237           90           90           90     102002.7   -436.04778 
  970000       969496   -6906.3209    479.35742   -7385.6783    4217.8138   -11603.492    91.893988   -895.48144   -568.53803   -374.90389    31.935257     6.237385     18.31846      46.7237      46.7237      46.7237           90           90           90     102002.7   -612.97446 
  971000       970496   -6926.0028    478.96035   -7404.9632    4204.9977   -11609.961    91.817869   -722.27496    -409.6863   -516.28706   -69.745599    36.038229   -81.850145      46.7237      46.7237      46.7237           90           90           90     102002.7    -549.4161 
  972000       971496    -6897.993    481.66546   -7379.6584    4219.7647   -11599.423    92.336445   -631.03919   -604.10838   -998.16192   -185.64632    -126.5569   -66.754354      46.7237      46.7237      46.7237           90           90           90     102002.7   -744.43649 
  973000       972496   -6895.1786    481.30793   -7376.4865    4228.4435    -11604.93    92.267907   -838.47941   -873.69352   -715.70983    21.931958    166.43041   -185.99303      46.7237      46.7237      46.7237           90           90           90     102002.7   -809.29425 
  974000       973496   -6923.5072    469.58013   -7393.0873    4217.2976   -11610.385    90.019659   -620.95588   -492.08284   -1081.0278   -60.209275   -69.405031   -22.748284      46.7237      46.7237      46.7237           90           90           90     102002.7   -731.35552 
  975000       974496   -6930.8913    464.70376    -7395.595    4208.4607   -11604.056    89.084847   -355.29571   -454.11039    -672.0919   -50.725979    164.30593    234.04881      46.7237      46.7237      46.7237           90           90           90     102002.7   -493.83266 
  976000       975496   -6930.1808    465.97962   -7396.1604    4221.4532   -11617.614    89.329432   -623.42846   -329.50374   -288.28707    56.897588    1.5960376   -109.44969      46.7237      46.7237      46.7237           90           90           90     102002.7   -413.73976 
  977000       976496   -6916.8481    481.76483   -7398.6129    4194.7541   -11593.367    92.355495   -669.75806   -755.58131   -531.26588   -23.446386   -166.37259   -160.19348      46.7237      46.7237      46.7237           90           90           90     102002.7   -652.20175 
  978000       977496   -6936.1781    461.45371   -7397.6318     4212.569   -11610.201    88.461803   -495.32873   -146.19673    -762.1843   -18.320076   -208.26274    55.256499      46.7237      46.7237      46.7237           90           90           90     102002.7   -467.90325 
  979000       978496   -6920.2214    480.32331   -7400.5447    4196.2088   -11596.754    92.079153    -1222.109   -814.32231   -848.36647   -101.47898    274.96097   -6.8998681      46.7237      46.7237      46.7237           90           90           90     102002.7   -961.59924 
  980000       979496   -6923.9707    464.62856   -7388.5993    4219.7884   -11608.388    89.070431   -711.82756   -163.91265   -686.84001    40.459646   -84.945366  -0.27988448      46.7237      46.7237      46.7237           90           90           90     102002.7   -520.86007 
  981000       980496   -6900.6133    489.27689   -7389.8902     4207.458   -11597.348    93.795576   -658.74551   -1115.6474   -745.87124   -26.931629    122.53767    21.672582      46.7237      46.7237      46.7237           90           90           90     102002.7   -840.08806 
  982000       981496   -6896.3153    471.44453   -7367.7598    4235.2119   -11602.972    90.377068   -557.15964   -553.86376    -786.7526   -195.99322   0.15496816   -37.087179      46.7237      46.7237      46.7237           90           90           90     102002.7     -632.592 
  983000       982496   -6928.0975    471.26172   -7399.3592     4195.628   -11594.987    90.342023   -544.01523    -555.7628   -563.67148    -33.22935   -14.602685   -143.73884      46.7237      46.7237      46.7237           90           90           90     102002.7   -554.48317 
  984000       983496   -6900.2175     477.8177   -7378.0352    4228.0821   -11606.117    91.598822   -1026.2875   -948.32324   -1274.8836     24.23377   -34.172481    38.124086      46.7237      46.7237      46.7237           90           90           90     102002.7   -1083.1648 
  985000       984496   -6901.0481    476.62211   -7377.6702    4220.5709   -11598.241    91.369624   -1015.4633   -815.53045   -375.64242   -72.748964    26.484807   -53.872605      46.7237      46.7237      46.7237           90           90           90     102002.7   -735.54539 
  986000       985496   -6923.5556    468.42301   -7391.9786    4207.9789   -11599.958    89.797836   -760.14754   -307.38263   -964.85401   -48.574701   -94.843636   -40.376962      46.7237      46.7237      46.7237           90           90           90     102002.7   -677.46139 
  987000       986496   -6906.2323    474.53023   -7380.7625    4237.2648   -11618.027    90.968605   -589.27935   -1024.7821   -419.89507    133.11521   -60.444373   -196.20437      46.7237      46.7237      46.7237           90           90           90     102002.7    -677.9855 
  988000       987496   -6916.3017    481.81467   -7398.1163    4207.8356   -11605.952    92.365051    -602.5878   -773.36683   -590.36373    175.51986   -102.19583   -116.38693      46.7237      46.7237      46.7237           90           90           90     102002.7   -655.43946 
  989000       988496   -6925.0853    479.78761   -7404.8729    4198.5741   -11603.447    91.976458   -357.38638   -515.28705   -649.62704    242.93495    207.92994   -42.100066      46.7237      46.7237      46.7237           90           90           90     102002.7   -507.43349 
  990000       989496   -6909.3151    480.17522   -7389.4904    4219.2372   -11608.728    92.050764   -1036.6976   -897.84487   -855.41305    -22.74375    -99.55022     18.03028      46.7237      46.7237      46.7237           90           90           90     102002.7   -929.98517 
  991000       990496   -6929.7475    470.35232   -7400.0998    4212.0687   -11612.168     90.16769   -516.12273   -843.66845   -699.63754   -28.479186   -16.208188   -135.08207      46.7237      46.7237      46.7237           90           90           90     102002.7   -686.47624 
  992000       991496   -6914.0203    465.96372    -7379.984    4226.6657    -11606.65    89.326384   -923.66114   -902.44206   -1010.4383   -51.002426    107.80061    67.762983      46.7237      46.7237      46.7237           90           90           90     102002.7   -945.51384 
  993000       992496   -6896.9602    485.41064   -7382.3709    4238.7791    -11621.15    93.054406   -653.05832   -740.29943   -623.24643   -104.83367    192.72122   -38.510228      46.7237      46.7237      46.7237           90           90           90     102002.7   -672.20139 
  994000       993496   -6923.6448    478.25607   -7401.9009    4205.8184   -11607.719    91.682857   -594.66032   -745.84461   -545.08546    9.5996402    9.6421158    23.927184      46.7237      46.7237      46.7237           90           90           90     102002.7   -628.53013 
  995000       994496   -6919.3368    469.79619    -7389.133     4216.076   -11605.209    90.061079   -1104.9038   -806.17393   -958.07651   -123.75437   -54.153433    103.89284      46.7237      46.7237      46.7237           90           90           90     102002.7   -956.38476 
  996000       995496   -6902.6857    480.20305   -7382.8888    4210.0329   -11592.922    92.056099    -761.4498   -92.553075   -784.73959   -169.74447    -19.37047    37.054127      46.7237      46.7237      46.7237           90           90           90     102002.7   -546.24749 
  997000       996496   -6931.8932    454.78713   -7386.6803    4220.9794    -11607.66    87.183805   -975.84614   -472.95566   -675.81771    10.630541    47.947239    140.50508      46.7237      46.7237      46.7237           90           90           90     102002.7    -708.2065 
  998000       997496   -6919.7462    457.89659   -7377.6428    4222.8431   -11600.486    87.779895    -1089.437   -586.49767   -727.43517    120.04093    -34.38466    129.16624      46.7237      46.7237      46.7237           90           90           90     102002.7   -801.12328 
  999000       998496   -6924.9303    475.53088   -7400.4612    4198.4145   -11598.876    91.160432   -925.71508   -717.02826   -632.37166    14.973023    40.661855    -136.6633      46.7237      46.7237      46.7237           90           90           90     102002.7   -758.37167 
 1000000       999496   -6907.1879    473.72378   -7380.9117    4230.4534   -11611.365    90.814007   -816.11973   -426.10213   -808.68387    242.49205   -86.450571   -171.08427      46.7237      46.7237      46.7237           90           90           90     102002.7   -683.63524 
 1000504      1000000   -6908.5966    484.95262   -7393.5492    4222.7329   -11616.282    92.966603   -524.20781    -563.2054   -640.26564    29.062632   -15.418409   -238.16652      46.7237      46.7237      46.7237           90           90           90     102002.7   -575.89295 
Loop time of 1437.86 on 16 procs for 500000 steps with 1751 atoms

Performance: 30.045 ns/day, 0.799 hours/ns, 347.739 timesteps/s
99.9% CPU use with 16 MPI tasks x no OpenMP threads

MPI task timing breakdown:
Section |  min time  |  avg time  |  max time  |%varavg| %total
---------------------------------------------------------------
Pair    | 550.55     | 774.96     | 995.4      | 506.8 | 53.90
Bond    | 172.91     | 183.32     | 192.17     |  45.1 | 12.75
Neigh   | 3.5859     | 3.6056     | 3.6258     |   0.7 |  0.25
Comm    | 223.1      | 448.13     | 680.25     | 683.8 | 31.17
Output  | 0.09689    | 0.10167    | 0.10206    |   0.4 |  0.01
Modify  | 21.577     | 22.424     | 23.762     |  16.9 |  1.56
Other   |            | 5.318      |            |       |  0.37

Nlocal:    109.438 ave 133 max 92 min
Histogram: 2 1 4 2 1 2 1 0 2 1
Nghost:    2214.81 ave 2238 max 2192 min
Histogram: 2 0 1 3 2 1 4 2 0 1
Neighs:    11452 ave 15883 max 7831 min
Histogram: 6 0 0 0 3 1 1 0 3 2

Total # of neighbors = 183232
Ave neighs/atom = 104.644
Ave special neighs/atom = 6.5791
Neighbor list builds = 3066
Dangerous builds = 0
Total wall time: 0:45:38
