LAMMPS (30 Mar 2018)
Reading data file ...
  orthogonal box = (0 0 0) to (46.7237 46.7237 46.7237)
  2 by 3 by 4 MPI processor grid
  reading atoms ...
  2042 atoms
  scanning bonds ...
  5 = max bonds/atom
  scanning angles ...
  10 = max angles/atom
  scanning dihedrals ...
  32 = max dihedrals/atom
  scanning impropers ...
  3 = max impropers/atom
  reading bonds ...
  2064 bonds
  reading angles ...
  3696 angles
  reading dihedrals ...
  6240 dihedrals
  reading impropers ...
  1008 impropers
Finding 1-2 1-3 1-4 neighbors ...
  special bond factors lj:   0          0          0         
  special bond factors coul: 0          0          0         
  5 = max # of 1-2 neighbors
  8 = max # of 1-3 neighbors
  20 = max # of 1-4 neighbors
  19 = max # of special neighbors
Finding 1-2 1-3 1-4 neighbors ...
  special bond factors lj:   0          0          1         
  special bond factors coul: 1          1          1         
  5 = max # of 1-2 neighbors
  8 = max # of 1-3 neighbors
  19 = max # of special neighbors
WARNING: Using 'neigh_modify every 1 delay 0 check yes' setting during minimization (../min.cpp:168)
Neighbor list info ...
  update every 1 steps, delay 0 steps, check yes
  max neighbors/atom: 2000, page size: 100000
  master list distance cutoff = 16
  ghost atom cutoff = 16
  binsize = 8, bins = 6 6 6
  3 neighbor lists, perpetual/occasional/extra = 3 0 0
  (1) pair buck6d/coul/gauss/dsf, perpetual, skip from (3)
      attributes: half, newton on
      pair build: skip
      stencil: none
      bin: none
  (2) pair lj/cut, perpetual, skip from (3)
      attributes: half, newton on
      pair build: skip
      stencil: none
      bin: none
  (3) neighbor class addition, perpetual
      attributes: half, newton on
      pair build: half/bin/newton
      stencil: half/bin/3d/newton
      bin: standard
Setting up cg style minimization ...
  Unit style    : real
  Current step  : 0
WARNING: Inconsistent image flags (../domain.cpp:786)
Per MPI rank memory allocation (min/avg/max) = 22.89 | 23.3 | 24.44 Mbytes
Step Temp E_pair E_mol TotEng Press 
       0            0    -12470.79    6482.8914   -5987.8988    6108.9225 
     501            0   -12612.697    3738.5265   -8874.1707   -709.71582 
Loop time of 1.34891 on 24 procs for 501 steps with 2042 atoms

99.6% CPU use with 24 MPI tasks x no OpenMP threads

Minimization stats:
  Stopping criterion = max force evaluations
  Energy initial, next-to-last, final = 
        -5987.89882428      -8874.1112834     -8874.17070577
  Force two-norm initial, final = 2575.12 11.0119
  Force max component initial, final = 152.04 2.40977
  Final line search alpha, max atom move = 0.00267655 0.00644985
  Iterations, force evaluations = 501 1001

MPI task timing breakdown:
Section |  min time  |  avg time  |  max time  |%varavg| %total
---------------------------------------------------------------
Pair    | 0.45868    | 0.69564    | 0.92606    |  15.4 | 51.57
Bond    | 0.11626    | 0.15754    | 0.19278    |   4.6 | 11.68
Neigh   | 0.010875   | 0.012255   | 0.012598   |   0.6 |  0.91
Comm    | 0.21981    | 0.46086    | 0.71029    |  19.5 | 34.17
Output  | 0          | 0          | 0          |   0.0 |  0.00
Modify  | 0          | 0          | 0          |   0.0 |  0.00
Other   |            | 0.02261    |            |       |  1.68

Nlocal:    85.0833 ave 102 max 62 min
Histogram: 1 1 0 2 5 4 3 4 1 3
Nghost:    2270.58 ave 2460 max 2172 min
Histogram: 14 2 0 0 0 0 0 0 6 2
Neighs:    7630.38 ave 11368 max 3590 min
Histogram: 1 1 3 5 3 2 2 3 2 2

Total # of neighbors = 183129
Ave neighs/atom = 89.6812
Ave special neighs/atom = 5.64153
Neighbor list builds = 14
Dangerous builds = 0
Neighbor list info ...
  update every 1 steps, delay 10 steps, check yes
  max neighbors/atom: 2000, page size: 100000
  master list distance cutoff = 16
  ghost atom cutoff = 16
  binsize = 8, bins = 6 6 6
  3 neighbor lists, perpetual/occasional/extra = 3 0 0
  (1) pair buck6d/coul/gauss/dsf, perpetual, skip from (3)
      attributes: half, newton on
      pair build: skip
      stencil: none
      bin: none
  (2) pair lj/cut, perpetual, skip from (3)
      attributes: half, newton on
      pair build: skip
      stencil: none
      bin: none
  (3) neighbor class addition, perpetual
      attributes: half, newton on
      pair build: half/bin/newton
      stencil: half/bin/3d/newton
      bin: standard
Setting up Verlet run ...
  Unit style    : real
  Current step  : 501
  Time step     : 1
WARNING: Inconsistent image flags (../domain.cpp:786)
Per MPI rank memory allocation (min/avg/max) = 22.54 | 22.72 | 23.31 Mbytes
Step Temp PotEng TotEng Press Volume Lx Ly Lz 
     501          110   -8874.1707    -8204.949   -409.80567     102002.7      46.7237      46.7237      46.7237 
    1000     93.52626   -8272.7524   -7703.7542   -662.84984     102002.7      46.7237      46.7237      46.7237 
    2000    119.05267   -8193.3189   -7469.0223   -849.71784     102002.7      46.7237      46.7237      46.7237 
    3000    105.64182   -8153.1325   -7510.4253    -848.6363     102002.7      46.7237      46.7237      46.7237 
    4000    106.70826   -8147.1585   -7497.9632   -746.06874     102002.7      46.7237      46.7237      46.7237 
    5000    111.82422   -8161.9693   -7481.6494   -723.68273     102002.7      46.7237      46.7237      46.7237 
    6000    109.34822   -8176.7385   -7511.4822   -432.45562     102002.7      46.7237      46.7237      46.7237 
    7000    111.07736   -8167.2106   -7491.4344    -604.9267     102002.7      46.7237      46.7237      46.7237 
    8000    108.71131   -8123.7283   -7462.3469   -834.89527     102002.7      46.7237      46.7237      46.7237 
    9000    111.38929   -8183.7232   -7506.0493   -746.06223     102002.7      46.7237      46.7237      46.7237 
   10000    107.55267   -8178.8157   -7524.4832   -707.67362     102002.7      46.7237      46.7237      46.7237 
   11000    109.48069   -8176.8944   -7510.8321   -775.32203     102002.7      46.7237      46.7237      46.7237 
   12000    107.59388   -8173.1314   -7518.5481   -733.84394     102002.7      46.7237      46.7237      46.7237 
   13000    111.86381   -8166.4774   -7485.9166   -464.74028     102002.7      46.7237      46.7237      46.7237 
   14000    113.10468   -8165.8103   -7477.7003   -579.75524     102002.7      46.7237      46.7237      46.7237 
   15000    110.68173   -8170.0414   -7496.6722   -606.26345     102002.7      46.7237      46.7237      46.7237 
   16000    111.19662   -8164.5834   -7488.0817   -610.00996     102002.7      46.7237      46.7237      46.7237 
   17000    107.42448   -8163.0555   -7509.5029   -537.56607     102002.7      46.7237      46.7237      46.7237 
   18000    109.62066   -8184.1892   -7517.2754   -591.16609     102002.7      46.7237      46.7237      46.7237 
   19000    111.80847    -8169.508    -7489.284   -1031.2617     102002.7      46.7237      46.7237      46.7237 
   20000    110.04412   -8146.9942   -7477.5042   -825.44914     102002.7      46.7237      46.7237      46.7237 
   21000    109.36252   -8163.5089   -7498.1655    -740.4798     102002.7      46.7237      46.7237      46.7237 
   22000    109.99306   -8184.8948   -7515.7154   -993.23641     102002.7      46.7237      46.7237      46.7237 
   23000    110.10276    -8158.068   -7488.2211   -823.49013     102002.7      46.7237      46.7237      46.7237 
   24000    108.93812   -8138.9227   -7476.1614   -815.44535     102002.7      46.7237      46.7237      46.7237 
   25000    111.73762   -8164.9523   -7485.1592   -919.40277     102002.7      46.7237      46.7237      46.7237 
   26000    108.02786   -8171.5282   -7514.3047   -1126.2327     102002.7      46.7237      46.7237      46.7237 
   27000    109.60165   -8139.0219   -7472.2237   -804.86885     102002.7      46.7237      46.7237      46.7237 
   28000    109.24777   -8164.1213   -7499.4761   -811.10955     102002.7      46.7237      46.7237      46.7237 
   29000    105.15192   -8160.7995   -7521.0728   -1061.0385     102002.7      46.7237      46.7237      46.7237 
   30000    108.67869   -8145.8213   -7484.6383   -934.90812     102002.7      46.7237      46.7237      46.7237 
   31000    108.20418   -8169.2001   -7510.9039   -986.21819     102002.7      46.7237      46.7237      46.7237 
   32000     114.2213   -8168.2127   -7473.3094   -703.65588     102002.7      46.7237      46.7237      46.7237 
   33000    108.06046   -8189.8771   -7532.4553   -498.37223     102002.7      46.7237      46.7237      46.7237 
   34000    109.31639   -8147.0625   -7481.9998   -855.97415     102002.7      46.7237      46.7237      46.7237 
   35000    111.20113   -8174.1559   -7497.6267    -883.9696     102002.7      46.7237      46.7237      46.7237 
   36000    111.72763   -8160.4015   -7480.6692   -1036.8305     102002.7      46.7237      46.7237      46.7237 
   37000    110.39669   -8155.3023   -7483.6673   -846.89905     102002.7      46.7237      46.7237      46.7237 
   38000     111.9743   -8120.0711   -7438.8381   -728.20813     102002.7      46.7237      46.7237      46.7237 
   39000     110.9506    -8156.213    -7481.208    -1020.898     102002.7      46.7237      46.7237      46.7237 
   40000    112.18991   -8176.0704   -7493.5257   -901.23739     102002.7      46.7237      46.7237      46.7237 
   41000    107.62727   -8146.9281   -7492.1418    -770.3408     102002.7      46.7237      46.7237      46.7237 
   42000      110.652   -8148.0033   -7474.8149   -766.01637     102002.7      46.7237      46.7237      46.7237 
   43000    109.65154   -8172.0518   -7504.9501   -513.94927     102002.7      46.7237      46.7237      46.7237 
   44000    109.87297   -8156.4883   -7488.0394    -509.2099     102002.7      46.7237      46.7237      46.7237 
   45000    112.06632   -8129.5949   -7447.8021   -585.63979     102002.7      46.7237      46.7237      46.7237 
   46000    110.86569   -8153.0863    -7478.598   -1021.2035     102002.7      46.7237      46.7237      46.7237 
   47000    106.71744   -8163.7498   -7514.4987   -571.39795     102002.7      46.7237      46.7237      46.7237 
   48000    107.63469   -8148.0586    -7493.227   -739.11534     102002.7      46.7237      46.7237      46.7237 
   49000     111.3473   -8155.0476   -7477.6292    -644.1417     102002.7      46.7237      46.7237      46.7237 
   50000    111.13225   -8141.6685   -7465.5584   -794.28851     102002.7      46.7237      46.7237      46.7237 
   51000     109.0759   -8164.4794   -7500.8798   -612.98485     102002.7      46.7237      46.7237      46.7237 
   52000    107.85246   -8143.2476   -7487.0912   -763.62563     102002.7      46.7237      46.7237      46.7237 
   53000    110.23696   -8140.8236   -7470.1602   -930.58538     102002.7      46.7237      46.7237      46.7237 
   54000      108.791   -8165.1447   -7503.2784   -825.27471     102002.7      46.7237      46.7237      46.7237 
   55000    106.95983   -8149.3568    -7498.631   -614.44866     102002.7      46.7237      46.7237      46.7237 
   56000     112.0356    -8166.626   -7485.0201   -959.66926     102002.7      46.7237      46.7237      46.7237 
   57000    109.58127   -8172.7627   -7506.0885   -790.07881     102002.7      46.7237      46.7237      46.7237 
   58000    106.42775   -8160.5749   -7513.0862   -970.90018     102002.7      46.7237      46.7237      46.7237 
   59000    111.70865   -8149.2994   -7469.6826   -1061.5027     102002.7      46.7237      46.7237      46.7237 
   60000    109.92041   -8151.0555   -7482.3181   -767.19288     102002.7      46.7237      46.7237      46.7237 
   61000     110.8695   -8169.0428   -7494.5313   -989.08284     102002.7      46.7237      46.7237      46.7237 
   62000    109.95736   -8150.8921   -7481.9299   -773.55389     102002.7      46.7237      46.7237      46.7237 
   63000    110.80778   -8141.9042   -7467.7681   -1041.5347     102002.7      46.7237      46.7237      46.7237 
   64000    110.58214    -8173.208   -7500.4448    -768.3139     102002.7      46.7237      46.7237      46.7237 
   65000    110.53934   -8179.0785   -7506.5756   -1194.0376     102002.7      46.7237      46.7237      46.7237 
   66000    109.80273   -8139.0007   -7470.9792   -750.31404     102002.7      46.7237      46.7237      46.7237 
   67000    110.98714   -8180.3313   -7505.1041   -641.37096     102002.7      46.7237      46.7237      46.7237 
   68000    114.36663   -8157.2242   -7461.4367   -947.81919     102002.7      46.7237      46.7237      46.7237 
   69000    108.79032   -8168.7592   -7506.8971   -906.95374     102002.7      46.7237      46.7237      46.7237 
   70000    105.16659   -8170.3138   -7530.4978   -926.82288     102002.7      46.7237      46.7237      46.7237 
   71000    109.41972   -8147.9387   -7482.2474   -1149.2737     102002.7      46.7237      46.7237      46.7237 
   72000    106.66553   -8168.5633    -7519.628    -902.8451     102002.7      46.7237      46.7237      46.7237 
   73000    109.17661   -8132.7423     -7468.53   -800.08297     102002.7      46.7237      46.7237      46.7237 
   74000    109.87153   -8148.5724   -7480.1323   -757.43706     102002.7      46.7237      46.7237      46.7237 
   75000     110.3936   -8155.9785   -7484.3623   -728.65069     102002.7      46.7237      46.7237      46.7237 
   76000    109.06218   -8156.0981    -7492.582   -899.74664     102002.7      46.7237      46.7237      46.7237 
   77000    104.96168   -8172.7273   -7534.1579   -568.04203     102002.7      46.7237      46.7237      46.7237 
   78000    110.33395   -8158.2655   -7487.0121   -960.29253     102002.7      46.7237      46.7237      46.7237 
   79000    107.40691   -8141.6651   -7488.2194   -844.19602     102002.7      46.7237      46.7237      46.7237 
   80000    108.50312   -8164.5011   -7504.3862   -456.21791     102002.7      46.7237      46.7237      46.7237 
   81000    113.12574   -8139.1541    -7450.916   -675.82472     102002.7      46.7237      46.7237      46.7237 
   82000    112.88127   -8178.7865   -7492.0357   -838.92213     102002.7      46.7237      46.7237      46.7237 
   83000    111.48612   -8169.4562   -7491.1932   -800.82099     102002.7      46.7237      46.7237      46.7237 
   84000    111.87878   -8154.6985   -7474.0467   -777.75149     102002.7      46.7237      46.7237      46.7237 
   85000    110.65136    -8183.804   -7510.6196   -847.89274     102002.7      46.7237      46.7237      46.7237 
   86000    108.51118   -8159.0189   -7498.8549   -760.57963     102002.7      46.7237      46.7237      46.7237 
   87000    112.72153   -8162.4881   -7476.7091   -736.34085     102002.7      46.7237      46.7237      46.7237 
   88000    113.73652   -8150.4505   -7458.4965   -734.32977     102002.7      46.7237      46.7237      46.7237 
   89000    108.89179   -8153.4027   -7490.9231   -705.98011     102002.7      46.7237      46.7237      46.7237 
   90000    111.75353   -8163.2795   -7483.3897   -958.56774     102002.7      46.7237      46.7237      46.7237 
   91000    110.56835   -8163.2882   -7490.6088   -454.23934     102002.7      46.7237      46.7237      46.7237 
   92000    111.37859   -8158.8471   -7481.2383   -794.31478     102002.7      46.7237      46.7237      46.7237 
   93000    109.55656   -8159.9871   -7493.4632   -852.82564     102002.7      46.7237      46.7237      46.7237 
   94000     113.7836   -8166.1749   -7473.9344    -733.0082     102002.7      46.7237      46.7237      46.7237 
   95000    113.07703   -8171.1998    -7483.258   -584.83239     102002.7      46.7237      46.7237      46.7237 
   96000    110.70993   -8159.8693   -7486.3285   -763.58178     102002.7      46.7237      46.7237      46.7237 
   97000     108.0233   -8167.4437    -7510.248   -734.61172     102002.7      46.7237      46.7237      46.7237 
   98000    110.42203   -8178.5718   -7506.7826   -628.31434     102002.7      46.7237      46.7237      46.7237 
   99000    110.32049   -8131.8399   -7460.6685   -668.44625     102002.7      46.7237      46.7237      46.7237 
  100000    112.38925   -8168.0396   -7484.2822   -990.26497     102002.7      46.7237      46.7237      46.7237 
  101000    109.40571   -8160.4272   -7494.8211    -809.7661     102002.7      46.7237      46.7237      46.7237 
  102000    111.46375    -8169.835   -7491.7082   -977.53372     102002.7      46.7237      46.7237      46.7237 
  103000    108.90667   -8180.5163   -7517.9463   -972.45562     102002.7      46.7237      46.7237      46.7237 
  104000    112.28669   -8142.4712   -7459.3377     -668.392     102002.7      46.7237      46.7237      46.7237 
  105000    111.10053   -8178.4116   -7502.4944   -747.19617     102002.7      46.7237      46.7237      46.7237 
  106000    108.80932   -8170.0788    -7508.101    -743.1352     102002.7      46.7237      46.7237      46.7237 
  107000    109.03903    -8169.018   -7505.6427   -711.95589     102002.7      46.7237      46.7237      46.7237 
  108000    112.33853   -8163.3255   -7479.8766   -888.10742     102002.7      46.7237      46.7237      46.7237 
  109000    110.17096   -8155.4774   -7485.2157   -615.44195     102002.7      46.7237      46.7237      46.7237 
  110000     106.9956   -8158.2385   -7507.2951   -710.18346     102002.7      46.7237      46.7237      46.7237 
  111000    111.04905   -8170.3854   -7494.7815    -706.2353     102002.7      46.7237      46.7237      46.7237 
  112000    110.90748   -8174.4899   -7499.7473   -644.94291     102002.7      46.7237      46.7237      46.7237 
  113000    110.26022   -8131.5205   -7460.7157   -799.94139     102002.7      46.7237      46.7237      46.7237 
  114000    109.70546   -8145.6389   -7478.2092   -711.15868     102002.7      46.7237      46.7237      46.7237 
  115000     109.3918   -8141.3447   -7475.8233   -853.66288     102002.7      46.7237      46.7237      46.7237 
  116000    108.80885   -8181.7116   -7519.7366   -738.18657     102002.7      46.7237      46.7237      46.7237 
  117000    107.60055   -8140.9527   -7486.3289   -684.95123     102002.7      46.7237      46.7237      46.7237 
  118000    107.75236   -8157.2634    -7501.716   -820.88428     102002.7      46.7237      46.7237      46.7237 
  119000    111.15711   -8164.7799   -7488.5186   -995.51783     102002.7      46.7237      46.7237      46.7237 
  120000    105.60021    -8166.884   -7524.4299   -714.23058     102002.7      46.7237      46.7237      46.7237 
  121000    111.22155   -8162.5129   -7485.8596   -602.22504     102002.7      46.7237      46.7237      46.7237 
  122000    111.18037   -8139.4724   -7463.0696   -698.77609     102002.7      46.7237      46.7237      46.7237 
  123000    110.20365   -8147.2896    -7476.829   -1088.9247     102002.7      46.7237      46.7237      46.7237 
  124000     113.9273   -8142.1732   -7449.0585    -465.2523     102002.7      46.7237      46.7237      46.7237 
  125000    108.66231   -8165.4986   -7504.4153   -1126.2792     102002.7      46.7237      46.7237      46.7237 
  126000    108.15134   -8169.0681   -7511.0934   -876.34751     102002.7      46.7237      46.7237      46.7237 
  127000    110.28847   -8169.0256   -7498.0489   -789.01626     102002.7      46.7237      46.7237      46.7237 
  128000    111.66824   -8154.1026   -7474.7317   -857.34825     102002.7      46.7237      46.7237      46.7237 
  129000    109.03802   -8160.7347   -7497.3655   -809.51089     102002.7      46.7237      46.7237      46.7237 
  130000    112.47332   -8163.4814   -7479.2125   -701.75237     102002.7      46.7237      46.7237      46.7237 
  131000    110.83445   -8161.7478   -7487.4495   -553.52385     102002.7      46.7237      46.7237      46.7237 
  132000    110.45252   -8181.5788   -7509.6041   -922.83669     102002.7      46.7237      46.7237      46.7237 
  133000    110.34419   -8159.8228   -7488.5071   -926.53937     102002.7      46.7237      46.7237      46.7237 
  134000    113.18976   -8163.9397   -7475.3121   -801.57305     102002.7      46.7237      46.7237      46.7237 
  135000    109.67862    -8155.424   -7488.1575   -663.78686     102002.7      46.7237      46.7237      46.7237 
  136000    109.41402   -8146.8993   -7481.2427   -596.48489     102002.7      46.7237      46.7237      46.7237 
  137000    112.63438   -8152.6933   -7467.4445   -672.84437     102002.7      46.7237      46.7237      46.7237 
  138000    105.39494   -8156.2435   -7515.0383   -682.25691     102002.7      46.7237      46.7237      46.7237 
  139000    110.19037   -8170.4943   -7500.1145   -448.73951     102002.7      46.7237      46.7237      46.7237 
  140000    111.48731    -8162.577   -7484.3068   -555.44973     102002.7      46.7237      46.7237      46.7237 
  141000    110.46449   -8178.5031   -7506.4556   -603.68758     102002.7      46.7237      46.7237      46.7237 
  142000    112.64407   -8162.2856   -7476.9779   -755.24402     102002.7      46.7237      46.7237      46.7237 
  143000    114.16125   -8146.8785   -7452.3404   -876.47686     102002.7      46.7237      46.7237      46.7237 
  144000    113.35351   -8180.1856   -7490.5618   -707.52546     102002.7      46.7237      46.7237      46.7237 
  145000    109.79538   -8137.4142   -7469.4374   -950.57543     102002.7      46.7237      46.7237      46.7237 
  146000    109.81371    -8154.869   -7486.7807   -910.28638     102002.7      46.7237      46.7237      46.7237 
  147000    114.17269   -8138.7643   -7444.1566   -689.88755     102002.7      46.7237      46.7237      46.7237 
  148000    109.34002   -8156.8011   -7491.5946   -831.33966     102002.7      46.7237      46.7237      46.7237 
  149000    108.24667   -8163.2276   -7504.6729   -668.08965     102002.7      46.7237      46.7237      46.7237 
  150000    106.32372   -8132.1112   -7485.2555   -982.93324     102002.7      46.7237      46.7237      46.7237 
  151000    108.96665    -8149.413    -7486.478   -754.49466     102002.7      46.7237      46.7237      46.7237 
  152000    109.55802   -8147.7838   -7481.2511   -920.29733     102002.7      46.7237      46.7237      46.7237 
  153000    110.71651   -8145.8983   -7472.3174   -1134.6749     102002.7      46.7237      46.7237      46.7237 
  154000    111.18566   -8170.4924   -7494.0574   -1014.2201     102002.7      46.7237      46.7237      46.7237 
  155000    107.65205   -8134.7628   -7479.8256   -755.95813     102002.7      46.7237      46.7237      46.7237 
  156000    109.40099   -8175.9704    -7510.393    -863.0737     102002.7      46.7237      46.7237      46.7237 
  157000      112.537   -8156.9753   -7472.3189   -821.44575     102002.7      46.7237      46.7237      46.7237 
  158000     112.5618   -8153.1265   -7468.3193   -906.68914     102002.7      46.7237      46.7237      46.7237 
  159000    113.52802   -8171.6421   -7480.9565   -892.23975     102002.7      46.7237      46.7237      46.7237 
  160000    109.62908   -8172.7899   -7505.8249   -625.74166     102002.7      46.7237      46.7237      46.7237 
  161000    114.59471    -8142.703   -7445.5278   -578.86313     102002.7      46.7237      46.7237      46.7237 
  162000    111.44004   -8151.2034   -7473.2207   -709.02144     102002.7      46.7237      46.7237      46.7237 
  163000    106.50984   -8150.3275   -7502.3394   -619.05993     102002.7      46.7237      46.7237      46.7237 
  164000    109.22553   -8174.9472   -7510.4372    -595.0598     102002.7      46.7237      46.7237      46.7237 
  165000    107.21977   -8142.1717   -7489.8645    -616.2437     102002.7      46.7237      46.7237      46.7237 
  166000    111.48437   -8162.0614   -7483.8091   -773.94974     102002.7      46.7237      46.7237      46.7237 
  167000    108.09398   -8148.5917    -7490.966   -888.29437     102002.7      46.7237      46.7237      46.7237 
  168000    111.93988   -8176.4371   -7495.4135   -876.83189     102002.7      46.7237      46.7237      46.7237 
  169000    109.79574   -8144.9313   -7476.9523   -807.75096     102002.7      46.7237      46.7237      46.7237 
  170000    109.68652   -8161.9089   -7494.5944   -1101.0602     102002.7      46.7237      46.7237      46.7237 
  171000    107.81304   -8142.3651   -7486.4485   -829.53381     102002.7      46.7237      46.7237      46.7237 
  172000    109.29798   -8144.1243   -7479.1736   -913.95475     102002.7      46.7237      46.7237      46.7237 
  173000    110.16838   -8138.8568   -7468.6108   -836.11685     102002.7      46.7237      46.7237      46.7237 
  174000     108.8553   -8146.2467   -7483.9891   -994.38451     102002.7      46.7237      46.7237      46.7237 
  175000    107.68596   -8145.7236   -7490.5802   -821.35155     102002.7      46.7237      46.7237      46.7237 
  176000     115.7315   -8155.9615   -7451.8704   -879.21784     102002.7      46.7237      46.7237      46.7237 
  177000     108.4179   -8137.5391   -7477.9427   -811.14972     102002.7      46.7237      46.7237      46.7237 
  178000    111.82789   -8156.5513   -7476.2091   -744.58905     102002.7      46.7237      46.7237      46.7237 
  179000    108.99499   -8159.3821   -7496.2747   -983.57861     102002.7      46.7237      46.7237      46.7237 
  180000    108.72964   -8158.9326   -7497.4396   -856.74167     102002.7      46.7237      46.7237      46.7237 
  181000    109.49285   -8149.3489   -7483.2127   -842.32943     102002.7      46.7237      46.7237      46.7237 
  182000    110.12138   -8170.0386   -7500.0785   -729.90622     102002.7      46.7237      46.7237      46.7237 
  183000    104.26152   -8153.2966   -7518.9869   -966.65275     102002.7      46.7237      46.7237      46.7237 
  184000     111.9389   -8148.9924   -7467.9748   -1054.7184     102002.7      46.7237      46.7237      46.7237 
  185000    112.05894   -8141.4728   -7459.7249   -1140.1292     102002.7      46.7237      46.7237      46.7237 
  186000    111.74351   -8165.3824   -7485.5534   -843.71796     102002.7      46.7237      46.7237      46.7237 
  187000    109.63875    -8168.329   -7501.3051   -894.80087     102002.7      46.7237      46.7237      46.7237 
  188000     111.6285   -8129.3939   -7450.2647    -1066.185     102002.7      46.7237      46.7237      46.7237 
  189000    109.77239   -8135.0945   -7467.2576    -917.7447     102002.7      46.7237      46.7237      46.7237 
  190000    110.09044   -8144.6269    -7474.855    -955.1918     102002.7      46.7237      46.7237      46.7237 
  191000    112.21826   -8115.8674   -7433.1502   -716.98759     102002.7      46.7237      46.7237      46.7237 
  192000    109.80396   -8164.2488   -7496.2199   -668.00089     102002.7      46.7237      46.7237      46.7237 
  193000    106.98653   -8162.4904   -7511.6021   -1058.7646     102002.7      46.7237      46.7237      46.7237 
  194000    110.90281   -8177.3451   -7502.6309   -796.39926     102002.7      46.7237      46.7237      46.7237 
  195000    108.98408    -8162.967   -7499.9261   -959.85982     102002.7      46.7237      46.7237      46.7237 
  196000    108.34722   -8144.3017   -7485.1353   -814.62793     102002.7      46.7237      46.7237      46.7237 
  197000    109.20225   -8146.5022    -7482.134    -841.6136     102002.7      46.7237      46.7237      46.7237 
  198000     111.2656   -8146.4295   -7469.5082   -1034.1058     102002.7      46.7237      46.7237      46.7237 
  199000    109.18221   -8159.5197   -7495.2733   -931.11436     102002.7      46.7237      46.7237      46.7237 
  200000    111.42458   -8147.2646    -7469.376   -979.61311     102002.7      46.7237      46.7237      46.7237 
  201000    109.42811   -8151.5207   -7485.7783   -928.65617     102002.7      46.7237      46.7237      46.7237 
  202000    112.36541   -8163.7203   -7480.1079   -1109.5846     102002.7      46.7237      46.7237      46.7237 
  203000    107.41844   -8163.6434   -7510.1276   -803.17641     102002.7      46.7237      46.7237      46.7237 
  204000    111.30731   -8166.2833   -7489.1082   -795.33807     102002.7      46.7237      46.7237      46.7237 
  205000    107.27664   -8191.5166   -7538.8634    -905.0177     102002.7      46.7237      46.7237      46.7237 
  206000    110.47522   -8169.0555   -7496.9427   -733.48725     102002.7      46.7237      46.7237      46.7237 
  207000    109.31029    -8164.019   -7498.9934   -835.88073     102002.7      46.7237      46.7237      46.7237 
  208000    111.40228   -8135.1081   -7457.3551   -1030.4673     102002.7      46.7237      46.7237      46.7237 
  209000    108.81997   -8144.7886    -7482.746   -835.02851     102002.7      46.7237      46.7237      46.7237 
  210000    110.14337   -8158.5144   -7488.4205   -655.85922     102002.7      46.7237      46.7237      46.7237 
  211000    111.82492   -8173.8114   -7493.4873   -784.41918     102002.7      46.7237      46.7237      46.7237 
  212000    109.66769   -8158.3584   -7491.1585   -704.09876     102002.7      46.7237      46.7237      46.7237 
  213000    108.04706   -8184.9654   -7527.6251   -959.92464     102002.7      46.7237      46.7237      46.7237 
  214000    107.82806   -8161.2933   -7505.2854   -738.05687     102002.7      46.7237      46.7237      46.7237 
  215000     113.4769   -8144.3643   -7453.9898   -882.83659     102002.7      46.7237      46.7237      46.7237 
  216000    110.06184   -8160.9658   -7491.3679   -857.90318     102002.7      46.7237      46.7237      46.7237 
  217000    108.23291    -8150.442    -7491.971   -584.24713     102002.7      46.7237      46.7237      46.7237 
  218000    109.81414   -8167.1569   -7499.0659   -612.45826     102002.7      46.7237      46.7237      46.7237 
  219000    104.54111   -8130.1536   -7494.1429     -827.873     102002.7      46.7237      46.7237      46.7237 
  220000    112.90278   -8159.5862   -7472.7045   -704.23144     102002.7      46.7237      46.7237      46.7237 
  221000    110.83985   -8132.2498   -7457.9186   -552.86204     102002.7      46.7237      46.7237      46.7237 
  222000    110.62707   -8145.6638   -7472.6272   -689.60621     102002.7      46.7237      46.7237      46.7237 
  223000    106.79005   -8174.7949   -7525.1021   -959.95266     102002.7      46.7237      46.7237      46.7237 
  224000    111.82002    -8162.216   -7481.9216   -814.97044     102002.7      46.7237      46.7237      46.7237 
  225000    111.01049   -8151.9268   -7476.5574   -1035.4366     102002.7      46.7237      46.7237      46.7237 
  226000    111.23432   -8138.7252   -7461.9941   -932.80776     102002.7      46.7237      46.7237      46.7237 
  227000    110.08666   -8138.4397   -7468.6908   -982.38433     102002.7      46.7237      46.7237      46.7237 
  228000    109.18765   -8169.9514    -7505.672   -1000.7605     102002.7      46.7237      46.7237      46.7237 
  229000    109.39431   -8162.8363   -7497.2996   -777.09327     102002.7      46.7237      46.7237      46.7237 
  230000    109.77932   -8164.0895   -7496.2104   -751.70566     102002.7      46.7237      46.7237      46.7237 
  231000    108.91311   -8148.0512    -7485.442   -672.82731     102002.7      46.7237      46.7237      46.7237 
  232000    108.88044   -8137.4299   -7475.0194   -970.69146     102002.7      46.7237      46.7237      46.7237 
  233000    107.62809   -8138.4746   -7483.6833   -939.73637     102002.7      46.7237      46.7237      46.7237 
  234000    111.37167   -8148.7537    -7471.187    -793.8201     102002.7      46.7237      46.7237      46.7237 
  235000    113.20909   -8160.2435   -7471.4983   -859.20605     102002.7      46.7237      46.7237      46.7237 
  236000      111.145   -8131.7854   -7455.5978   -405.05486     102002.7      46.7237      46.7237      46.7237 
  237000    110.36287   -8138.0013    -7466.572   -722.47876     102002.7      46.7237      46.7237      46.7237 
  238000    108.93468    -8134.105   -7471.3646   -748.09572     102002.7      46.7237      46.7237      46.7237 
  239000    109.47172   -8163.2287    -7497.221   -645.52967     102002.7      46.7237      46.7237      46.7237 
  240000    111.01358   -8144.9307   -7469.5426   -752.57912     102002.7      46.7237      46.7237      46.7237 
  241000    110.79086   -8141.1317   -7467.0986   -735.13367     102002.7      46.7237      46.7237      46.7237 
  242000    109.23415   -8155.5269   -7490.9646   -732.32269     102002.7      46.7237      46.7237      46.7237 
  243000    114.71424   -8143.8583    -7445.956   -595.39257     102002.7      46.7237      46.7237      46.7237 
  244000    108.45418   -8154.4579   -7494.6408   -659.55865     102002.7      46.7237      46.7237      46.7237 
  245000    108.64548   -8150.6417   -7489.6607   -528.85449     102002.7      46.7237      46.7237      46.7237 
  246000    111.74669   -8132.9912    -7453.143   -646.29255     102002.7      46.7237      46.7237      46.7237 
  247000    107.13106   -8154.5008   -7502.7333   -873.68278     102002.7      46.7237      46.7237      46.7237 
  248000    112.48507   -8157.4084   -7473.0679   -768.81631     102002.7      46.7237      46.7237      46.7237 
  249000    106.83354   -8165.5298   -7515.5723   -746.79819     102002.7      46.7237      46.7237      46.7237 
  250000    111.91091   -8160.3669   -7479.5195   -696.38714     102002.7      46.7237      46.7237      46.7237 
  251000    109.21417   -8165.6356   -7501.1948    -978.0134     102002.7      46.7237      46.7237      46.7237 
  252000    111.15353   -8160.0951   -7483.8556   -956.74244     102002.7      46.7237      46.7237      46.7237 
  253000    109.39255   -8141.2327   -7475.7067   -1210.5357     102002.7      46.7237      46.7237      46.7237 
  254000    112.36655   -8146.3394     -7462.72   -1205.7978     102002.7      46.7237      46.7237      46.7237 
  255000    112.44373   -8157.9288   -7473.8399   -866.79591     102002.7      46.7237      46.7237      46.7237 
  256000    110.65158   -8146.1671   -7472.9813   -999.17576     102002.7      46.7237      46.7237      46.7237 
  257000    108.91269   -8166.0743   -7503.4677   -771.19066     102002.7      46.7237      46.7237      46.7237 
  258000    112.88882   -8177.4535   -7490.6568   -650.68995     102002.7      46.7237      46.7237      46.7237 
  259000     108.1185   -8153.1672   -7495.3922   -619.44764     102002.7      46.7237      46.7237      46.7237 
  260000    108.75898   -8151.0377   -7489.3663    -445.9682     102002.7      46.7237      46.7237      46.7237 
  261000    108.88833   -8166.4071   -7503.9487   -517.72052     102002.7      46.7237      46.7237      46.7237 
  262000    110.97696   -8141.8443    -7466.679   -809.06283     102002.7      46.7237      46.7237      46.7237 
  263000    113.16141   -8174.8031    -7486.348   -547.24319     102002.7      46.7237      46.7237      46.7237 
  264000    110.58136   -8179.7093   -7506.9507   -666.51663     102002.7      46.7237      46.7237      46.7237 
  265000    108.86439   -8175.8665   -7513.5537    -845.1232     102002.7      46.7237      46.7237      46.7237 
  266000     108.3911   -8158.4024   -7498.9691   -770.33012     102002.7      46.7237      46.7237      46.7237 
  267000    110.41395   -8165.5441    -7493.804   -791.80215     102002.7      46.7237      46.7237      46.7237 
  268000    112.13946   -8157.1431   -7474.9054   -553.20316     102002.7      46.7237      46.7237      46.7237 
  269000    111.18862   -8150.9801    -7474.527   -547.17006     102002.7      46.7237      46.7237      46.7237 
  270000    110.36668   -8157.7141   -7486.2616   -620.93674     102002.7      46.7237      46.7237      46.7237 
  271000    112.23611   -8178.5621   -7495.7363   -903.88195     102002.7      46.7237      46.7237      46.7237 
  272000      110.888   -8153.5526   -7478.9285   -740.24217     102002.7      46.7237      46.7237      46.7237 
  273000    110.17112    -8196.881   -7526.6182   -833.82755     102002.7      46.7237      46.7237      46.7237 
  274000    109.02588   -8151.2903   -7487.9951   -788.43391     102002.7      46.7237      46.7237      46.7237 
  275000    108.74504   -8171.7621   -7510.1754   -923.58191     102002.7      46.7237      46.7237      46.7237 
  276000    112.26192   -8175.0887   -7492.1059   -779.12636     102002.7      46.7237      46.7237      46.7237 
  277000    110.08756   -8153.6361   -7483.8818   -656.74734     102002.7      46.7237      46.7237      46.7237 
  278000    106.51516   -8153.9793   -7505.9588   -903.86005     102002.7      46.7237      46.7237      46.7237 
  279000    110.89284   -8150.8355    -7476.182   -793.15772     102002.7      46.7237      46.7237      46.7237 
  280000    111.66468   -8169.4316   -7490.0823   -799.34104     102002.7      46.7237      46.7237      46.7237 
  281000    111.25977   -8160.4218   -7483.5359   -762.24284     102002.7      46.7237      46.7237      46.7237 
  282000    108.56659   -8145.3599   -7484.8589   -642.27936     102002.7      46.7237      46.7237      46.7237 
  283000    109.07653   -8164.3381   -7500.7347   -523.21725     102002.7      46.7237      46.7237      46.7237 
  284000    106.16821   -8154.0836   -7508.1739   -964.83025     102002.7      46.7237      46.7237      46.7237 
  285000    110.41432   -8150.0812   -7478.3389   -691.32042     102002.7      46.7237      46.7237      46.7237 
  286000    108.73917   -8164.2328   -7502.6818   -1079.8114     102002.7      46.7237      46.7237      46.7237 
  287000    111.20242   -8158.6205   -7482.0835   -894.67048     102002.7      46.7237      46.7237      46.7237 
  288000    108.47861   -8181.4111   -7521.4453   -428.17724     102002.7      46.7237      46.7237      46.7237 
  289000    109.35613   -8166.5797   -7501.2753   -839.72169     102002.7      46.7237      46.7237      46.7237 
  290000    112.00509   -8134.7794   -7453.3591   -675.81197     102002.7      46.7237      46.7237      46.7237 
  291000    110.64739   -8174.4419   -7501.2816   -732.91289     102002.7      46.7237      46.7237      46.7237 
  292000    107.44957   -8171.6146   -7517.9093   -721.96123     102002.7      46.7237      46.7237      46.7237 
  293000    111.06267   -8154.2963   -7478.6095    -728.6099     102002.7      46.7237      46.7237      46.7237 
  294000    112.85023   -8160.9013   -7474.3393    -474.4026     102002.7      46.7237      46.7237      46.7237 
  295000    108.93423    -8183.531   -7520.7933   -697.52045     102002.7      46.7237      46.7237      46.7237 
  296000    111.94662   -8138.4427   -7457.3781   -708.23861     102002.7      46.7237      46.7237      46.7237 
  297000     108.1069   -8134.0112   -7476.3068   -753.38067     102002.7      46.7237      46.7237      46.7237 
  298000    107.99766   -8169.4454   -7512.4056   -1019.6956     102002.7      46.7237      46.7237      46.7237 
  299000    108.53679   -8168.0887   -7507.7689   -644.75255     102002.7      46.7237      46.7237      46.7237 
  300000    110.58622   -8150.6851   -7477.8969   -861.11001     102002.7      46.7237      46.7237      46.7237 
  301000    105.62546     -8159.38   -7516.7723   -1154.7097     102002.7      46.7237      46.7237      46.7237 
  302000    109.42487   -8165.6939   -7499.9712   -725.95297     102002.7      46.7237      46.7237      46.7237 
  303000     110.0567   -8138.5651   -7468.9985   -975.84744     102002.7      46.7237      46.7237      46.7237 
  304000    109.22679   -8165.6529   -7501.1353   -636.31568     102002.7      46.7237      46.7237      46.7237 
  305000    109.60304   -8150.2142   -7483.4075   -739.84686     102002.7      46.7237      46.7237      46.7237 
  306000    109.70064    -8143.513   -7476.1126   -728.34177     102002.7      46.7237      46.7237      46.7237 
  307000    110.68754    -8118.566   -7445.1614   -532.04249     102002.7      46.7237      46.7237      46.7237 
  308000    109.75312   -8160.0098   -7492.2901   -911.81643     102002.7      46.7237      46.7237      46.7237 
  309000    107.83611   -8164.7253   -7508.6684   -1021.8076     102002.7      46.7237      46.7237      46.7237 
  310000    111.20138   -8164.7716   -7488.2409     -857.186     102002.7      46.7237      46.7237      46.7237 
  311000    109.33521   -8157.9724   -7492.7952   -617.31194     102002.7      46.7237      46.7237      46.7237 
  312000    108.44366   -8129.3827   -7469.6295   -772.23642     102002.7      46.7237      46.7237      46.7237 
  313000    110.02515   -8164.9459   -7495.5712    -1010.342     102002.7      46.7237      46.7237      46.7237 
  314000    109.74923   -8177.6196   -7509.9236    -745.5083     102002.7      46.7237      46.7237      46.7237 
  315000    109.00528   -8173.0952   -7509.9252   -1087.4847     102002.7      46.7237      46.7237      46.7237 
  316000    112.20697    -8158.361   -7475.7125   -741.03665     102002.7      46.7237      46.7237      46.7237 
  317000    110.04084   -8176.1691   -7506.6989    -689.8982     102002.7      46.7237      46.7237      46.7237 
  318000     109.6442   -8178.6211    -7511.564   -600.13417     102002.7      46.7237      46.7237      46.7237 
  319000    109.31485   -8162.5769   -7497.5236   -793.69798     102002.7      46.7237      46.7237      46.7237 
  320000    110.48435   -8160.4812   -7488.3128   -796.93942     102002.7      46.7237      46.7237      46.7237 
  321000    107.68379    -8154.712   -7499.5818    -771.9957     102002.7      46.7237      46.7237      46.7237 
  322000    107.19315   -8165.7149   -7513.5696    -901.2444     102002.7      46.7237      46.7237      46.7237 
  323000    110.88014    -8183.057   -7508.4807   -822.30633     102002.7      46.7237      46.7237      46.7237 
  324000    109.72706   -8172.3926   -7504.8314   -729.44311     102002.7      46.7237      46.7237      46.7237 
  325000    112.89304   -8137.1029   -7450.2805   -624.25185     102002.7      46.7237      46.7237      46.7237 
  326000       109.85   -8147.1424   -7478.8334   -536.66444     102002.7      46.7237      46.7237      46.7237 
  327000    109.98619   -8148.9343   -7479.7966   -757.36619     102002.7      46.7237      46.7237      46.7237 
  328000    112.76289   -8159.5423   -7473.5117   -898.85684     102002.7      46.7237      46.7237      46.7237 
  329000    110.11705   -8168.3743   -7498.4405   -1035.4068     102002.7      46.7237      46.7237      46.7237 
  330000    108.24081   -8156.3687   -7497.8496   -651.59222     102002.7      46.7237      46.7237      46.7237 
  331000    109.52364   -8168.9803   -7502.6567   -725.14021     102002.7      46.7237      46.7237      46.7237 
  332000     110.4115   -8150.2981   -7478.5729   -1077.5613     102002.7      46.7237      46.7237      46.7237 
  333000    109.21953    -8147.619   -7483.1456   -1202.0095     102002.7      46.7237      46.7237      46.7237 
  334000    110.76083   -8155.5926   -7481.7422   -1062.5084     102002.7      46.7237      46.7237      46.7237 
  335000    110.06417   -8157.6836   -7488.0715   -1042.2262     102002.7      46.7237      46.7237      46.7237 
  336000    110.67688   -8141.0783   -7467.7386   -887.56961     102002.7      46.7237      46.7237      46.7237 
  337000     108.7965   -8155.6853   -7493.7855   -947.14226     102002.7      46.7237      46.7237      46.7237 
  338000    110.58777   -8149.6001   -7476.8025   -802.72119     102002.7      46.7237      46.7237      46.7237 
  339000    109.33495   -8129.5624   -7464.3868   -791.14064     102002.7      46.7237      46.7237      46.7237 
  340000    116.22317   -8171.0002   -7463.9178   -819.89266     102002.7      46.7237      46.7237      46.7237 
  341000    112.58449   -8158.0116   -7473.0663   -1071.0419     102002.7      46.7237      46.7237      46.7237 
  342000    110.89609   -8155.4673    -7480.794   -763.89869     102002.7      46.7237      46.7237      46.7237 
  343000    107.42215   -8100.8818   -7447.3433   -836.88805     102002.7      46.7237      46.7237      46.7237 
  344000    110.31415   -8144.2732   -7473.1403   -877.53297     102002.7      46.7237      46.7237      46.7237 
  345000    109.23545   -8157.6462   -7493.0759   -911.45632     102002.7      46.7237      46.7237      46.7237 
  346000    110.06396    -8140.232   -7470.6212   -967.70704     102002.7      46.7237      46.7237      46.7237 
  347000    109.51625   -8145.2271   -7478.9485   -1039.1418     102002.7      46.7237      46.7237      46.7237 
  348000    111.32439   -8151.9847   -7474.7057   -1084.3785     102002.7      46.7237      46.7237      46.7237 
  349000    110.13444   -8176.0303   -7505.9908   -825.81999     102002.7      46.7237      46.7237      46.7237 
  350000    111.34354   -8155.5712   -7478.1757   -676.68347     102002.7      46.7237      46.7237      46.7237 
  351000    109.78662   -8159.3554   -7491.4318   -1028.5397     102002.7      46.7237      46.7237      46.7237 
  352000     113.2436   -8161.2304   -7472.2752   -549.05519     102002.7      46.7237      46.7237      46.7237 
  353000    105.31423   -8153.4681   -7512.7539    -636.1916     102002.7      46.7237      46.7237      46.7237 
  354000    108.23621   -8141.4812   -7482.9902   -734.31895     102002.7      46.7237      46.7237      46.7237 
  355000    112.30288   -8192.3759   -7509.1439   -742.88562     102002.7      46.7237      46.7237      46.7237 
  356000    110.07457   -8172.9319   -7503.2566   -550.85205     102002.7      46.7237      46.7237      46.7237 
  357000    113.07924   -8148.2937   -7460.3385   -745.38774     102002.7      46.7237      46.7237      46.7237 
  358000    108.08749   -8171.2843    -7513.698   -605.79627     102002.7      46.7237      46.7237      46.7237 
  359000    107.46943   -8168.7867   -7514.9606   -740.08621     102002.7      46.7237      46.7237      46.7237 
  360000    111.00715   -8165.8579   -7490.5089   -733.15985     102002.7      46.7237      46.7237      46.7237 
  361000    110.18558   -8178.0322   -7507.6815   -973.31783     102002.7      46.7237      46.7237      46.7237 
  362000    108.38254   -8157.7854   -7498.4041   -1083.9657     102002.7      46.7237      46.7237      46.7237 
  363000    114.15218   -8161.2914   -7466.8086   -741.90357     102002.7      46.7237      46.7237      46.7237 
  364000    109.26988   -8170.5654   -7505.7857   -835.81402     102002.7      46.7237      46.7237      46.7237 
  365000    109.80671   -8142.2617    -7474.216   -732.31952     102002.7      46.7237      46.7237      46.7237 
  366000    104.34405   -8164.4168    -7529.605   -917.04732     102002.7      46.7237      46.7237      46.7237 
  367000    109.57025   -8151.2371     -7484.63   -1140.1942     102002.7      46.7237      46.7237      46.7237 
  368000    112.81211   -8177.9036   -7491.5735   -852.16088     102002.7      46.7237      46.7237      46.7237 
  369000    109.05259   -8155.0975   -7491.6397   -849.47032     102002.7      46.7237      46.7237      46.7237 
  370000    111.53252   -8156.3862   -7477.8409   -642.58491     102002.7      46.7237      46.7237      46.7237 
  371000    111.67808   -8174.6579   -7495.2271    -888.2757     102002.7      46.7237      46.7237      46.7237 
  372000    113.19032   -8154.9758   -7466.3448   -1089.2601     102002.7      46.7237      46.7237      46.7237 
  373000    109.36413   -8151.6458   -7486.2927   -830.39515     102002.7      46.7237      46.7237      46.7237 
  374000    107.61283   -8158.9384   -7504.2398   -910.34235     102002.7      46.7237      46.7237      46.7237 
  375000    110.53507   -8159.7496   -7487.2726   -996.61079     102002.7      46.7237      46.7237      46.7237 
  376000    109.60872   -8172.3811     -7505.54   -669.75572     102002.7      46.7237      46.7237      46.7237 
  377000    106.05997   -8179.6833   -7534.4321   -826.52419     102002.7      46.7237      46.7237      46.7237 
  378000    107.64185   -8169.7416   -7514.8665   -576.17345     102002.7      46.7237      46.7237      46.7237 
  379000    110.35609   -8155.8204   -7484.4323   -936.61972     102002.7      46.7237      46.7237      46.7237 
  380000     109.1842    -8143.977   -7479.7185   -774.87649     102002.7      46.7237      46.7237      46.7237 
  381000     113.0116   -8173.1152   -7485.5715   -655.98718     102002.7      46.7237      46.7237      46.7237 
  382000    111.10138   -8148.9477   -7473.0254   -1030.9081     102002.7      46.7237      46.7237      46.7237 
  383000     112.0521   -8163.1422   -7481.4359   -713.21544     102002.7      46.7237      46.7237      46.7237 
  384000    110.17745   -8167.1954   -7496.8942   -744.07973     102002.7      46.7237      46.7237      46.7237 
  385000    114.29282   -8157.3894    -7462.051   -902.32997     102002.7      46.7237      46.7237      46.7237 
  386000    108.17718   -8173.6824   -7515.5505   -835.89738     102002.7      46.7237      46.7237      46.7237 
  387000    112.81883   -8125.1829   -7438.8119   -860.23058     102002.7      46.7237      46.7237      46.7237 
  388000    109.09129   -8156.4141   -7492.7209   -654.68441     102002.7      46.7237      46.7237      46.7237 
  389000    114.93795   -8137.4296   -7438.1663   -839.35101     102002.7      46.7237      46.7237      46.7237 
  390000    108.71012   -8189.2583   -7527.8841   -454.69878     102002.7      46.7237      46.7237      46.7237 
  391000      110.065   -8160.0557   -7490.4386   -538.38238     102002.7      46.7237      46.7237      46.7237 
  392000    112.43615   -8194.1058    -7510.063   -627.54701     102002.7      46.7237      46.7237      46.7237 
  393000    112.52822   -8140.5096   -7455.9066   -856.49028     102002.7      46.7237      46.7237      46.7237 
  394000    107.55634   -8175.8326   -7521.4778   -764.24877     102002.7      46.7237      46.7237      46.7237 
  395000    110.98943   -8188.5711   -7513.3299   -664.80794     102002.7      46.7237      46.7237      46.7237 
  396000    113.79432   -8167.6198   -7475.3141   -505.76148     102002.7      46.7237      46.7237      46.7237 
  397000    106.44051   -8162.8031   -7515.2368   -653.27939     102002.7      46.7237      46.7237      46.7237 
  398000    112.50858   -8153.9542   -7469.4707   -479.57343     102002.7      46.7237      46.7237      46.7237 
  399000    108.58106   -8173.7423   -7513.1532   -947.19454     102002.7      46.7237      46.7237      46.7237 
  400000    109.50594    -8169.925   -7503.7091   -839.58771     102002.7      46.7237      46.7237      46.7237 
  401000    108.70044   -8170.3838   -7509.0685   -686.90252     102002.7      46.7237      46.7237      46.7237 
  402000    107.58916   -8156.3602   -7501.8057   -601.34785     102002.7      46.7237      46.7237      46.7237 
  403000    113.32849   -8170.2152   -7480.7435   -530.22104     102002.7      46.7237      46.7237      46.7237 
  404000    111.77354   -8180.9485   -7500.9369   -1014.5263     102002.7      46.7237      46.7237      46.7237 
  405000    107.45079   -8164.9497    -7511.237   -676.41536     102002.7      46.7237      46.7237      46.7237 
  406000     107.9953   -8143.0533   -7486.0279   -799.20791     102002.7      46.7237      46.7237      46.7237 
  407000    113.32235   -8173.2877   -7483.8535   -647.36589     102002.7      46.7237      46.7237      46.7237 
  408000    104.77202   -8166.4959   -7529.0803   -729.14321     102002.7      46.7237      46.7237      46.7237 
  409000    106.80098   -8153.3574    -7503.598   -692.98848     102002.7      46.7237      46.7237      46.7237 
  410000    110.92385   -8143.7046   -7468.8624   -777.08079     102002.7      46.7237      46.7237      46.7237 
  411000     110.0506   -8161.8029   -7492.2734   -827.84621     102002.7      46.7237      46.7237      46.7237 
  412000     112.2739   -8172.4281   -7489.3724   -691.48903     102002.7      46.7237      46.7237      46.7237 
  413000    113.57855   -8141.6661   -7450.6732   -700.64168     102002.7      46.7237      46.7237      46.7237 
  414000    107.77834    -8173.965   -7518.2596   -830.34207     102002.7      46.7237      46.7237      46.7237 
  415000    111.44595   -8151.1578   -7473.1392   -779.02451     102002.7      46.7237      46.7237      46.7237 
  416000     111.8484   -8136.7902   -7456.3232   -829.71093     102002.7      46.7237      46.7237      46.7237 
  417000    108.87939   -8144.4712   -7482.0672   -787.75516     102002.7      46.7237      46.7237      46.7237 
  418000     108.2887    -8146.394   -7487.5836   -992.37031     102002.7      46.7237      46.7237      46.7237 
  419000    107.16998   -8167.4441   -7515.4397   -1040.3048     102002.7      46.7237      46.7237      46.7237 
  420000    109.16034   -8131.1724   -7467.0591    -1014.275     102002.7      46.7237      46.7237      46.7237 
  421000    109.52459   -8155.3181   -7488.9888   -769.56653     102002.7      46.7237      46.7237      46.7237 
  422000    108.10154   -8165.0563   -7507.3845   -971.67076     102002.7      46.7237      46.7237      46.7237 
  423000    111.72272   -8149.3489   -7469.6464   -1122.2991     102002.7      46.7237      46.7237      46.7237 
  424000    108.26794   -8159.1816   -7500.4975   -969.93913     102002.7      46.7237      46.7237      46.7237 
  425000    107.97744   -8179.3243   -7522.4075   -741.12762     102002.7      46.7237      46.7237      46.7237 
  426000    109.62499   -8146.1661    -7479.226    -854.3576     102002.7      46.7237      46.7237      46.7237 
  427000    111.08002   -8184.4701   -7508.6778   -1013.4318     102002.7      46.7237      46.7237      46.7237 
  428000    108.44192    -8140.785   -7481.0425   -795.16969     102002.7      46.7237      46.7237      46.7237 
  429000    108.05633   -8144.6917    -7487.295   -950.86241     102002.7      46.7237      46.7237      46.7237 
  430000     112.7088   -8162.7113   -7477.0097   -639.23417     102002.7      46.7237      46.7237      46.7237 
  431000    108.60543   -8156.0726   -7495.3353   -808.16434     102002.7      46.7237      46.7237      46.7237 
  432000    109.35357   -8165.3162   -7500.0273    -736.1368     102002.7      46.7237      46.7237      46.7237 
  433000    102.69864   -8153.0101   -7528.2087   -977.11175     102002.7      46.7237      46.7237      46.7237 
  434000    109.27947   -8170.2503   -7505.4122   -1028.3784     102002.7      46.7237      46.7237      46.7237 
  435000    110.71067   -8125.9494   -7452.4041   -513.37812     102002.7      46.7237      46.7237      46.7237 
  436000    107.80976   -8185.4976    -7529.601   -629.52212     102002.7      46.7237      46.7237      46.7237 
  437000    109.35401   -8157.4438   -7492.1522   -848.82661     102002.7      46.7237      46.7237      46.7237 
  438000    110.32633   -8159.0289   -7487.8219   -796.09918     102002.7      46.7237      46.7237      46.7237 
  439000    110.25147   -8157.3282   -7486.5767   -910.55119     102002.7      46.7237      46.7237      46.7237 
  440000    109.76366   -8179.8491   -7512.0653   -700.75908     102002.7      46.7237      46.7237      46.7237 
  441000    108.73684   -8179.0277   -7517.4909   -1022.5353     102002.7      46.7237      46.7237      46.7237 
  442000    107.99284   -8152.8103   -7495.7999    -816.1956     102002.7      46.7237      46.7237      46.7237 
  443000    108.35396   -8177.5258   -7518.3184   -753.27031     102002.7      46.7237      46.7237      46.7237 
  444000     107.3637   -8181.5325   -7528.3496   -680.20085     102002.7      46.7237      46.7237      46.7237 
  445000    109.30293   -8187.3209     -7522.34   -588.10572     102002.7      46.7237      46.7237      46.7237 
  446000     109.3881   -8155.3907   -7489.8918    -924.5987     102002.7      46.7237      46.7237      46.7237 
  447000    106.79005   -8175.9949    -7526.302    -1048.346     102002.7      46.7237      46.7237      46.7237 
  448000    109.94152   -8169.5062   -7500.6403   -702.52456     102002.7      46.7237      46.7237      46.7237 
  449000    111.35738   -8140.2769   -7462.7972   -605.08703     102002.7      46.7237      46.7237      46.7237 
  450000    111.07768   -8169.7061    -7493.928   -638.03126     102002.7      46.7237      46.7237      46.7237 
  451000    107.49851   -8177.4305   -7523.4274    -792.9361     102002.7      46.7237      46.7237      46.7237 
  452000    111.03245   -8181.1019    -7505.599   -821.39494     102002.7      46.7237      46.7237      46.7237 
  453000    109.24668   -8163.4392   -7498.8006   -777.65472     102002.7      46.7237      46.7237      46.7237 
  454000      109.617   -8152.0387   -7485.1471    -710.4714     102002.7      46.7237      46.7237      46.7237 
  455000    106.06963   -8173.5687   -7528.2587   -893.65552     102002.7      46.7237      46.7237      46.7237 
  456000    112.14099   -8162.4517   -7480.2046   -584.77026     102002.7      46.7237      46.7237      46.7237 
  457000    107.59078   -8163.0987   -7508.5343    -709.9578     102002.7      46.7237      46.7237      46.7237 
  458000    108.73053   -8187.1806   -7525.6822   -854.96529     102002.7      46.7237      46.7237      46.7237 
  459000    110.07861   -8160.4453   -7490.7454   -238.03937     102002.7      46.7237      46.7237      46.7237 
  460000    106.91567    -8163.942   -7513.4849     -792.805     102002.7      46.7237      46.7237      46.7237 
  461000    109.34888   -8161.2309   -7495.9706   -708.12144     102002.7      46.7237      46.7237      46.7237 
  462000    109.81626   -8181.2825   -7513.1786   -727.38742     102002.7      46.7237      46.7237      46.7237 
  463000    109.66318   -8156.7662   -7489.5938   -567.59833     102002.7      46.7237      46.7237      46.7237 
  464000    110.86931   -8158.0619   -7483.5515    -464.7325     102002.7      46.7237      46.7237      46.7237 
  465000    110.95083    -8158.861   -7483.8547   -751.65047     102002.7      46.7237      46.7237      46.7237 
  466000     109.4717   -8161.8262   -7495.8186   -679.07636     102002.7      46.7237      46.7237      46.7237 
  467000     111.1036   -8148.2177   -7472.2819   -974.54161     102002.7      46.7237      46.7237      46.7237 
  468000    111.40754   -8162.5708    -7484.786   -790.10208     102002.7      46.7237      46.7237      46.7237 
  469000    108.22904   -8182.3834    -7523.936   -727.78867     102002.7      46.7237      46.7237      46.7237 
  470000    108.20578    -8161.988   -7503.6821   -943.25707     102002.7      46.7237      46.7237      46.7237 
  471000    108.47511   -8171.3861   -7511.4416   -745.47162     102002.7      46.7237      46.7237      46.7237 
  472000     112.6666   -8156.9201   -7471.4753   -1018.7167     102002.7      46.7237      46.7237      46.7237 
  473000    108.45872   -8160.0845   -7500.2397   -719.06801     102002.7      46.7237      46.7237      46.7237 
  474000    109.98086   -8142.2716   -7473.1664   -890.79405     102002.7      46.7237      46.7237      46.7237 
  475000    111.49371   -8177.7879   -7499.4788   -889.65791     102002.7      46.7237      46.7237      46.7237 
  476000    108.60059   -8156.3155   -7495.6076   -554.69738     102002.7      46.7237      46.7237      46.7237 
  477000    109.91534   -8143.5665   -7474.8599   -1139.9355     102002.7      46.7237      46.7237      46.7237 
  478000     113.1215   -8159.0393   -7470.8269   -709.70274     102002.7      46.7237      46.7237      46.7237 
  479000    110.94709   -8157.5963   -7482.6126   -494.92734     102002.7      46.7237      46.7237      46.7237 
  480000    111.63422   -8173.7829   -7494.6189   -853.19596     102002.7      46.7237      46.7237      46.7237 
  481000    111.39717   -8153.4664   -7475.7446   -568.05812     102002.7      46.7237      46.7237      46.7237 
  482000    109.86095   -8149.9879   -7481.6121   -723.71656     102002.7      46.7237      46.7237      46.7237 
  483000    110.39991   -8182.3778   -7510.7232    -656.9176     102002.7      46.7237      46.7237      46.7237 
  484000     109.2972   -8170.1626   -7505.2166   -696.56429     102002.7      46.7237      46.7237      46.7237 
  485000    111.95326   -8161.8486   -7480.7436   -1059.3305     102002.7      46.7237      46.7237      46.7237 
  486000    108.37447   -8155.6739   -7496.3417   -553.35014     102002.7      46.7237      46.7237      46.7237 
  487000     108.7842   -8181.8318   -7520.0069   -520.66813     102002.7      46.7237      46.7237      46.7237 
  488000    108.32022   -8144.0864   -7485.0842   -486.88859     102002.7      46.7237      46.7237      46.7237 
  489000     108.8673   -8178.8296   -7516.4991   -735.59176     102002.7      46.7237      46.7237      46.7237 
  490000    108.28309   -8159.7571   -7500.9808   -827.64409     102002.7      46.7237      46.7237      46.7237 
  491000    110.76044   -8181.2459   -7507.3978   -663.43604     102002.7      46.7237      46.7237      46.7237 
  492000    109.91805   -8172.3104   -7503.5873     -1030.81     102002.7      46.7237      46.7237      46.7237 
  493000    108.87918   -8137.8108    -7475.408   -830.51076     102002.7      46.7237      46.7237      46.7237 
  494000    111.69229   -8160.5159   -7480.9986   -575.82853     102002.7      46.7237      46.7237      46.7237 
  495000    111.56942   -8170.6295   -7491.8597   -833.12117     102002.7      46.7237      46.7237      46.7237 
  496000     108.6445   -8162.3917   -7501.4167   -931.77343     102002.7      46.7237      46.7237      46.7237 
  497000    110.87937   -8166.1229   -7491.5513   -869.58772     102002.7      46.7237      46.7237      46.7237 
  498000    106.44008   -8190.2721   -7542.7084   -746.50709     102002.7      46.7237      46.7237      46.7237 
  499000     114.7348   -8162.6164    -7464.589   -528.13583     102002.7      46.7237      46.7237      46.7237 
  500000    112.87776   -8167.4368   -7480.7073   -756.05831     102002.7      46.7237      46.7237      46.7237 
  500501    113.02088     -8166.65   -7479.0498   -487.98275     102002.7      46.7237      46.7237      46.7237 
Loop time of 646.579 on 24 procs for 500000 steps with 2042 atoms

Performance: 66.813 ns/day, 0.359 hours/ns, 773.300 timesteps/s
99.6% CPU use with 24 MPI tasks x no OpenMP threads

MPI task timing breakdown:
Section |  min time  |  avg time  |  max time  |%varavg| %total
---------------------------------------------------------------
Pair    | 179.97     | 308.06     | 436.26     | 411.0 | 47.64
Bond    | 55.942     | 78.591     | 94.842     | 133.0 | 12.15
Neigh   | 3.3951     | 3.4229     | 3.4401     |   0.8 |  0.53
Comm    | 104.9      | 248.53     | 386.33     | 507.4 | 38.44
Output  | 0.36865    | 0.36897    | 0.37262    |   0.1 |  0.06
Modify  | 3.7308     | 4.1623     | 4.4868     |  11.4 |  0.64
Other   |            | 3.44       |            |       |  0.53

Nlocal:    85.0833 ave 118 max 54 min
Histogram: 2 2 3 2 4 3 4 0 2 2
Nghost:    2319.79 ave 2477 max 2217 min
Histogram: 6 6 4 0 0 0 0 0 3 5
Neighs:    7638.71 ave 11087 max 4603 min
Histogram: 3 1 5 3 2 1 3 1 1 4

Total # of neighbors = 183329
Ave neighs/atom = 89.7791
Ave special neighs/atom = 5.64153
Neighbor list builds = 4306
Dangerous builds = 0
Neighbor list info ...
  update every 1 steps, delay 10 steps, check yes
  max neighbors/atom: 2000, page size: 100000
  master list distance cutoff = 16
  ghost atom cutoff = 16
  binsize = 8, bins = 6 6 6
  3 neighbor lists, perpetual/occasional/extra = 3 0 0
  (1) pair buck6d/coul/gauss/dsf, perpetual, skip from (3)
      attributes: half, newton on
      pair build: skip
      stencil: none
      bin: none
  (2) pair lj/cut, perpetual, skip from (3)
      attributes: half, newton on
      pair build: skip
      stencil: none
      bin: none
  (3) neighbor class addition, perpetual
      attributes: half, newton on
      pair build: half/bin/newton
      stencil: half/bin/3d/newton
      bin: standard
Setting up Verlet run ...
  Unit style    : real
  Current step  : 500501
  Time step     : 1
WARNING: Inconsistent image flags (../domain.cpp:786)
Per MPI rank memory allocation (min/avg/max) = 23.96 | 24.49 | 24.6 Mbytes
Step Time TotEng KinEng PotEng E_mol E_pair Temp Pxx Pyy Pzz Pxy Pxz Pyz Cella Cellb Cellc CellAlpha CellBeta CellGamma Volume Press 
  500501       500000   -7479.0498    687.60019     -8166.65    4283.5221   -12450.172    113.02088   -701.57538     -199.725   -562.64786   -44.297296    173.13022   -82.503148      46.7237      46.7237      46.7237           90           90           90     102002.7   -487.98275 
  501000       500499   -7481.7071    664.91992    -8146.627    4326.0868   -12472.714    109.29292   -633.32795   -1104.3469   -811.39276   -174.74225   -124.42357   -108.85063      46.7237      46.7237      46.7237           90           90           90     102002.7   -849.68921 
  502000       501499   -7501.4821    663.03499   -8164.5171    4298.6142   -12463.131     108.9831   -678.50013   -526.06203    -596.5322   -136.07594   -10.396702    135.78904      46.7237      46.7237      46.7237           90           90           90     102002.7   -600.36479 
  503000       502499   -7501.6899    670.06812    -8171.758    4300.6929   -12472.451    110.13913   -991.41776   -841.07045    -1378.036    191.05268   -88.443332   -137.23397      46.7237      46.7237      46.7237           90           90           90     102002.7   -1070.1747 
  504000       503499   -7521.0555    646.91709   -8167.9726    4300.6965   -12468.669     106.3338   -749.97634   -1050.4519   -825.58096    111.07155   -27.174289    152.05461      46.7237      46.7237      46.7237           90           90           90     102002.7    -875.3364 
  505000       504499   -7484.1794    662.97263    -8147.152    4304.3103   -12451.462    108.97285   -1155.3639   -640.31427   -1022.6705   -206.55949   -221.24566    6.0453675      46.7237      46.7237      46.7237           90           90           90     102002.7   -939.44953 
  506000       505499   -7501.6515    662.90034   -8164.5518    4305.5141   -12470.066    108.96096   -1279.9312   -789.66851   -1140.3892    49.970492    138.11713   -40.004176      46.7237      46.7237      46.7237           90           90           90     102002.7   -1069.9963 
  507000       506499   -7464.8723    680.77766     -8145.65    4324.3992   -12470.049    111.89946   -436.08101   -882.27061   -976.93133   -29.645885    213.32083    334.70938      46.7237      46.7237      46.7237           90           90           90     102002.7   -765.09432 
  508000       507499   -7507.7015    643.46254   -8151.1641    4305.4141   -12456.578    105.76597   -1026.9346   -717.23365   -1081.0833   -270.67015   -226.57597   -86.740813      46.7237      46.7237      46.7237           90           90           90     102002.7   -941.75052 
  509000       508499   -7496.4331    657.43318   -8153.8663    4306.8681   -12460.734    108.06233   -592.53067   -620.16612   -1211.9733   -26.206399    62.857292     77.85997      46.7237      46.7237      46.7237           90           90           90     102002.7   -808.22335 
  510000       509499     -7492.93    667.18714   -8160.1171    4300.5285   -12460.646    109.66558   -842.76384   -803.65132   -955.51991   -197.99923   -100.79825    95.599022      46.7237      46.7237      46.7237           90           90           90     102002.7   -867.31169 
  511000       510499   -7501.4826    643.29246   -8144.7751    4324.5134   -12469.288    105.73802   -1109.4435   -1022.4807    -404.1515    128.78906    -75.30533     112.8419      46.7237      46.7237      46.7237           90           90           90     102002.7   -845.35858 
  512000       511499   -7478.3915    665.92829   -8144.3198    4324.1574   -12468.477    109.45867   -671.34421   -1094.0723   -940.27918   0.81333991   -317.30148    66.003764      46.7237      46.7237      46.7237           90           90           90     102002.7   -901.89856 
  513000       512499   -7508.7906    659.26063   -8168.0513    4324.3302   -12492.381     108.3627   -996.52534   -853.53045   -863.02961   -91.289013   -212.01733    297.22203      46.7237      46.7237      46.7237           90           90           90     102002.7    -904.3618 
  514000       513499   -7506.0213    652.70446   -8158.7258    4288.6791   -12447.405    107.28507   -431.41999   -795.76149   -1179.3883     300.3013    -286.6184    107.58791      46.7237      46.7237      46.7237           90           90           90     102002.7   -802.18993 
  515000       514499   -7490.2362     665.8817   -8156.1179     4278.897   -12435.015    109.45101    -827.5192   -927.52717   -970.15024    100.88998   -42.476006   -111.62731      46.7237      46.7237      46.7237           90           90           90     102002.7   -908.39887 
  516000       515499   -7495.1249     667.5568   -8162.6817    4305.0433   -12467.725    109.72635   -1091.9138   -819.86689   -954.98519    112.36299    27.660612     144.2096      46.7237      46.7237      46.7237           90           90           90     102002.7   -955.58861 
  517000       516499   -7466.5775    687.09698   -8153.6745    4309.9528   -12463.627    112.93817   -555.98761   -896.36844   -1162.7924   -118.43674   -76.522309    248.52132      46.7237      46.7237      46.7237           90           90           90     102002.7   -871.71617 
  518000       517499    -7500.115    657.66116   -8157.7761    4303.5633   -12461.339     108.0998   -746.72496   -418.11648   -1061.3143    38.806878   -59.789192   -137.69101      46.7237      46.7237      46.7237           90           90           90     102002.7   -742.05192 
  519000       518499   -7483.6396    657.70274   -8141.3424     4302.713   -12444.055    108.10663   -999.68113   -968.79681    -495.6073    248.14409    93.785682   -166.53917      46.7237      46.7237      46.7237           90           90           90     102002.7   -821.36175 
  520000       519499   -7483.0262    658.33626   -8141.3625     4314.165   -12455.527    108.21076   -881.11375   -1444.9026   -1137.2544   -90.970145    243.29046    -38.00958      46.7237      46.7237      46.7237           90           90           90     102002.7   -1154.4236 
  521000       520499    -7473.942    664.32826   -8138.2703    4305.6474   -12443.918    109.19567   -719.72249    -1053.018   -869.03601   -190.22727    10.326813    9.2482361      46.7237      46.7237      46.7237           90           90           90     102002.7   -880.59218 
  522000       521499   -7472.6216    667.81516   -8140.4367    4324.2424   -12464.679    109.76881   -1312.7228   -1143.2036   -930.66606    185.64668    193.78077   -88.514292      46.7237      46.7237      46.7237           90           90           90     102002.7   -1128.8642 
  523000       522499   -7474.7406    684.88258   -8159.6232    4311.4155   -12471.039    112.57418   -921.94984   -1008.1296   -740.29704   -128.16268   -73.910909   -46.672959      46.7237      46.7237      46.7237           90           90           90     102002.7    -890.1255 
  524000       523499   -7458.9603    686.01637   -8144.9766    4309.2481   -12454.225    112.76055   -959.74836   -614.11349   -662.66579   -16.290228   -120.58265   -38.452936      46.7237      46.7237      46.7237           90           90           90     102002.7   -745.50921 
  525000       524499   -7487.1264    673.34308   -8160.4695    4301.6594   -12462.129    110.67744   -737.08969   -750.04198   -1147.9998   -126.60981   -9.8853886    90.120702      46.7237      46.7237      46.7237           90           90           90     102002.7   -878.37715 
  526000       525499   -7482.4514    661.22528   -8143.6767    4306.9522   -12450.629    108.68563   -673.68595   -677.64489   -923.96194   -214.81013    87.091684    230.14385      46.7237      46.7237      46.7237           90           90           90     102002.7   -758.43093 
  527000       526499   -7453.0017    690.33045   -8143.3321    4296.9351   -12440.267    113.46965   -1207.0978   -1091.8559   -430.94461   -98.501491    5.3444116   -25.324391      46.7237      46.7237      46.7237           90           90           90     102002.7    -909.9661 
  528000       527499   -7471.0967    681.44393   -8152.5406    4286.7229   -12439.263    112.00897   -445.37415   -827.19641   -502.82032    89.813232    81.525454   -114.11627      46.7237      46.7237      46.7237           90           90           90     102002.7   -591.79696 
  529000       528499   -7497.7926    670.61284   -8168.4054    4296.3325   -12464.738    110.22867    -726.1834    -750.0985   -1072.9597    126.42785   -159.98442    47.937283      46.7237      46.7237      46.7237           90           90           90     102002.7   -849.74719 
  530000       529499   -7473.4888    685.37139   -8158.8601    4280.4347   -12439.295    112.65453   -677.98268    -1391.317   -616.97083     9.168616    8.5639571   -61.254556      46.7237      46.7237      46.7237           90           90           90     102002.7   -895.42352 
  531000       530499   -7502.9041    662.21269   -8165.1168    4301.6199   -12466.737    108.84793    -684.2819   -818.62961   -881.41531    261.41318   -153.02097    230.88757      46.7237      46.7237      46.7237           90           90           90     102002.7    -794.7756 
  532000       531499   -7500.0842    659.85569   -8159.9399    4299.1693   -12459.109    108.46051   -601.18445   -1265.1365   -813.73076   -11.061119   -153.47163   -78.853899      46.7237      46.7237      46.7237           90           90           90     102002.7   -893.35055 
  533000       532499   -7509.1634    660.42989   -8169.5933    4303.1287   -12472.722     108.5549   -265.53479   -561.23315   -723.63134   -6.4294899   -2.1043578     30.85044      46.7237      46.7237      46.7237           90           90           90     102002.7   -516.79976 
  534000       533499   -7492.6115    665.99459   -8158.6061    4296.0815   -12454.688    109.46957   -525.41606   -643.02113   -720.07576    -189.5134   -54.664269    28.448178      46.7237      46.7237      46.7237           90           90           90     102002.7   -629.50432 
  535000       534499   -7485.8063    667.34029   -8153.1466    4308.3749   -12461.522    109.69076   -730.89901   -266.38204   -510.21084     15.33472    61.585412    68.923685      46.7237      46.7237      46.7237           90           90           90     102002.7    -502.4973 
  536000       535499   -7499.7379    653.28577   -8153.0237    4310.7589   -12463.783    107.38062   -95.148672   -688.24049   -676.76896   -99.506616   -294.80456   -5.4901058      46.7237      46.7237      46.7237           90           90           90     102002.7   -486.71937 
  537000       536499   -7505.4769     658.0066   -8163.4835    4283.0187   -12446.502    108.15658   -674.62122   -615.40429   -1289.0499   -75.325802    62.169818   -97.202385      46.7237      46.7237      46.7237           90           90           90     102002.7   -859.69179 
  538000       537499   -7492.7895    661.60315   -8154.3926    4311.1193   -12465.512    108.74774   -671.05571   -614.01283   -367.30495   -148.77353    227.01597    48.421271      46.7237      46.7237      46.7237           90           90           90     102002.7   -550.79116 
  539000       538499   -7488.6082    663.86556   -8152.4737    4300.5609   -12453.035    109.11962   -490.38827   -437.71447   -802.45946     178.6298    11.539544     67.06639      46.7237      46.7237      46.7237           90           90           90     102002.7   -576.85407 
  540000       539499   -7488.6798    682.31186   -8170.9917    4285.2184    -12456.21    112.15164   -360.94644    -742.5177   -206.25472     82.98928   -33.666132   -184.20796      46.7237      46.7237      46.7237           90           90           90     102002.7   -436.57295 
  541000       540499   -7473.6198      662.827   -8136.4468     4315.101   -12451.548    108.94891   -479.24573   -926.96048   -500.14332   -33.537668    149.81782   -83.866845      46.7237      46.7237      46.7237           90           90           90     102002.7   -635.44984 
  542000       541499   -7464.1545    691.89877   -8156.0533    4300.5346   -12456.588    113.72744   -725.51805   -604.42304   -1365.3462   -142.60558    14.342043    114.46337      46.7237      46.7237      46.7237           90           90           90     102002.7   -898.42911 
  543000       542499   -7522.2197    653.08554   -8175.3053    4278.7181   -12454.023    107.34771   -957.49459   -824.12879   -302.08033   -110.82882   -24.281643    -73.97468      46.7237      46.7237      46.7237           90           90           90     102002.7    -694.5679 
  544000       543499   -7498.6996    674.09333   -8172.7929    4281.3375    -12454.13    110.80076   -667.46393     -1120.44   -1008.8667    171.78963    218.87013   -25.364112      46.7237      46.7237      46.7237           90           90           90     102002.7   -932.25688 
  545000       544499   -7475.9573    674.94064   -8150.8979    4323.2643   -12474.162    110.94003   -1046.0277   -348.94639   -1405.1094    266.80517   -68.283881    117.27279      46.7237      46.7237      46.7237           90           90           90     102002.7   -933.36118 
  546000       545499   -7506.8788    667.09622    -8173.975    4299.9175   -12473.893    109.65064   -960.67581    -934.4217   -296.01139   -11.334261   -55.215203    168.03975      46.7237      46.7237      46.7237           90           90           90     102002.7   -730.36963 
  547000       546499   -7472.2911    667.20327   -8139.4943    4321.4096   -12460.904    109.66824   -788.95356   -712.25527   -476.03037    165.41003    10.817821   -41.006866      46.7237      46.7237      46.7237           90           90           90     102002.7   -659.07973 
  548000       547499   -7483.6294    687.83275   -8171.4621    4295.1181    -12466.58    113.05911   -1334.9199   -520.23207     -752.382   -10.879927    125.29477   -200.00356      46.7237      46.7237      46.7237           90           90           90     102002.7   -869.17799 
  549000       548499    -7467.928     671.2925   -8139.2205    4321.4102   -12460.631    110.34038   -725.51692   -932.95114   -447.46785    187.70496   -54.573184    39.802861      46.7237      46.7237      46.7237           90           90           90     102002.7   -701.97864 
  550000       549499   -7511.9449    652.60052   -8164.5455    4295.7147    -12460.26    107.26798   -1209.8087   -421.67459    -66.20886    178.75937   -52.750308    72.374633      46.7237      46.7237      46.7237           90           90           90     102002.7   -565.89737 
  551000       550499   -7498.7344    661.27329   -8160.0077    4302.4461   -12462.454    108.69353   -760.86182   -794.47496   -647.53046   -47.563883    -31.12888    59.893997      46.7237      46.7237      46.7237           90           90           90     102002.7   -734.28908 
  552000       551499   -7522.3042     646.9082   -8169.2124    4291.0543   -12460.267    106.33233   -1171.5885    -356.5051   -637.27389   -187.37146    29.318114    111.55526      46.7237      46.7237      46.7237           90           90           90     102002.7   -721.78916 
  553000       552499   -7496.1272    667.46176   -8163.5889    4295.2874   -12458.876    109.71072   -641.27466   -808.10116   -1118.6125   -84.754466    46.599739   -22.661186      46.7237      46.7237      46.7237           90           90           90     102002.7    -855.9961 
  554000       553499   -7486.3759    677.59797   -8163.9738    4308.4325   -12472.406    111.37681   -945.82999   -25.287371    -946.1422    187.21345    18.578887    147.00474      46.7237      46.7237      46.7237           90           90           90     102002.7   -639.08652 
  555000       554499   -7495.5775    673.61899   -8169.1965    4282.8226   -12452.019    110.72279   -1042.3125   -783.71044   -985.49738    122.73465   -169.56221   -99.155053      46.7237      46.7237      46.7237           90           90           90     102002.7   -937.17342 
[...]
  936000       935499   -7510.0521    660.57764   -8170.6298    4291.5459   -12462.176    108.57918   -913.33906   -271.59392   -730.45379    59.435544    56.508669   -370.63204      46.7237      46.7237      46.7237           90           90           90     102002.7   -638.46226 
  937000       936499   -7485.0904    660.08342   -8145.1738    4310.2692   -12455.443    108.49795   -824.92481   -909.09824   -927.91978    41.486967    246.94695    83.927014      46.7237      46.7237      46.7237           90           90           90     102002.7   -887.31428 
  938000       937499   -7480.1704    685.24611   -8165.4165    4286.6946   -12452.111    112.63394   -718.94224   -589.51853   -895.78758    70.784745   -268.74114    167.98506      46.7237      46.7237      46.7237           90           90           90     102002.7   -734.74945 
  939000       938499   -7456.9453    685.74839   -8142.6937    4296.1285   -12438.822     112.7165   -592.69095   -1096.9709   -1012.0453       381.13   -97.206843    51.967807      46.7237      46.7237      46.7237           90           90           90     102002.7   -900.56904 
  940000       939499   -7475.8453     659.6621   -8135.5074    4310.4304   -12445.938    108.42869    -832.3138   -773.28257   -1318.7029   -141.89647    178.02761    107.76953      46.7237      46.7237      46.7237           90           90           90     102002.7   -974.76642 
  941000       940499   -7476.6151    668.67445   -8145.2895    4301.2849   -12446.574    109.91005   -537.23813   -816.03025   -1311.3658   -5.5716113    270.87074    141.40523      46.7237      46.7237      46.7237           90           90           90     102002.7   -888.21138 
  942000       941499    -7457.256    664.31582   -8121.5718    4318.6651   -12440.237    109.19363   -879.38955   -1181.6063   -1649.1585   -23.267523    101.39219   -93.952004      46.7237      46.7237      46.7237           90           90           90     102002.7   -1236.7181 
  943000       942499   -7474.5816    673.40522   -8147.9868    4291.0456   -12439.032    110.68765   -872.37273   -674.73389   -910.31372     32.28791    35.907834    226.02262      46.7237      46.7237      46.7237           90           90           90     102002.7   -819.14011 
  944000       943499   -7463.8218    678.46557   -8142.2874    4318.0721   -12460.359    111.51942   -1041.5559    -979.3747   -499.29724   -179.66074    110.31597    299.63388      46.7237      46.7237      46.7237           90           90           90     102002.7   -840.07595 
  945000       944499   -7474.2901    648.77126   -8123.0614    4332.4397   -12455.501    106.63857   -1062.7706   -844.19524   -1072.7362   -13.484431   -123.14786   -324.82861      46.7237      46.7237      46.7237           90           90           90     102002.7   -993.23402 
  946000       945499   -7495.7623    662.43904   -8158.2013    4285.0651   -12443.266    108.88514   -789.13826   -675.58845   -921.80085   -185.86832    14.389969   -145.69744      46.7237      46.7237      46.7237           90           90           90     102002.7   -795.50919 
  947000       946499   -7482.4704    666.57043   -8149.0408    4288.5738   -12437.615    109.56422   -419.27994   -681.59655   -1054.7185    64.715284   -44.186813    303.94538      46.7237      46.7237      46.7237           90           90           90     102002.7   -718.53166 
  948000       947499   -7460.1153    680.34726   -8140.4625     4295.497    -12435.96    111.82872   -636.22482   -1016.5039   -1462.6371   -162.32854   -30.580994   -117.37609      46.7237      46.7237      46.7237           90           90           90     102002.7   -1038.4553 
  949000       948499    -7500.248    671.13418   -8171.3822    4265.8333   -12437.215    110.31436   -564.87693   -678.19539   -439.20547    3.2815495    174.69504   -162.21446      46.7237      46.7237      46.7237           90           90           90     102002.7   -560.75926 
  950000       949499   -7467.7462    672.39464   -8140.1408    4313.4219   -12453.563    110.52154   -910.80593   -1165.5119   -855.47075    108.92531    71.228419    255.52453      46.7237      46.7237      46.7237           90           90           90     102002.7   -977.26284 
  951000       950499   -7495.1126    675.26198   -8170.3746    4277.6623   -12448.037    110.99285   -1149.4601   -900.75426   -1238.1322    61.604448    195.91185    354.97183      46.7237      46.7237      46.7237           90           90           90     102002.7   -1096.1155 
  952000       951499   -7479.0327    671.71529    -8150.748    4297.2666   -12448.015    110.40988   -843.34898   -446.91716   -834.47811     253.7904   -17.487325    65.463464      46.7237      46.7237      46.7237           90           90           90     102002.7   -708.24809 
  953000       952499   -7482.2778    662.19001   -8144.4678    4310.8347   -12455.303    108.84421   -1086.7027   -1036.3931   -682.81627   -34.432367    147.88166   -4.7128355      46.7237      46.7237      46.7237           90           90           90     102002.7   -935.30404 
  954000       953499   -7485.5752    648.62266   -8134.1979    4309.8398   -12444.038    106.61414   -728.73934   -1036.9127    -1034.197   -232.67491    70.298053    74.425778      46.7237      46.7237      46.7237           90           90           90     102002.7   -933.28301 
  955000       954499   -7470.6628    688.30576   -8158.9686    4303.2849   -12462.254    113.13685   -840.15985   -995.39511    -680.0562    85.530246   -12.872805   -225.98007      46.7237      46.7237      46.7237           90           90           90     102002.7   -838.53705 
  956000       955499   -7497.8839    664.41014   -8162.2941    4282.7869   -12445.081    109.20913   -543.32718   -945.98313   -859.45859    100.89727    154.02006    163.44968      46.7237      46.7237      46.7237           90           90           90     102002.7   -782.92297 
  957000       956499   -7501.5001    678.43385   -8179.9339    4270.6468   -12450.581    111.51421   -861.96125   -684.38947   -797.59276     84.40346   0.66720033   -50.159497      46.7237      46.7237      46.7237           90           90           90     102002.7   -781.31449 
  958000       957499   -7470.5079    666.60874   -8137.1166    4327.1591   -12464.276    109.57051   -598.21501   -565.60437   -194.90121    -80.89548   -105.92783   -176.30819      46.7237      46.7237      46.7237           90           90           90     102002.7   -452.90687 
  959000       958499   -7470.0337    665.84615   -8135.8799    4331.6914   -12467.571    109.44517   -734.56556   -676.32264   -322.99083    -83.54284    14.126412   -170.44618      46.7237      46.7237      46.7237           90           90           90     102002.7   -577.95968 
  960000       959499   -7485.1743    660.34735   -8145.5216    4310.6918   -12456.213    108.54133   -504.08975   -683.72387   -241.43437   -330.12656    25.836101    171.94764      46.7237      46.7237      46.7237           90           90           90     102002.7     -476.416 
  961000       960499   -7495.1774     663.1689   -8158.3463    4295.4339    -12453.78    109.00511    -389.7618   -458.31532   -604.78599   -143.25402   -79.063086   -48.070946      46.7237      46.7237      46.7237           90           90           90     102002.7   -484.28771 
  962000       961499   -7499.5945    648.12724   -8147.7217    4291.5308   -12439.253    106.53271   -663.90317   -155.98801     -669.327    415.56154   -119.78861    -130.7202      46.7237      46.7237      46.7237           90           90           90     102002.7   -496.40606 
  963000       962499   -7473.9852    678.47773   -8152.4629    4286.3401   -12438.803    111.52142   -1066.3642   -867.80079   -284.40836    212.11655   -298.11163    127.57922      46.7237      46.7237      46.7237           90           90           90     102002.7   -739.52445 
  964000       963499   -7500.4169    662.62953   -8163.0464    4305.2999   -12468.346    108.91645   -240.93359   -652.19433    -210.6156    288.28844    370.00635    99.453206      46.7237      46.7237      46.7237           90           90           90     102002.7    -367.9145 
  965000       964499    -7509.416    658.65088   -8168.0669    4288.7993   -12456.866    108.26248     -921.325   -437.38189    -1146.573  -0.96964009    -181.1384   -232.07626      46.7237      46.7237      46.7237           90           90           90     102002.7   -835.09331 
  966000       965499   -7493.8801    650.72036   -8144.6004    4322.4467   -12467.047    106.95894   -566.41139   -923.27567   -948.82192    39.076479   -263.83299   -72.806339      46.7237      46.7237      46.7237           90           90           90     102002.7   -812.83633 
  967000       966499   -7486.8401    657.66991     -8144.51    4286.7239   -12431.234    108.10124   -800.34255   -890.39474   -813.07755    176.08248    -15.96904   -80.343471      46.7237      46.7237      46.7237           90           90           90     102002.7   -834.60495 
  968000       967499   -7482.7285     674.6233   -8157.3518    4306.1547   -12463.506    110.88787     -1399.88   -659.92129   -792.60878   -77.910547   -184.03176    25.127533      46.7237      46.7237      46.7237           90           90           90     102002.7   -950.80336 
  969000       968499   -7476.0178    673.94197   -8149.9597    4306.9999    -12456.96    110.77588   -870.05455   -289.60024    34.532541    -145.8649   -46.159411    -118.7576      46.7237      46.7237      46.7237           90           90           90     102002.7   -375.04075 
  970000       969499   -7493.0057     665.6747   -8158.6804    4298.2198     -12456.9    109.41699    -660.6343   -957.45149   -889.05138    91.999121    81.467864   -120.09357      46.7237      46.7237      46.7237           90           90           90     102002.7   -835.71239 
  971000       970499    -7470.867    666.68537   -8137.5524    4308.9355   -12446.488    109.58311   -1198.1855   -944.17895   -213.43927    -27.11533   -244.34535    12.838766      46.7237      46.7237      46.7237           90           90           90     102002.7    -785.2679 
  972000       971499   -7520.0364    671.27895   -8191.3154     4276.899   -12468.214    110.33816    -970.6335   -616.83779   -1056.3513    136.31768    20.166528   -3.6452785      46.7237      46.7237      46.7237           90           90           90     102002.7    -881.2742 
  973000       972499   -7471.5521    668.22859   -8139.7807    4321.4657   -12461.246    109.83677   -1058.0174   -1097.8451   -931.93864    5.7685337    126.60268   -230.11225      46.7237      46.7237      46.7237           90           90           90     102002.7    -1029.267 
  974000       973499   -7490.9203    662.18341   -8153.1037    4310.9862    -12464.09    108.84312   -752.84868   -974.83053   -912.38686   -3.1863983    121.62065    10.951572      46.7237      46.7237      46.7237           90           90           90     102002.7   -880.02202 
  975000       974499   -7519.7747     634.2494   -8154.0241    4300.2734   -12454.298    104.25161   -1230.1147   -865.68522   -1171.8017    383.27294    125.45906    -280.4025      46.7237      46.7237      46.7237           90           90           90     102002.7   -1089.2006 
  976000       975499   -7481.4059    668.23965   -8149.6456    4304.3083   -12453.954    109.83859   -901.09443   -898.39959    -1227.741    45.566953    -69.45329   -291.69582      46.7237      46.7237      46.7237           90           90           90     102002.7   -1009.0783 
  977000       976499   -7455.5976    685.94955   -8141.5471    4308.6754   -12450.223    112.74956   -734.68689   -903.89732    -437.7595   -104.89525   -42.756972    67.326073      46.7237      46.7237      46.7237           90           90           90     102002.7   -692.11457 
  978000       977499   -7451.4293    687.94652   -8139.3759    4311.0415   -12450.417    113.07781   -970.54006   -875.53393   -924.95179    257.47203    157.70618    168.54972      46.7237      46.7237      46.7237           90           90           90     102002.7   -923.67526 
  979000       978499   -7494.5079    671.27399   -8165.7819    4287.5001   -12453.282    110.33734   -790.63042   -577.91847   -899.30302    73.351747   -115.53853   -28.076599      46.7237      46.7237      46.7237           90           90           90     102002.7   -755.95064 
  980000       979499   -7469.4094    662.42725   -8131.8367    4313.8126   -12445.649     108.8832   -1126.3441   -506.17709   -582.15211    45.803574    4.4972864   -93.440756      46.7237      46.7237      46.7237           90           90           90     102002.7   -738.22443 
  981000       980499   -7476.0577    664.15623   -8140.2139    4303.5595   -12443.773    109.16739    -611.5396   -865.08623   -906.61398    123.27753   -128.37732    70.072358      46.7237      46.7237      46.7237           90           90           90     102002.7   -794.41327 
  982000       981499   -7486.3446     656.2845   -8142.6291    4301.7565   -12444.386    107.87352   -1082.2187   -778.87113   -1179.1286   -268.72113    53.294126    21.940815      46.7237      46.7237      46.7237           90           90           90     102002.7   -1013.4061 
  983000       982499   -7472.4648    668.45342   -8140.9183    4299.9576   -12440.876    109.87372   -710.60535    -852.2838   -734.63206   -51.994925   -213.26959    168.46151      46.7237      46.7237      46.7237           90           90           90     102002.7    -765.8404 
  984000       983499   -7477.6975    684.64542   -8162.3429    4293.8049   -12456.148     112.5352   -283.74463   -1034.1347   -1034.5363   -30.456589    97.387638    77.355374      46.7237      46.7237      46.7237           90           90           90     102002.7   -784.13856 
  985000       984499   -7488.7305    659.96381   -8148.6943    4281.2722   -12429.967    108.47829   -763.35656   -777.57224   -904.48702   -106.48271    42.001675    70.086109      46.7237      46.7237      46.7237           90           90           90     102002.7   -815.13861 
  986000       985499   -7456.0156    693.27795   -8149.2935    4297.7053   -12446.999    113.95413   -973.98433   -676.58047   -922.47159   -92.375617    127.51436   -25.104114      46.7237      46.7237      46.7237           90           90           90     102002.7    -857.6788 
  987000       986499   -7485.3962    654.27929   -8139.6755    4307.5946    -12447.27    107.54392   -816.34267   -981.61034   -855.80592    136.14901    45.646528       237.15      46.7237      46.7237      46.7237           90           90           90     102002.7   -884.58631 
  988000       987499   -7465.3136    660.80354   -8126.1172    4308.6297   -12434.747    108.61631   -379.74246   -821.01241   -786.84062    297.28489    87.385706    265.92733      46.7237      46.7237      46.7237           90           90           90     102002.7   -662.53183 
  989000       988499   -7480.2373    686.44718   -8166.6844    4306.9755    -12473.66    112.83136   -1155.4301   -1061.0151   -1157.0816   -133.86261   -11.520892    73.532716      46.7237      46.7237      46.7237           90           90           90     102002.7   -1124.5089 
  990000       989499   -7520.1576    631.55336    -8151.711    4312.0706   -12463.782    103.80846   -379.80448   -911.97575   -752.12407    106.04027    158.04319   -171.19543      46.7237      46.7237      46.7237           90           90           90     102002.7   -681.30143 
  991000       990499   -7464.7807    688.12204   -8152.9028     4308.359   -12461.262    113.10665   -567.21275   -412.59789   -877.88884   -31.356623    57.328393   -7.5686869      46.7237      46.7237      46.7237           90           90           90     102002.7   -619.23316 
  992000       991499    -7495.418     652.3416   -8147.7596    4319.5757   -12467.335    107.22542   -1034.2092   -727.47335   -830.53574    181.61177     110.4452   -42.187989      46.7237      46.7237      46.7237           90           90           90     102002.7   -864.07276 
  993000       992499   -7517.4895    655.21631   -8172.7058    4288.2739    -12460.98    107.69794   -442.01474   -494.77031    -692.2806    161.54385    12.590546   -16.283608      46.7237      46.7237      46.7237           90           90           90     102002.7   -543.02188 
  994000       993499   -7491.4611    664.73819   -8156.1993    4310.0234   -12466.223    109.26305   -782.88223   -945.07205   -765.49285   -227.57069   -89.470755   -21.183107      46.7237      46.7237      46.7237           90           90           90     102002.7   -831.14904 
  995000       994499   -7464.4965    696.29565   -8160.7922    4282.9283    -12443.72    114.45015   -547.69203   -530.97472   -580.58639   -14.618706    18.842681   -244.07047      46.7237      46.7237      46.7237           90           90           90     102002.7   -553.08438 
  996000       995499   -7461.8801    686.81019   -8148.6903    4296.5638   -12445.254    112.89103   -1248.1195   -418.18934   -724.73609   -10.163335   -69.698709    159.55288      46.7237      46.7237      46.7237           90           90           90     102002.7   -797.01497 
  997000       996499   -7511.4967    663.62688   -8175.1236     4280.718   -12455.842    109.08039   -941.81383   -514.88148   -443.08214    98.867454   -88.091788   -119.10069      46.7237      46.7237      46.7237           90           90           90     102002.7   -633.25915 
  998000       997499   -7511.4786    649.62441    -8161.103    4295.1901   -12456.293     106.7788    -654.6815   -246.27493   -981.73679   -193.40648    120.30646    134.60384      46.7237      46.7237      46.7237           90           90           90     102002.7   -627.56441 
  999000       998499   -7495.0694    655.74873   -8150.8181    4314.5503   -12465.368    107.78545   -718.25478   -1215.5284   -929.74855      -53.027    127.02082   -311.08105      46.7237      46.7237      46.7237           90           90           90     102002.7   -954.51059 
 1000000       999499   -7476.0269    671.29914    -8147.326    4326.5335    -12473.86    110.34147   -1093.1385   -766.49055   -1050.7271    9.4749467   -93.413526   -82.505014      46.7237      46.7237      46.7237           90           90           90     102002.7    -970.1187 
 1000501      1000000   -7478.4425    663.83675   -8142.2792    4308.2031   -12450.482    109.11488   -1469.6713   -1086.3081   -591.43564   -171.91063   -133.44961    181.38293      46.7237      46.7237      46.7237           90           90           90     102002.7   -1049.1383 
Loop time of 693.826 on 24 procs for 500000 steps with 2042 atoms

Performance: 62.263 ns/day, 0.385 hours/ns, 720.642 timesteps/s
99.2% CPU use with 24 MPI tasks x no OpenMP threads

MPI task timing breakdown:
Section |  min time  |  avg time  |  max time  |%varavg| %total
---------------------------------------------------------------
Pair    | 225.44     | 349.84     | 446.1      | 354.8 | 50.42
Bond    | 45.787     | 82.751     | 129.19     | 266.0 | 11.93
Neigh   | 3.3884     | 3.4041     | 3.4188     |   0.6 |  0.49
Comm    | 103.43     | 240.02     | 399.69     | 538.6 | 34.59
Output  | 0.42107    | 0.45562    | 0.45721    |   1.1 |  0.07
Modify  | 12.271     | 12.736     | 13.164     |   7.2 |  1.84
Other   |            | 4.613      |            |       |  0.66

Nlocal:    85.0833 ave 121 max 44 min
Histogram: 1 1 3 3 3 3 4 2 2 2
Nghost:    2295.96 ave 2399 max 2229 min
Histogram: 3 6 4 2 1 0 1 4 2 1
Neighs:    7635 ave 13245 max 2593 min
Histogram: 1 2 1 3 8 3 1 3 1 1

Total # of neighbors = 183240
Ave neighs/atom = 89.7356
Ave special neighs/atom = 5.64153
Neighbor list builds = 4345
Dangerous builds = 0
Total wall time: 0:22:22
