LAMMPS (30 Mar 2018)
Reading data file ...
  orthogonal box = (0 0 0) to (46.7237 46.7237 46.7237)
  2 by 2 by 4 MPI processor grid
  reading atoms ...
  3284 atoms
  scanning bonds ...
  5 = max bonds/atom
  scanning angles ...
  10 = max angles/atom
  scanning dihedrals ...
  32 = max dihedrals/atom
  scanning impropers ...
  3 = max impropers/atom
  reading bonds ...
  2064 bonds
  reading angles ...
  3696 angles
  reading dihedrals ...
  6240 dihedrals
  reading impropers ...
  1008 impropers
Finding 1-2 1-3 1-4 neighbors ...
  special bond factors lj:   0          0          0         
  special bond factors coul: 0          0          0         
  5 = max # of 1-2 neighbors
  8 = max # of 1-3 neighbors
  20 = max # of 1-4 neighbors
  19 = max # of special neighbors
Finding 1-2 1-3 1-4 neighbors ...
  special bond factors lj:   0          0          1         
  special bond factors coul: 1          1          1         
  5 = max # of 1-2 neighbors
  8 = max # of 1-3 neighbors
  19 = max # of special neighbors
WARNING: Using 'neigh_modify every 1 delay 0 check yes' setting during minimization (../min.cpp:168)
Neighbor list info ...
  update every 1 steps, delay 0 steps, check yes
  max neighbors/atom: 2000, page size: 100000
  master list distance cutoff = 16
  ghost atom cutoff = 16
  binsize = 8, bins = 6 6 6
  3 neighbor lists, perpetual/occasional/extra = 3 0 0
  (1) pair buck6d/coul/gauss/dsf, perpetual, skip from (3)
      attributes: half, newton on
      pair build: skip
      stencil: none
      bin: none
  (2) pair lj/cut, perpetual, skip from (3)
      attributes: half, newton on
      pair build: skip
      stencil: none
      bin: none
  (3) neighbor class addition, perpetual
      attributes: half, newton on
      pair build: half/bin/newton
      stencil: half/bin/3d/newton
      bin: standard
Setting up cg style minimization ...
  Unit style    : real
  Current step  : 0
WARNING: Inconsistent image flags (../domain.cpp:786)
Per MPI rank memory allocation (min/avg/max) = 23.02 | 23.48 | 23.92 Mbytes
Step Temp E_pair E_mol TotEng Press 
       0            0   -15875.513    6482.8914   -9392.6219    6339.3016 
     500            0   -16229.668    3775.0382    -12454.63   -1531.3627 
Loop time of 7.34545 on 16 procs for 500 steps with 3284 atoms

99.9% CPU use with 16 MPI tasks x no OpenMP threads

Minimization stats:
  Stopping criterion = max force evaluations
  Energy initial, next-to-last, final = 
        -9392.62189912     -12454.5691737     -12454.6299065
  Force two-norm initial, final = 2575.08 11.0197
  Force max component initial, final = 152.175 2.15567
  Final line search alpha, max atom move = 0.0073669 0.0158806
  Iterations, force evaluations = 500 1000

MPI task timing breakdown:
Section |  min time  |  avg time  |  max time  |%varavg| %total
---------------------------------------------------------------
Pair    | 2.5794     | 4.253      | 5.4105     |  44.8 | 57.90
Bond    | 0.31507    | 0.41917    | 0.57323    |  10.3 |  5.71
Neigh   | 0.05233    | 0.052576   | 0.052839   |   0.1 |  0.72
Comm    | 1.3426     | 2.5672     | 4.3502     |  60.0 | 34.95
Output  | 0          | 0          | 0          |   0.0 |  0.00
Modify  | 0          | 0          | 0          |   0.0 |  0.00
Other   |            | 0.05357    |            |       |  0.73

Nlocal:    205.25 ave 225 max 188 min
Histogram: 2 1 2 2 2 3 0 2 1 1
Nghost:    4106.12 ave 4129 max 4092 min
Histogram: 5 0 2 1 3 2 0 1 0 2
Neighs:    11502.6 ave 15627 max 7882 min
Histogram: 3 3 0 3 0 0 2 1 2 2

Total # of neighbors = 184041
Ave neighs/atom = 56.0417
Ave special neighs/atom = 3.50792
Neighbor list builds = 9
Dangerous builds = 0
Neighbor list info ...
  update every 1 steps, delay 10 steps, check yes
  max neighbors/atom: 2000, page size: 100000
  master list distance cutoff = 16
  ghost atom cutoff = 16
  binsize = 8, bins = 6 6 6
  3 neighbor lists, perpetual/occasional/extra = 3 0 0
  (1) pair buck6d/coul/gauss/dsf, perpetual, skip from (3)
      attributes: half, newton on
      pair build: skip
      stencil: none
      bin: none
  (2) pair lj/cut, perpetual, skip from (3)
      attributes: half, newton on
      pair build: skip
      stencil: none
      bin: none
  (3) neighbor class addition, perpetual
      attributes: half, newton on
      pair build: half/bin/newton
      stencil: half/bin/3d/newton
      bin: standard
Setting up Verlet run ...
  Unit style    : real
  Current step  : 500
  Time step     : 1
WARNING: Inconsistent image flags (../domain.cpp:786)
Per MPI rank memory allocation (min/avg/max) = 22.67 | 22.73 | 22.8 Mbytes
Step Temp PotEng TotEng Press Volume Lx Ly Lz 
     500           91    -12454.63   -11564.104   -1132.2756     102002.7      46.7237      46.7237      46.7237 
    1000    76.986889   -11720.494     -10967.1   -141.03496     102002.7      46.7237      46.7237      46.7237 
    2000    90.505219   -11576.475   -10690.791   -88.680538     102002.7      46.7237      46.7237      46.7237 
    3000    92.560469   -11622.959   -10717.162    258.80227     102002.7      46.7237      46.7237      46.7237 
    4000    91.127744   -11618.804   -10727.028    245.47356     102002.7      46.7237      46.7237      46.7237 
    5000      89.8269   -11587.241   -10708.195    87.441869     102002.7      46.7237      46.7237      46.7237 
    6000    90.866087   -11618.719   -10729.504    92.109668     102002.7      46.7237      46.7237      46.7237 
    7000      93.5456   -11600.237     -10684.8    108.30387     102002.7      46.7237      46.7237      46.7237 
    8000    89.349105   -11600.318   -10725.948    198.65042     102002.7      46.7237      46.7237      46.7237 
    9000    89.128311   -11609.062   -10736.852    276.50929     102002.7      46.7237      46.7237      46.7237 
   10000    91.562538   -11593.761    -10697.73    229.38806     102002.7      46.7237      46.7237      46.7237 
   11000    92.379761   -11612.636   -10708.608    493.48624     102002.7      46.7237      46.7237      46.7237 
   12000      91.4197   -11640.509   -10745.875    35.607626     102002.7      46.7237      46.7237      46.7237 
   13000    93.683587   -11602.156   -10685.368    356.63726     102002.7      46.7237      46.7237      46.7237 
   14000    89.495631   -11623.761   -10747.957    222.49228     102002.7      46.7237      46.7237      46.7237 
   15000    91.611971   -11628.749   -10732.235    364.80306     102002.7      46.7237      46.7237      46.7237 
   16000    90.781096   -11611.197   -10722.813    490.08548     102002.7      46.7237      46.7237      46.7237 
   17000    92.853743   -11599.967     -10691.3    35.203659     102002.7      46.7237      46.7237      46.7237 
   18000    92.151819   -11623.995   -10722.198   -116.67867     102002.7      46.7237      46.7237      46.7237 
   19000    90.200818   -11619.306   -10736.601    213.14173     102002.7      46.7237      46.7237      46.7237 
   20000    89.637958   -11615.889   -10738.692    82.398527     102002.7      46.7237      46.7237      46.7237 
   21000    91.490333   -11616.915   -10721.591    276.23293     102002.7      46.7237      46.7237      46.7237 
   22000    92.684413   -11637.906   -10730.896    266.27538     102002.7      46.7237      46.7237      46.7237 
   23000     92.10046   -11627.321   -10726.026    303.40176     102002.7      46.7237      46.7237      46.7237 
   24000    91.828038    -11595.86   -10697.231    455.42539     102002.7      46.7237      46.7237      46.7237 
   25000     91.16907   -11600.015   -10707.834     515.0849     102002.7      46.7237      46.7237      46.7237 
   26000    90.164984   -11601.033   -10718.679    327.96603     102002.7      46.7237      46.7237      46.7237 
   27000    92.072934   -11629.376    -10728.35     382.4903     102002.7      46.7237      46.7237      46.7237 
   28000    90.770866    -11595.45   -10707.166    238.53146     102002.7      46.7237      46.7237      46.7237 
   29000    89.930545   -11625.925   -10745.865    137.78825     102002.7      46.7237      46.7237      46.7237 
   30000    90.664728   -11625.239   -10737.994    251.71658     102002.7      46.7237      46.7237      46.7237 
   31000    92.761631   -11640.163   -10732.398    125.13929     102002.7      46.7237      46.7237      46.7237 
   32000    89.941679   -11615.011   -10734.841    149.70352     102002.7      46.7237      46.7237      46.7237 
   33000    90.586777   -11624.393   -10737.911    150.17352     102002.7      46.7237      46.7237      46.7237 
   34000    91.558109   -11596.343   -10700.355    135.04813     102002.7      46.7237      46.7237      46.7237 
   35000    90.229763    -11632.24   -10749.251     116.5588     102002.7      46.7237      46.7237      46.7237 
   36000     91.19692   -11611.023    -10718.57    254.64724     102002.7      46.7237      46.7237      46.7237 
   37000    91.253598   -11607.332   -10714.324    170.87854     102002.7      46.7237      46.7237      46.7237 
   38000    90.445992   -11628.996   -10743.892    236.62307     102002.7      46.7237      46.7237      46.7237 
   39000    91.190202   -11625.963   -10733.575      123.573     102002.7      46.7237      46.7237      46.7237 
   40000    91.623177   -11614.932   -10718.307    268.47835     102002.7      46.7237      46.7237      46.7237 
   41000    90.784372   -11629.767   -10741.351    291.63995     102002.7      46.7237      46.7237      46.7237 
   42000     88.74497   -11610.445   -10741.987    198.41206     102002.7      46.7237      46.7237      46.7237 
   43000    89.879154   -11621.798   -10742.241    129.87582     102002.7      46.7237      46.7237      46.7237 
   44000    91.339272   -11626.408   -10732.562   -30.594147     102002.7      46.7237      46.7237      46.7237 
   45000    90.728104   -11624.291   -10736.425    505.85451     102002.7      46.7237      46.7237      46.7237 
   46000    90.221135   -11625.711   -10742.807    377.47222     102002.7      46.7237      46.7237      46.7237 
   47000    90.554756   -11620.405   -10734.236    267.76714     102002.7      46.7237      46.7237      46.7237 
   48000    90.792414    -11627.21   -10738.715    131.91069     102002.7      46.7237      46.7237      46.7237 
   49000    90.301627   -11620.209   -10736.517    208.56169     102002.7      46.7237      46.7237      46.7237 
   50000    89.984117   -11613.785     -10733.2    496.92022     102002.7      46.7237      46.7237      46.7237 
   51000    90.408327   -11620.159   -10735.423    403.82195     102002.7      46.7237      46.7237      46.7237 
   52000    89.782204   -11613.318   -10734.709    124.71261     102002.7      46.7237      46.7237      46.7237 
   53000    90.037271   -11605.827   -10724.722    238.83977     102002.7      46.7237      46.7237      46.7237 
   54000    89.161941   -11622.436   -10749.897    234.66382     102002.7      46.7237      46.7237      46.7237 
   55000    89.306052   -11643.089    -10769.14    369.24899     102002.7      46.7237      46.7237      46.7237 
   56000    89.512843   -11636.303   -10760.331    145.50118     102002.7      46.7237      46.7237      46.7237 
   57000    90.967851   -11647.327   -10757.115   -15.691377     102002.7      46.7237      46.7237      46.7237 
   58000    90.662812   -11610.843   -10723.616    261.07415     102002.7      46.7237      46.7237      46.7237 
   59000    91.104873   -11627.143   -10735.591    342.77871     102002.7      46.7237      46.7237      46.7237 
   60000    89.658298   -11623.205   -10745.809    317.75334     102002.7      46.7237      46.7237      46.7237 
   61000    91.904476    -11642.85   -10743.473    251.50582     102002.7      46.7237      46.7237      46.7237 
   62000    89.248284   -11643.255   -10769.871    75.047689     102002.7      46.7237      46.7237      46.7237 
   63000    91.273181   -11635.348   -10742.149    145.99126     102002.7      46.7237      46.7237      46.7237 
   64000    93.084507   -11621.015    -10710.09    514.95555     102002.7      46.7237      46.7237      46.7237 
   65000    91.468865   -11634.808   -10739.693    304.75969     102002.7      46.7237      46.7237      46.7237 
   66000    89.405811   -11642.807   -10767.881    232.72697     102002.7      46.7237      46.7237      46.7237 
   67000    92.662339   -11651.218   -10744.424    335.38869     102002.7      46.7237      46.7237      46.7237 
   68000    91.415677   -11612.531   -10717.937    446.02008     102002.7      46.7237      46.7237      46.7237 
   69000    90.134033   -11616.196   -10734.145    485.13265     102002.7      46.7237      46.7237      46.7237 
   70000    90.632644   -11633.999   -10747.068    554.02069     102002.7      46.7237      46.7237      46.7237 
   71000    92.350261   -11631.867   -10728.127    133.37948     102002.7      46.7237      46.7237      46.7237 
   72000    90.108143   -11651.521   -10769.723   -34.401951     102002.7      46.7237      46.7237      46.7237 
   73000    90.103106   -11626.537   -10744.788    182.97006     102002.7      46.7237      46.7237      46.7237 
   74000    92.058921    -11623.25   -10722.361     219.8515     102002.7      46.7237      46.7237      46.7237 
   75000     90.61959    -11640.16   -10753.357    248.91354     102002.7      46.7237      46.7237      46.7237 
   76000    90.476258   -11627.798   -10742.397     370.2297     102002.7      46.7237      46.7237      46.7237 
   77000    88.054577   -11655.455   -10793.753    309.00347     102002.7      46.7237      46.7237      46.7237 
   78000     90.82559   -11639.572   -10750.753    560.99038     102002.7      46.7237      46.7237      46.7237 
   79000    92.075912   -11651.138   -10750.083    447.79815     102002.7      46.7237      46.7237      46.7237 
   80000    90.339383   -11625.395   -10741.334     362.4302     102002.7      46.7237      46.7237      46.7237 
   81000    91.879633   -11654.018   -10754.884    509.94023     102002.7      46.7237      46.7237      46.7237 
   82000    89.766376   -11626.675   -10748.222    238.82626     102002.7      46.7237      46.7237      46.7237 
   83000    89.184702   -11673.862     -10801.1    260.52737     102002.7      46.7237      46.7237      46.7237 
   84000    93.012891   -11648.627   -10738.403    105.39405     102002.7      46.7237      46.7237      46.7237 
   85000    89.259945   -11648.827   -10775.329    189.37258     102002.7      46.7237      46.7237      46.7237 
   86000    91.292611   -11644.669    -10751.28    256.29236     102002.7      46.7237      46.7237      46.7237 
   87000    91.767811   -11652.841   -10754.801    324.35316     102002.7      46.7237      46.7237      46.7237 
   88000    92.274749   -11617.401   -10714.401    229.25251     102002.7      46.7237      46.7237      46.7237 
   89000    90.335472   -11637.683    -10753.66    356.57635     102002.7      46.7237      46.7237      46.7237 
   90000    91.602361    -11631.72   -10735.299    489.11627     102002.7      46.7237      46.7237      46.7237 
   91000    92.246851   -11633.787    -10731.06    311.27903     102002.7      46.7237      46.7237      46.7237 
   92000    90.079703   -11634.436   -10752.916     491.9452     102002.7      46.7237      46.7237      46.7237 
   93000    91.090779   -11615.292   -10723.878    450.00554     102002.7      46.7237      46.7237      46.7237 
   94000    91.243591   -11645.914   -10753.004    211.37662     102002.7      46.7237      46.7237      46.7237 
   95000    92.683418   -11643.418   -10736.418    279.77053     102002.7      46.7237      46.7237      46.7237 
   96000    93.396751   -11665.272   -10751.292    251.35587     102002.7      46.7237      46.7237      46.7237 
   97000    91.988897   -11632.017   -10731.813    409.37173     102002.7      46.7237      46.7237      46.7237 
   98000    91.146835   -11636.309   -10744.347    167.66054     102002.7      46.7237      46.7237      46.7237 
   99000    91.828791   -11632.646    -10734.01    131.93068     102002.7      46.7237      46.7237      46.7237 
  100000    91.254119   -11609.597   -10716.584    278.47982     102002.7      46.7237      46.7237      46.7237 
  101000    90.637259   -11627.294   -10740.318    101.80512     102002.7      46.7237      46.7237      46.7237 
  102000     91.02775   -11641.785   -10750.988    275.78882     102002.7      46.7237      46.7237      46.7237 
  103000    92.513211   -11636.154   -10730.819     114.0276     102002.7      46.7237      46.7237      46.7237 
  104000    91.444742   -11631.678     -10736.8    57.631683     102002.7      46.7237      46.7237      46.7237 
  105000    89.942711   -11613.456   -10733.276     137.7699     102002.7      46.7237      46.7237      46.7237 
  106000    90.303444    -11618.02   -10734.311    336.71854     102002.7      46.7237      46.7237      46.7237 
  107000    89.419048   -11642.367   -10767.312    251.74779     102002.7      46.7237      46.7237      46.7237 
  108000    90.890854   -11625.315   -10735.857      318.325     102002.7      46.7237      46.7237      46.7237 
  109000    91.716433   -11642.563   -10745.026    477.65328     102002.7      46.7237      46.7237      46.7237 
  110000    90.144663   -11636.473   -10754.318    286.76145     102002.7      46.7237      46.7237      46.7237 
  111000    89.316878   -11615.354   -10741.299    317.83726     102002.7      46.7237      46.7237      46.7237 
  112000    91.536286   -11628.224    -10732.45    538.80638     102002.7      46.7237      46.7237      46.7237 
  113000    89.766197   -11635.539   -10757.087    44.342238     102002.7      46.7237      46.7237      46.7237 
  114000    92.694739   -11642.341    -10735.23   -115.49118     102002.7      46.7237      46.7237      46.7237 
  115000    90.922453   -11627.486   -10737.719    206.01878     102002.7      46.7237      46.7237      46.7237 
  116000    91.179987   -11644.528   -10752.241    81.189252     102002.7      46.7237      46.7237      46.7237 
  117000    91.144855   -11627.296   -10735.353    7.2417788     102002.7      46.7237      46.7237      46.7237 
  118000    90.473595   -11634.389   -10749.014    394.46524     102002.7      46.7237      46.7237      46.7237 
  119000    91.853511   -11634.819   -10735.941    447.12871     102002.7      46.7237      46.7237      46.7237 
  120000    91.710507   -11619.245   -10721.766    625.35579     102002.7      46.7237      46.7237      46.7237 
  121000    90.872663     -11631.8    -10742.52     475.0962     102002.7      46.7237      46.7237      46.7237 
  122000    90.722896   -11653.409   -10765.595    345.56561     102002.7      46.7237      46.7237      46.7237 
  123000    91.655858   -11613.804    -10716.86    184.56372     102002.7      46.7237      46.7237      46.7237 
  124000    89.740696   -11648.362   -10770.159    172.45435     102002.7      46.7237      46.7237      46.7237 
  125000     91.52533   -11642.923   -10747.256    91.339191     102002.7      46.7237      46.7237      46.7237 
  126000    92.020888   -11642.334   -10741.818    313.05241     102002.7      46.7237      46.7237      46.7237 
  127000    91.066768   -11657.917   -10766.737    52.292902     102002.7      46.7237      46.7237      46.7237 
  128000    91.569286   -11630.792   -10734.695    246.77098     102002.7      46.7237      46.7237      46.7237 
  129000    89.721819   -11618.846   -10740.828     581.7036     102002.7      46.7237      46.7237      46.7237 
  130000    89.670239     -11659.7   -10782.187     195.2569     102002.7      46.7237      46.7237      46.7237 
  131000    92.167737   -11653.873    -10751.92    286.42799     102002.7      46.7237      46.7237      46.7237 
  132000    92.198416   -11622.697   -10720.443    294.34683     102002.7      46.7237      46.7237      46.7237 
  133000    91.530991   -11646.637   -10750.915    348.07255     102002.7      46.7237      46.7237      46.7237 
  134000    91.985629   -11631.066   -10730.895    218.10334     102002.7      46.7237      46.7237      46.7237 
  135000    89.774494   -11643.768   -10765.235    164.19276     102002.7      46.7237      46.7237      46.7237 
  136000    90.307946   -11647.785   -10764.031    79.630616     102002.7      46.7237      46.7237      46.7237 
  137000    91.399722   -11658.035   -10763.597    296.09244     102002.7      46.7237      46.7237      46.7237 
  138000    92.466931    -11641.28   -10736.399    495.74172     102002.7      46.7237      46.7237      46.7237 
  139000     89.22605   -11639.916    -10766.75    218.05404     102002.7      46.7237      46.7237      46.7237 
  140000    92.399385   -11641.242   -10737.022    247.29623     102002.7      46.7237      46.7237      46.7237 
  141000    90.433581   -11641.709   -10756.726    197.25462     102002.7      46.7237      46.7237      46.7237 
  142000    88.081398   -11667.749   -10805.784    350.29937     102002.7      46.7237      46.7237      46.7237 
  143000    91.497182   -11635.916   -10740.524    344.06387     102002.7      46.7237      46.7237      46.7237 
  144000     88.66581   -11654.056   -10786.372    135.44556     102002.7      46.7237      46.7237      46.7237 
  145000    90.002217   -11649.774   -10769.012    193.74312     102002.7      46.7237      46.7237      46.7237 
  146000    91.060394    -11649.35   -10758.233    333.70911     102002.7      46.7237      46.7237      46.7237 
  147000    90.041009   -11643.238   -10762.097    294.88843     102002.7      46.7237      46.7237      46.7237 
  148000    89.977731   -11641.175   -10760.653    288.35616     102002.7      46.7237      46.7237      46.7237 
  149000    91.383116   -11647.947   -10753.672   -22.162303     102002.7      46.7237      46.7237      46.7237 
  150000    93.156686   -11643.737   -10732.106    327.13507     102002.7      46.7237      46.7237      46.7237 
  151000    92.153395   -11620.704   -10718.891    243.67813     102002.7      46.7237      46.7237      46.7237 
  152000    91.177551   -11658.399   -10766.135    558.76461     102002.7      46.7237      46.7237      46.7237 
  153000    89.511482   -11638.164   -10762.205    27.553456     102002.7      46.7237      46.7237      46.7237 
  154000     92.19293   -11648.437   -10746.237   -6.6702281     102002.7      46.7237      46.7237      46.7237 
  155000    91.114774   -11639.753   -10748.103    339.80034     102002.7      46.7237      46.7237      46.7237 
  156000    92.149683     -11650.4   -10748.623    124.16738     102002.7      46.7237      46.7237      46.7237 
  157000    91.105178   -11642.924   -10751.369   -191.90111     102002.7      46.7237      46.7237      46.7237 
  158000    90.562998   -11645.256   -10759.007    244.02242     102002.7      46.7237      46.7237      46.7237 
  159000    89.362787     -11651.2   -10776.696    121.41541     102002.7      46.7237      46.7237      46.7237 
  160000    93.479792   -11642.635   -10727.841    204.43682     102002.7      46.7237      46.7237      46.7237 
  161000    92.658197   -11633.043    -10726.29    455.91735     102002.7      46.7237      46.7237      46.7237 
  162000    91.341523   -11649.947   -10756.079     66.82609     102002.7      46.7237      46.7237      46.7237 
  163000    91.330754   -11645.601   -10751.838    417.60617     102002.7      46.7237      46.7237      46.7237 
  164000     92.19929   -11648.693   -10746.431    364.54694     102002.7      46.7237      46.7237      46.7237 
  165000    89.417606   -11636.007   -10760.966    287.77373     102002.7      46.7237      46.7237      46.7237 
  166000    88.724062   -11651.534    -10783.28    326.02969     102002.7      46.7237      46.7237      46.7237 
  167000    89.563906   -11666.968   -10790.496    285.10642     102002.7      46.7237      46.7237      46.7237 
  168000    91.691736    -11627.87   -10730.575    189.74577     102002.7      46.7237      46.7237      46.7237 
  169000    91.035612   -11649.155    -10758.28    213.08251     102002.7      46.7237      46.7237      46.7237 
  170000    89.657063    -11658.84   -10781.456    310.58368     102002.7      46.7237      46.7237      46.7237 
  171000    90.589822   -11661.995   -10775.483    245.05246     102002.7      46.7237      46.7237      46.7237 
  172000    89.993357   -11647.035    -10766.36    294.16552     102002.7      46.7237      46.7237      46.7237 
  173000    89.495866   -11647.721   -10771.914    258.50343     102002.7      46.7237      46.7237      46.7237 
  174000    92.519327   -11627.899   -10722.505    364.10679     102002.7      46.7237      46.7237      46.7237 
  175000    90.101674   -11632.119   -10750.385    143.39292     102002.7      46.7237      46.7237      46.7237 
  176000    89.913424   -11653.622    -10773.73    352.47156     102002.7      46.7237      46.7237      46.7237 
  177000    92.085966   -11619.009   -10717.856    460.41223     102002.7      46.7237      46.7237      46.7237 
  178000    91.710347   -11655.718   -10758.241    434.19533     102002.7      46.7237      46.7237      46.7237 
  179000    89.312086   -11650.337   -10776.329    108.70076     102002.7      46.7237      46.7237      46.7237 
  180000    91.095969   -11648.162   -10756.697    51.280046     102002.7      46.7237      46.7237      46.7237 
  181000    91.445346   -11649.418   -10754.534    105.73535     102002.7      46.7237      46.7237      46.7237 
  182000    89.805833   -11668.482   -10789.643    35.732101     102002.7      46.7237      46.7237      46.7237 
  183000    93.634299   -11661.086   -10744.781    23.330125     102002.7      46.7237      46.7237      46.7237 
  184000     92.67447   -11652.236   -10745.324    313.03285     102002.7      46.7237      46.7237      46.7237 
  185000    89.380733   -11627.594   -10752.914    440.13786     102002.7      46.7237      46.7237      46.7237 
  186000    89.996696   -11659.466   -10778.759    224.97264     102002.7      46.7237      46.7237      46.7237 
  187000    92.665968   -11654.085   -10747.256    127.05374     102002.7      46.7237      46.7237      46.7237 
  188000    90.724184   -11652.086   -10764.259    285.12566     102002.7      46.7237      46.7237      46.7237 
  189000    90.343176    -11632.54   -10748.442    352.67185     102002.7      46.7237      46.7237      46.7237 
  190000    88.689733    -11653.11   -10785.192   -12.045092     102002.7      46.7237      46.7237      46.7237 
  191000    90.176092   -11644.141   -10761.678    253.46767     102002.7      46.7237      46.7237      46.7237 
  192000    92.393056   -11663.306   -10759.147    262.37811     102002.7      46.7237      46.7237      46.7237 
  193000    93.508831   -11633.118    -10718.04    158.33975     102002.7      46.7237      46.7237      46.7237 
  194000    91.355273   -11643.323   -10749.321    165.90988     102002.7      46.7237      46.7237      46.7237 
  195000    92.156014   -11626.185   -10724.346    205.33868     102002.7      46.7237      46.7237      46.7237 
  196000    88.125754   -11649.278    -10786.88   -320.37259     102002.7      46.7237      46.7237      46.7237 
  197000    90.812945   -11676.872   -10788.176    214.86332     102002.7      46.7237      46.7237      46.7237 
  198000    92.439839   -11636.566    -10731.95    451.15951     102002.7      46.7237      46.7237      46.7237 
  199000    91.410831   -11649.965   -10755.419     315.5911     102002.7      46.7237      46.7237      46.7237 
  200000    88.076579   -11659.618     -10797.7    246.62482     102002.7      46.7237      46.7237      46.7237 
  201000    91.578421   -11648.832   -10752.646   -45.333739     102002.7      46.7237      46.7237      46.7237 
  202000    93.334017   -11660.611   -10747.244     154.3056     102002.7      46.7237      46.7237      46.7237 
  203000    94.520962    -11645.06   -10720.078    268.67276     102002.7      46.7237      46.7237      46.7237 
  204000    91.204672    -11659.71   -10767.181    210.76179     102002.7      46.7237      46.7237      46.7237 
  205000    91.680339   -11655.385   -10758.201    385.11046     102002.7      46.7237      46.7237      46.7237 
  206000    93.304281   -11651.045   -10737.969    335.73102     102002.7      46.7237      46.7237      46.7237 
  207000    90.624622    -11670.79   -10783.937    106.52572     102002.7      46.7237      46.7237      46.7237 
  208000    91.537741   -11660.378    -10764.59    322.68352     102002.7      46.7237      46.7237      46.7237 
  209000    93.010147   -11664.191   -10753.994    305.60651     102002.7      46.7237      46.7237      46.7237 
  210000    90.572555   -11657.701   -10771.358    41.087288     102002.7      46.7237      46.7237      46.7237 
  211000    92.077047   -11653.743   -10752.677    71.443264     102002.7      46.7237      46.7237      46.7237 
  212000    90.905424   -11659.042   -10769.442    167.94205     102002.7      46.7237      46.7237      46.7237 
  213000    90.837859    -11637.51   -10748.571      264.343     102002.7      46.7237      46.7237      46.7237 
  214000    88.272298    -11641.72   -10777.887    27.003464     102002.7      46.7237      46.7237      46.7237 
  215000    90.239573   -11650.322   -10767.237    403.93693     102002.7      46.7237      46.7237      46.7237 
  216000    91.275486   -11636.167   -10742.945    534.82572     102002.7      46.7237      46.7237      46.7237 
  217000    91.292075   -11647.939   -10754.554    222.67887     102002.7      46.7237      46.7237      46.7237 
  218000    89.969712   -11654.104   -10773.661    231.09408     102002.7      46.7237      46.7237      46.7237 
  219000    90.621639   -11632.161   -10745.338    165.13283     102002.7      46.7237      46.7237      46.7237 
  220000    90.909176    -11639.38   -10749.743    104.15681     102002.7      46.7237      46.7237      46.7237 
  221000     91.59411   -11654.546   -10758.207    586.14113     102002.7      46.7237      46.7237      46.7237 
  222000    91.297842   -11650.588   -10757.148    12.928677     102002.7      46.7237      46.7237      46.7237 
  223000     90.19708   -11640.263   -10757.594    28.401371     102002.7      46.7237      46.7237      46.7237 
  224000    90.724358   -11653.288    -10765.46    342.96087     102002.7      46.7237      46.7237      46.7237 
  225000    90.150952   -11662.486   -10780.269    258.43902     102002.7      46.7237      46.7237      46.7237 
  226000    91.557147   -11676.946   -10780.968     421.5305     102002.7      46.7237      46.7237      46.7237 
  227000    90.483366    -11650.86    -10765.39    193.38323     102002.7      46.7237      46.7237      46.7237 
  228000    92.181284   -11664.984   -10762.898   -19.998746     102002.7      46.7237      46.7237      46.7237 
  229000     91.92503   -11643.447   -10743.869   -24.696815     102002.7      46.7237      46.7237      46.7237 
  230000    90.682913   -11653.216   -10765.793    282.75134     102002.7      46.7237      46.7237      46.7237 
  231000    93.083842   -11658.029   -10747.111     404.5783     102002.7      46.7237      46.7237      46.7237 
  232000     93.19816   -11680.517    -10768.48    359.44672     102002.7      46.7237      46.7237      46.7237 
  233000     91.96005   -11644.928   -10745.007    37.782654     102002.7      46.7237      46.7237      46.7237 
  234000    89.720723    -11634.34   -10756.333    50.669126     102002.7      46.7237      46.7237      46.7237 
  235000    91.755092   -11645.007   -10747.091    472.37236     102002.7      46.7237      46.7237      46.7237 
  236000    90.694713    -11668.35   -10780.812    106.21332     102002.7      46.7237      46.7237      46.7237 
  237000    91.245356   -11661.138   -10768.211    126.20592     102002.7      46.7237      46.7237      46.7237 
  238000    91.918953   -11643.294   -10743.776    420.85591     102002.7      46.7237      46.7237      46.7237 
  239000     91.38894   -11662.785   -10768.453    459.13606     102002.7      46.7237      46.7237      46.7237 
  240000    91.853311   -11621.315   -10722.439    322.02893     102002.7      46.7237      46.7237      46.7237 
  241000    91.232436   -11640.343   -10747.543    143.02183     102002.7      46.7237      46.7237      46.7237 
  242000    92.215535    -11638.56   -10736.139    17.953873     102002.7      46.7237      46.7237      46.7237 
  243000     90.29033   -11622.214   -10738.633    271.53915     102002.7      46.7237      46.7237      46.7237 
  244000    90.794094    -11680.04   -10791.529    252.22132     102002.7      46.7237      46.7237      46.7237 
  245000    88.401704   -11676.715   -10811.616    137.61344     102002.7      46.7237      46.7237      46.7237 
  246000    91.224438   -11631.451   -10738.729    44.464383     102002.7      46.7237      46.7237      46.7237 
  247000    89.861163   -11665.122   -10785.741    62.424768     102002.7      46.7237      46.7237      46.7237 
  248000    90.804195   -11631.261   -10742.651      458.813     102002.7      46.7237      46.7237      46.7237 
  249000     92.00953   -11659.849   -10759.444     386.2789     102002.7      46.7237      46.7237      46.7237 
  250000     88.58849    -11660.48   -10793.553    141.35452     102002.7      46.7237      46.7237      46.7237 
  251000    91.649946   -11651.165   -10754.279   -193.70494     102002.7      46.7237      46.7237      46.7237 
  252000    92.527429    -11655.18   -10749.707    114.11906     102002.7      46.7237      46.7237      46.7237 
  253000    92.606534   -11652.686   -10746.439    95.911974     102002.7      46.7237      46.7237      46.7237 
  254000    90.763172   -11646.591   -10758.383    223.06098     102002.7      46.7237      46.7237      46.7237 
  255000    91.616308   -11656.859   -10760.302    280.33541     102002.7      46.7237      46.7237      46.7237 
  256000    90.403851   -11663.244   -10778.552    57.868026     102002.7      46.7237      46.7237      46.7237 
  257000    92.059138   -11681.797   -10780.906    242.53049     102002.7      46.7237      46.7237      46.7237 
  258000     93.46931   -11658.861    -10744.17    228.41706     102002.7      46.7237      46.7237      46.7237 
  259000    91.169512   -11646.026   -10753.841    261.46158     102002.7      46.7237      46.7237      46.7237 
  260000    93.431858   -11638.975   -10724.651    489.25723     102002.7      46.7237      46.7237      46.7237 
  261000    89.999901   -11647.445   -10766.706    134.61756     102002.7      46.7237      46.7237      46.7237 
  262000    92.336319   -11645.823    -10742.22    155.43676     102002.7      46.7237      46.7237      46.7237 
  263000    91.482039   -11654.134   -10758.891    109.59041     102002.7      46.7237      46.7237      46.7237 
  264000    91.195874   -11650.862   -10758.419    125.63049     102002.7      46.7237      46.7237      46.7237 
  265000    88.687977   -11638.807   -10770.907    239.08413     102002.7      46.7237      46.7237      46.7237 
  266000    92.215346    -11636.51    -10734.09     419.4077     102002.7      46.7237      46.7237      46.7237 
  267000    89.645895   -11652.098   -10774.823   -17.356873     102002.7      46.7237      46.7237      46.7237 
  268000    89.729475   -11657.316   -10779.223    334.33401     102002.7      46.7237      46.7237      46.7237 
  269000    90.748661   -11675.944   -10787.878    41.601178     102002.7      46.7237      46.7237      46.7237 
  270000    90.237563   -11649.511   -10766.446   -107.16911     102002.7      46.7237      46.7237      46.7237 
  271000    92.906456   -11662.122   -10752.939    237.20515     102002.7      46.7237      46.7237      46.7237 
  272000    90.736751   -11623.981   -10736.031    317.24139     102002.7      46.7237      46.7237      46.7237 
  273000     91.51237   -11638.175   -10742.635    318.34641     102002.7      46.7237      46.7237      46.7237 
  274000     92.36292   -11641.473    -10737.61    461.51049     102002.7      46.7237      46.7237      46.7237 
  275000    92.548825   -11672.147   -10766.464    241.73101     102002.7      46.7237      46.7237      46.7237 
  276000    93.032536   -11647.839   -10737.422    50.362702     102002.7      46.7237      46.7237      46.7237 
  277000    91.263518   -11667.237   -10774.132    133.26448     102002.7      46.7237      46.7237      46.7237 
  278000    90.771818   -11652.872   -10764.579    97.837478     102002.7      46.7237      46.7237      46.7237 
  279000    93.327866   -11623.718   -10710.412    237.56468     102002.7      46.7237      46.7237      46.7237 
  280000     90.63533   -11630.381   -10743.423    188.23893     102002.7      46.7237      46.7237      46.7237 
  281000    90.902198   -11638.459    -10748.89    97.682182     102002.7      46.7237      46.7237      46.7237 
  282000    89.775801   -11638.463   -10759.917    277.50636     102002.7      46.7237      46.7237      46.7237 
  283000     92.42953   -11652.219   -10747.704    401.45489     102002.7      46.7237      46.7237      46.7237 
  284000    90.555132    -11651.16   -10764.988      157.061     102002.7      46.7237      46.7237      46.7237 
  285000    89.222453   -11658.857   -10785.726    234.19584     102002.7      46.7237      46.7237      46.7237 
  286000    88.781657   -11673.801   -10804.984    94.869215     102002.7      46.7237      46.7237      46.7237 
  287000    91.153138   -11643.113   -10751.088    175.96575     102002.7      46.7237      46.7237      46.7237 
  288000    90.777068   -11652.409   -10764.065    342.92489     102002.7      46.7237      46.7237      46.7237 
  289000    91.323322    -11644.75    -10751.06    525.26441     102002.7      46.7237      46.7237      46.7237 
  290000    90.300478   -11650.119   -10766.439    361.89321     102002.7      46.7237      46.7237      46.7237 
  291000    90.688068   -11656.663    -10769.19    237.17901     102002.7      46.7237      46.7237      46.7237 
  292000     92.80387   -11641.315   -10733.136    381.69525     102002.7      46.7237      46.7237      46.7237 
  293000    89.616968   -11687.407   -10810.416    210.88544     102002.7      46.7237      46.7237      46.7237 
  294000    90.493275    -11655.93   -10770.363    64.854094     102002.7      46.7237      46.7237      46.7237 
  295000    92.328772   -11672.676   -10769.146    365.32792     102002.7      46.7237      46.7237      46.7237 
  296000    89.996437   -11651.863   -10771.158    338.76526     102002.7      46.7237      46.7237      46.7237 
  297000    93.224181   -11658.783   -10746.491    240.16927     102002.7      46.7237      46.7237      46.7237 
  298000    91.233663   -11683.787   -10790.974    56.407754     102002.7      46.7237      46.7237      46.7237 
  299000    90.388443   -11656.877   -10772.336    266.20226     102002.7      46.7237      46.7237      46.7237 
  300000    92.672628   -11635.902   -10729.008    81.677239     102002.7      46.7237      46.7237      46.7237 
  301000    90.813006   -11654.866    -10766.17    431.33392     102002.7      46.7237      46.7237      46.7237 
  302000    88.302336   -11648.397   -10784.271    357.11903     102002.7      46.7237      46.7237      46.7237 
  303000     90.50964   -11649.725   -10763.998    134.05547     102002.7      46.7237      46.7237      46.7237 
  304000    92.485463   -11649.349   -10744.287    191.33366     102002.7      46.7237      46.7237      46.7237 
  305000    91.552305    -11642.79   -10746.859    169.85558     102002.7      46.7237      46.7237      46.7237 
  306000    90.029252    -11639.76   -10758.734    378.70782     102002.7      46.7237      46.7237      46.7237 
  307000    91.453108   -11657.514   -10762.554    114.04132     102002.7      46.7237      46.7237      46.7237 
  308000    92.820714   -11645.583   -10737.239    93.182585     102002.7      46.7237      46.7237      46.7237 
  309000    91.002444   -11654.709   -10764.159    203.62394     102002.7      46.7237      46.7237      46.7237 
  310000    90.065141   -11651.118   -10769.741   -42.939405     102002.7      46.7237      46.7237      46.7237 
  311000     91.89101   -11665.057   -10765.811    126.47242     102002.7      46.7237      46.7237      46.7237 
  312000    91.049674    -11665.11   -10774.098    84.398902     102002.7      46.7237      46.7237      46.7237 
  313000    90.982814   -11660.975   -10770.617    69.278128     102002.7      46.7237      46.7237      46.7237 
  314000    90.848252   -11652.175   -10763.134    463.38348     102002.7      46.7237      46.7237      46.7237 
  315000    91.309806   -11649.062   -10755.505     210.4404     102002.7      46.7237      46.7237      46.7237 
  316000     91.69903   -11664.362   -10766.995     81.41426     102002.7      46.7237      46.7237      46.7237 
  317000    92.752968   -11648.186   -10740.505    335.72162     102002.7      46.7237      46.7237      46.7237 
  318000    92.837996   -11632.251   -10723.739      272.528     102002.7      46.7237      46.7237      46.7237 
  319000    93.359736   -11684.141   -10770.523    47.542767     102002.7      46.7237      46.7237      46.7237 
  320000    90.568493   -11631.767   -10745.464    390.95296     102002.7      46.7237      46.7237      46.7237 
  321000    91.875602   -11660.973   -10761.879     11.42548     102002.7      46.7237      46.7237      46.7237 
  322000    89.367158   -11663.416   -10788.869    191.71201     102002.7      46.7237      46.7237      46.7237 
  323000    90.904403   -11678.268   -10788.678    100.18295     102002.7      46.7237      46.7237      46.7237 
  324000     91.74594    -11650.49   -10752.664    189.39944     102002.7      46.7237      46.7237      46.7237 
  325000     93.80822   -11659.376   -10741.369   -40.904142     102002.7      46.7237      46.7237      46.7237 
  326000    91.584534   -11638.993   -10742.747   -50.938757     102002.7      46.7237      46.7237      46.7237 
  327000    89.531008   -11639.432   -10763.282    217.61257     102002.7      46.7237      46.7237      46.7237 
  328000    88.867265    -11637.97   -10768.315   -42.470737     102002.7      46.7237      46.7237      46.7237 
  329000    87.815924    -11670.58   -10811.214    103.45871     102002.7      46.7237      46.7237      46.7237 
  330000    93.998011   -11639.146   -10719.281    468.44117     102002.7      46.7237      46.7237      46.7237 
  331000    90.211094   -11654.968   -10772.162   -1.5851355     102002.7      46.7237      46.7237      46.7237 
  332000    91.231438   -11647.705   -10754.914    265.71234     102002.7      46.7237      46.7237      46.7237 
  333000     90.98422   -11658.429   -10768.057    316.21555     102002.7      46.7237      46.7237      46.7237 
  334000    90.338395   -11650.608   -10766.556    5.2480091     102002.7      46.7237      46.7237      46.7237 
  335000    91.360985   -11658.431   -10764.373    300.05552     102002.7      46.7237      46.7237      46.7237 
  336000    91.598814   -11651.832   -10755.446    194.66563     102002.7      46.7237      46.7237      46.7237 
  337000     92.54231   -11633.432   -10727.813     203.3712     102002.7      46.7237      46.7237      46.7237 
  338000     92.25678   -11644.876   -10742.051    70.670096     102002.7      46.7237      46.7237      46.7237 
  339000    89.937095   -11648.676   -10768.551    215.66682     102002.7      46.7237      46.7237      46.7237 
  340000    91.427353   -11642.191   -10747.483    273.93309     102002.7      46.7237      46.7237      46.7237 
  341000    89.936086   -11635.502   -10755.388     444.5435     102002.7      46.7237      46.7237      46.7237 
  342000    89.449035   -11661.056   -10785.708    456.59093     102002.7      46.7237      46.7237      46.7237 
  343000    91.747272       -11653   -10755.161    98.188445     102002.7      46.7237      46.7237      46.7237 
  344000    91.634889   -11645.385   -10748.646    320.69419     102002.7      46.7237      46.7237      46.7237 
  345000    88.631434   -11650.019   -10782.672    285.21491     102002.7      46.7237      46.7237      46.7237 
  346000    91.022827   -11654.627   -10763.878    288.24755     102002.7      46.7237      46.7237      46.7237 
  347000    88.861194   -11644.566   -10774.971    417.02511     102002.7      46.7237      46.7237      46.7237 
  348000    90.101349   -11651.956   -10770.224    388.97917     102002.7      46.7237      46.7237      46.7237 
  349000    89.725992   -11671.333   -10793.275    215.49754     102002.7      46.7237      46.7237      46.7237 
  350000    91.116515   -11644.988   -10753.322     217.9191     102002.7      46.7237      46.7237      46.7237 
  351000    92.438698   -11647.854   -10743.249     276.2063     102002.7      46.7237      46.7237      46.7237 
  352000     88.63933   -11651.566   -10784.142    227.34315     102002.7      46.7237      46.7237      46.7237 
  353000    89.572418   -11631.866    -10755.31    294.70797     102002.7      46.7237      46.7237      46.7237 
  354000     94.41431   -11647.467   -10723.528    29.309103     102002.7      46.7237      46.7237      46.7237 
  355000    91.755156   -11668.386    -10770.47    307.61832     102002.7      46.7237      46.7237      46.7237 
  356000    91.886488    -11666.51   -10767.309    247.44688     102002.7      46.7237      46.7237      46.7237 
  357000    91.360644   -11645.577   -10751.522    228.93481     102002.7      46.7237      46.7237      46.7237 
  358000    88.912226   -11647.584   -10777.489    217.70211     102002.7      46.7237      46.7237      46.7237 
  359000    89.530656   -11646.197    -10770.05    245.34503     102002.7      46.7237      46.7237      46.7237 
  360000    91.581999   -11642.352   -10746.131     17.16653     102002.7      46.7237      46.7237      46.7237 
  361000    91.983738   -11662.586   -10762.433    385.53669     102002.7      46.7237      46.7237      46.7237 
  362000    92.177459   -11643.563   -10741.514    400.58007     102002.7      46.7237      46.7237      46.7237 
  363000     92.31581   -11634.068   -10730.666     404.4524     102002.7      46.7237      46.7237      46.7237 
  364000     91.85627   -11657.106     -10758.2   -131.37324     102002.7      46.7237      46.7237      46.7237 
  365000    93.506574   -11647.116   -10732.061    173.36866     102002.7      46.7237      46.7237      46.7237 
  366000    92.664099   -11686.002   -10779.191    172.71049     102002.7      46.7237      46.7237      46.7237 
  367000    91.334351   -11638.292   -10744.494    248.82236     102002.7      46.7237      46.7237      46.7237 
  368000    90.471283   -11648.888   -10763.536    345.21259     102002.7      46.7237      46.7237      46.7237 
  369000    92.359219   -11670.021   -10766.194    311.04371     102002.7      46.7237      46.7237      46.7237 
  370000    87.608518   -11657.204   -10799.867    238.72125     102002.7      46.7237      46.7237      46.7237 
  371000    91.176989   -11653.001   -10760.743    309.28166     102002.7      46.7237      46.7237      46.7237 
  372000    91.480603   -11668.012   -10772.783    266.19859     102002.7      46.7237      46.7237      46.7237 
  373000    89.738824     -11668.8   -10790.616    363.58384     102002.7      46.7237      46.7237      46.7237 
  374000    90.008804    -11661.24   -10780.414    338.94633     102002.7      46.7237      46.7237      46.7237 
  375000    89.161251   -11640.551   -10768.019    415.66102     102002.7      46.7237      46.7237      46.7237 
  376000    90.600476   -11647.166    -10760.55   -6.0609682     102002.7      46.7237      46.7237      46.7237 
  377000    89.413913   -11663.689   -10788.684    289.84101     102002.7      46.7237      46.7237      46.7237 
  378000    90.414209   -11650.508   -10765.715    393.58044     102002.7      46.7237      46.7237      46.7237 
  379000    92.782613   -11653.079   -10745.109    372.68924     102002.7      46.7237      46.7237      46.7237 
  380000    90.152539   -11652.845   -10770.612    353.87046     102002.7      46.7237      46.7237      46.7237 
  381000    89.269207   -11669.831   -10796.242    285.20894     102002.7      46.7237      46.7237      46.7237 
  382000    90.961634   -11643.395   -10753.244    287.80574     102002.7      46.7237      46.7237      46.7237 
  383000    90.111478   -11645.757   -10763.926    213.91886     102002.7      46.7237      46.7237      46.7237 
  384000    92.543014   -11649.958   -10744.332    219.48603     102002.7      46.7237      46.7237      46.7237 
  385000    90.770407   -11649.077   -10760.798    137.90761     102002.7      46.7237      46.7237      46.7237 
  386000    91.308862   -11644.811   -10751.262    499.40497     102002.7      46.7237      46.7237      46.7237 
  387000    93.192964   -11658.667   -10746.681    234.76547     102002.7      46.7237      46.7237      46.7237 
  388000      89.7749   -11650.715   -10772.178    373.50504     102002.7      46.7237      46.7237      46.7237 
  389000    92.365011   -11662.812   -10758.928    347.38201     102002.7      46.7237      46.7237      46.7237 
  390000    91.902903   -11660.685   -10761.323    198.54748     102002.7      46.7237      46.7237      46.7237 
  391000     91.74274   -11662.614    -10764.82    310.10865     102002.7      46.7237      46.7237      46.7237 
  392000    89.866498   -11654.192   -10774.759    296.34938     102002.7      46.7237      46.7237      46.7237 
  393000    89.963661   -11659.657   -10779.273    318.36672     102002.7      46.7237      46.7237      46.7237 
  394000    91.277427   -11658.578   -10765.337    201.14811     102002.7      46.7237      46.7237      46.7237 
  395000    92.618129   -11669.853   -10763.492    262.34133     102002.7      46.7237      46.7237      46.7237 
  396000    89.249837   -11657.024   -10783.625    348.20546     102002.7      46.7237      46.7237      46.7237 
  397000    90.363654   -11667.144   -10782.845    65.770986     102002.7      46.7237      46.7237      46.7237 
  398000    91.636583   -11659.048   -10762.292     220.1073     102002.7      46.7237      46.7237      46.7237 
  399000    92.301002   -11645.287   -10742.029    63.103148     102002.7      46.7237      46.7237      46.7237 
  400000    89.841778   -11664.125   -10784.933   -153.69841     102002.7      46.7237      46.7237      46.7237 
  401000    92.474192   -11648.946   -10743.994    27.695253     102002.7      46.7237      46.7237      46.7237 
  402000    89.363164   -11645.151   -10770.643   -111.42214     102002.7      46.7237      46.7237      46.7237 
  403000    88.954529   -11663.352   -10792.843    243.42598     102002.7      46.7237      46.7237      46.7237 
  404000    92.127568   -11651.311   -10749.751    195.25238     102002.7      46.7237      46.7237      46.7237 
  405000    90.591274   -11655.138   -10768.612    451.23413     102002.7      46.7237      46.7237      46.7237 
  406000    91.056897   -11646.719   -10755.636    561.07665     102002.7      46.7237      46.7237      46.7237 
  407000    93.611657   -11630.686   -10714.602    328.03428     102002.7      46.7237      46.7237      46.7237 
  408000    89.775026   -11654.497   -10775.959    352.36593     102002.7      46.7237      46.7237      46.7237 
  409000    91.499465   -11653.189   -10757.775    31.528674     102002.7      46.7237      46.7237      46.7237 
  410000    91.814866   -11631.606   -10733.105    144.50306     102002.7      46.7237      46.7237      46.7237 
  411000    90.709025   -11681.716   -10794.037    51.429407     102002.7      46.7237      46.7237      46.7237 
  412000    94.128227   -11652.418   -10731.279    178.12369     102002.7      46.7237      46.7237      46.7237 
  413000    88.879129   -11632.758   -10762.987      153.136     102002.7      46.7237      46.7237      46.7237 
  414000    90.166362   -11662.538    -10780.17    361.70361     102002.7      46.7237      46.7237      46.7237 
  415000    90.111291   -11627.821   -10745.992    104.04132     102002.7      46.7237      46.7237      46.7237 
  416000    90.538439   -11656.341   -10770.332    310.27303     102002.7      46.7237      46.7237      46.7237 
  417000    89.469631   -11682.169   -10806.619    371.34202     102002.7      46.7237      46.7237      46.7237 
  418000    92.335591   -11640.491   -10736.895    227.23543     102002.7      46.7237      46.7237      46.7237 
  419000    90.924282   -11653.719   -10763.934    256.93178     102002.7      46.7237      46.7237      46.7237 
  420000    90.671646   -11650.014   -10762.701     155.8046     102002.7      46.7237      46.7237      46.7237 
  421000    90.064217    -11663.64   -10782.272     199.5176     102002.7      46.7237      46.7237      46.7237 
  422000    89.411766   -11633.067   -10758.084    456.71112     102002.7      46.7237      46.7237      46.7237 
  423000    89.569736   -11659.667   -10783.138    103.97955     102002.7      46.7237      46.7237      46.7237 
  424000    92.786149   -11659.884   -10751.878   -39.766387     102002.7      46.7237      46.7237      46.7237 
  425000    93.521295   -11641.519    -10726.32    406.25214     102002.7      46.7237      46.7237      46.7237 
  426000    92.411152   -11661.682   -10757.347    372.85571     102002.7      46.7237      46.7237      46.7237 
  427000    89.688654    -11672.25   -10794.557    242.75417     102002.7      46.7237      46.7237      46.7237 
  428000    91.119864   -11667.421   -10775.722    275.86913     102002.7      46.7237      46.7237      46.7237 
  429000    89.833534   -11660.366   -10781.255    145.59192     102002.7      46.7237      46.7237      46.7237 
  430000    89.013019   -11668.811   -10797.729    83.116785     102002.7      46.7237      46.7237      46.7237 
  431000    91.541696   -11645.236   -10749.409    288.00063     102002.7      46.7237      46.7237      46.7237 
  432000    89.825421   -11645.615   -10766.583    248.32853     102002.7      46.7237      46.7237      46.7237 
  433000    91.909385   -11669.938   -10770.513   -60.735054     102002.7      46.7237      46.7237      46.7237 
  434000    93.023125   -11666.673   -10756.349    410.28847     102002.7      46.7237      46.7237      46.7237 
  435000    91.437045   -11672.769   -10777.966     469.3643     102002.7      46.7237      46.7237      46.7237 
  436000    91.863944   -11668.758   -10769.777    217.01764     102002.7      46.7237      46.7237      46.7237 
  437000    89.676409   -11677.624   -10800.051    261.51944     102002.7      46.7237      46.7237      46.7237 
  438000    91.831177   -11661.254   -10762.594   -44.710483     102002.7      46.7237      46.7237      46.7237 
  439000    90.616747   -11672.291   -10785.515    266.07263     102002.7      46.7237      46.7237      46.7237 
  440000     89.95095   -11643.485   -10763.225    382.71206     102002.7      46.7237      46.7237      46.7237 
  441000    91.649476   -11668.956   -10772.074    76.567448     102002.7      46.7237      46.7237      46.7237 
  442000    90.265093   -11653.553   -10770.219   -145.40081     102002.7      46.7237      46.7237      46.7237 
  443000    90.828968    -11654.81   -10765.958   -39.503478     102002.7      46.7237      46.7237      46.7237 
  444000    92.427614   -11662.426   -10757.929    236.42939     102002.7      46.7237      46.7237      46.7237 
  445000      91.5418   -11665.411   -10769.583    24.905847     102002.7      46.7237      46.7237      46.7237 
  446000    91.206738   -11678.895   -10786.346   -23.819604     102002.7      46.7237      46.7237      46.7237 
  447000    89.792318   -11665.424   -10786.716    227.46765     102002.7      46.7237      46.7237      46.7237 
  448000    89.913753   -11674.051   -10794.155   -121.71891     102002.7      46.7237      46.7237      46.7237 
  449000    90.393858   -11647.428   -10762.834    357.53595     102002.7      46.7237      46.7237      46.7237 
  450000    92.714056    -11663.61   -10756.311    137.16001     102002.7      46.7237      46.7237      46.7237 
  451000    89.593647   -11641.251   -10764.487    149.93879     102002.7      46.7237      46.7237      46.7237 
  452000    90.186484   -11644.214   -10761.649    189.20811     102002.7      46.7237      46.7237      46.7237 
  453000    89.731758   -11642.025    -10763.91    169.50864     102002.7      46.7237      46.7237      46.7237 
  454000    92.304778   -11659.204    -10755.91    96.180756     102002.7      46.7237      46.7237      46.7237 
  455000    90.656775   -11647.648   -10760.481    100.62689     102002.7      46.7237      46.7237      46.7237 
  456000     94.17622   -11665.483   -10743.875    197.23792     102002.7      46.7237      46.7237      46.7237 
  457000    92.364321   -11651.913   -10748.035    111.29853     102002.7      46.7237      46.7237      46.7237 
  458000    90.998328   -11654.461   -10763.951   -66.920443     102002.7      46.7237      46.7237      46.7237 
  459000    91.194482   -11658.249    -10765.82    239.54991     102002.7      46.7237      46.7237      46.7237 
  460000    91.112073   -11646.446   -10754.823    276.42278     102002.7      46.7237      46.7237      46.7237 
  461000     91.38516   -11636.222   -10741.927     522.8025     102002.7      46.7237      46.7237      46.7237 
  462000    89.581069   -11659.929   -10783.288    195.53835     102002.7      46.7237      46.7237      46.7237 
  463000    93.035851   -11658.552   -10748.103    204.62521     102002.7      46.7237      46.7237      46.7237 
  464000    90.342702   -11669.109   -10785.015    241.11109     102002.7      46.7237      46.7237      46.7237 
  465000    91.603733   -11669.012   -10772.578    214.21936     102002.7      46.7237      46.7237      46.7237 
  466000    89.165916   -11646.874   -10774.297     168.1888     102002.7      46.7237      46.7237      46.7237 
  467000    90.343727   -11669.375   -10785.272    259.91231     102002.7      46.7237      46.7237      46.7237 
  468000    90.492675   -11659.577   -10774.016    226.94221     102002.7      46.7237      46.7237      46.7237 
  469000    90.751202   -11674.472   -10786.381    63.547597     102002.7      46.7237      46.7237      46.7237 
  470000    91.779016   -11668.943   -10770.794    68.001333     102002.7      46.7237      46.7237      46.7237 
  471000    88.403294   -11659.847   -10794.733    17.017599     102002.7      46.7237      46.7237      46.7237 
  472000    92.048736   -11646.119    -10745.33    229.06748     102002.7      46.7237      46.7237      46.7237 
  473000    91.294451   -11665.002   -10771.595    258.38227     102002.7      46.7237      46.7237      46.7237 
  474000    92.433056    -11649.78    -10745.23      113.474     102002.7      46.7237      46.7237      46.7237 
  475000    89.995184    -11660.03   -10779.337    86.558541     102002.7      46.7237      46.7237      46.7237 
  476000    89.242664   -11652.366   -10779.037     288.0562     102002.7      46.7237      46.7237      46.7237 
  477000     90.45653    -11635.24   -10750.032    101.77968     102002.7      46.7237      46.7237      46.7237 
  478000    90.948734   -11660.182   -10770.158    333.82351     102002.7      46.7237      46.7237      46.7237 
  479000    91.859901   -11671.546   -10772.605    178.74779     102002.7      46.7237      46.7237      46.7237 
  480000    92.316575   -11655.124   -10751.714    213.36383     102002.7      46.7237      46.7237      46.7237 
  481000    92.112019   -11628.555   -10727.147    428.20591     102002.7      46.7237      46.7237      46.7237 
  482000    88.985869    -11646.24   -10775.425    329.41375     102002.7      46.7237      46.7237      46.7237 
  483000    89.857202    -11642.59   -10763.247    75.901091     102002.7      46.7237      46.7237      46.7237 
  484000    92.215197   -11650.848    -10748.43    100.97339     102002.7      46.7237      46.7237      46.7237 
  485000    89.722991   -11669.288   -10791.259    106.77754     102002.7      46.7237      46.7237      46.7237 
  486000    90.604089   -11650.401    -10763.75    178.24507     102002.7      46.7237      46.7237      46.7237 
  487000    91.414094   -11655.537   -10760.959    375.39244     102002.7      46.7237      46.7237      46.7237 
  488000       90.413   -11653.158   -10768.376    360.57424     102002.7      46.7237      46.7237      46.7237 
  489000    92.645534    -11652.56   -10745.931    363.10779     102002.7      46.7237      46.7237      46.7237 
  490000    90.222875   -11658.395   -10775.474    154.11663     102002.7      46.7237      46.7237      46.7237 
  491000    89.791956   -11660.431   -10781.727    45.884563     102002.7      46.7237      46.7237      46.7237 
  492000    91.505237   -11653.258   -10757.787    376.55122     102002.7      46.7237      46.7237      46.7237 
  493000    90.247892   -11654.142   -10770.976    374.75392     102002.7      46.7237      46.7237      46.7237 
  494000    92.046774   -11640.326   -10739.556    63.616334     102002.7      46.7237      46.7237      46.7237 
  495000    91.917787   -11690.856   -10791.349    261.08602     102002.7      46.7237      46.7237      46.7237 
  496000      91.4047   -11668.962   -10774.476    114.79785     102002.7      46.7237      46.7237      46.7237 
  497000    92.468032   -11660.616   -10755.724    203.93705     102002.7      46.7237      46.7237      46.7237 
  498000    89.540483   -11646.502   -10770.259    239.71784     102002.7      46.7237      46.7237      46.7237 
  499000    90.156922   -11667.452   -10785.177    185.86612     102002.7      46.7237      46.7237      46.7237 
  500000    93.131481   -11665.174   -10753.789    451.47409     102002.7      46.7237      46.7237      46.7237 
  500500    92.342023   -11660.007   -10756.348    207.83255     102002.7      46.7237      46.7237      46.7237 
Loop time of 1928.67 on 16 procs for 500000 steps with 3284 atoms

Performance: 22.399 ns/day, 1.071 hours/ns, 259.246 timesteps/s
99.9% CPU use with 16 MPI tasks x no OpenMP threads

MPI task timing breakdown:
Section |  min time  |  avg time  |  max time  |%varavg| %total
---------------------------------------------------------------
Pair    | 846.97     | 1202       | 1494.3     | 514.8 | 62.32
Bond    | 114.23     | 174.95     | 204.49     | 175.1 |  9.07
Neigh   | 15.016     | 15.062     | 15.109     |   0.8 |  0.78
Comm    | 202.3      | 519.22     | 908.7      | 854.1 | 26.92
Output  | 0.02227    | 0.02281    | 0.027523   |   0.8 |  0.00
Modify  | 9.812      | 10.407     | 11.017     |  12.0 |  0.54
Other   |            | 6.985      |            |       |  0.36

Nlocal:    205.25 ave 239 max 174 min
Histogram: 2 1 2 1 2 2 3 1 0 2
Nghost:    4144.25 ave 4178 max 4111 min
Histogram: 1 2 3 1 2 2 0 1 0 4
Neighs:    11464.6 ave 16994 max 6602 min
Histogram: 2 1 0 2 4 2 4 0 0 1

Total # of neighbors = 183434
Ave neighs/atom = 55.8569
Ave special neighs/atom = 3.50792
Neighbor list builds = 4129
Dangerous builds = 0
Neighbor list info ...
  update every 1 steps, delay 10 steps, check yes
  max neighbors/atom: 2000, page size: 100000
  master list distance cutoff = 16
  ghost atom cutoff = 16
  binsize = 8, bins = 6 6 6
  3 neighbor lists, perpetual/occasional/extra = 3 0 0
  (1) pair buck6d/coul/gauss/dsf, perpetual, skip from (3)
      attributes: half, newton on
      pair build: skip
      stencil: none
      bin: none
  (2) pair lj/cut, perpetual, skip from (3)
      attributes: half, newton on
      pair build: skip
      stencil: none
      bin: none
  (3) neighbor class addition, perpetual
      attributes: half, newton on
      pair build: half/bin/newton
      stencil: half/bin/3d/newton
      bin: standard
Setting up Verlet run ...
  Unit style    : real
  Current step  : 500500
  Time step     : 1
WARNING: Inconsistent image flags (../domain.cpp:786)
Per MPI rank memory allocation (min/avg/max) = 22.8 | 23.28 | 23.44 Mbytes
Step Time TotEng KinEng PotEng E_mol E_pair Temp Pxx Pyy Pzz Pxy Pxz Pyz Cella Cellb Cellc CellAlpha CellBeta CellGamma Volume Press 
  500500       500000   -10756.348    903.65898   -11660.007    4143.1698   -15803.176    92.342023    589.28323    161.70981    -127.4954    17.965175   -41.175386    147.44061      46.7237      46.7237      46.7237           90           90           90     102002.7    207.83255 
  501000       500500   -10763.332    912.38975   -11675.722    4138.3076   -15814.029    93.234192    56.178036     403.9188    129.29536    247.58804   -159.94324   -131.35752      46.7237      46.7237      46.7237           90           90           90     102002.7    196.46406 
  502000       501500   -10791.746    883.72003   -11675.466    4150.6332   -15826.099    90.304526    227.55982    350.54036    114.97239    -117.9644   -50.998663    82.236508      46.7237      46.7237      46.7237           90           90           90     102002.7    231.02419 
  503000       502500   -10765.321    892.72485   -11658.045    4144.8357   -15802.881    91.224699   -253.77847    142.30474    205.31072   -196.13524    72.763673   -65.290932      46.7237      46.7237      46.7237           90           90           90     102002.7    31.278997 
  504000       503500   -10766.806     887.7259   -11654.532    4170.5142   -15825.046    90.713872    283.69732    1.9787477     -205.405    165.85513    17.794977    60.152293      46.7237      46.7237      46.7237           90           90           90     102002.7    26.757023 
  505000       504500   -10777.975    891.33661   -11669.312    4139.2755   -15808.587     91.08284    331.05003   -79.455607   -137.18137    116.12988    63.496923   -194.59232      46.7237      46.7237      46.7237           90           90           90     102002.7    38.137686 
  506000       505500   -10747.862     898.1261   -11645.988    4154.6023    -15800.59    91.776635    339.05272   -25.303551    205.45989    180.13095     -200.777   -151.43383      46.7237      46.7237      46.7237           90           90           90     102002.7    173.06969 
  507000       506500   -10788.105    889.08084   -11677.186    4144.6833    -15821.87     90.85233    275.49272    103.58123    78.880277   -235.18404    125.57632    127.57532      46.7237      46.7237      46.7237           90           90           90     102002.7    152.65141 
  508000       507500   -10783.255    867.18015   -11650.435    4161.5359   -15811.971    88.614368    258.24926    -97.36392   -9.7040223   -258.16363    16.614949   -79.701394      46.7237      46.7237      46.7237           90           90           90     102002.7    50.393772 
  509000       508500   -10772.472    887.86433   -11660.336    4137.2359   -15797.572    90.728018    578.55138    348.96707    370.91107   -93.910633   -149.55701    26.128161      46.7237      46.7237      46.7237           90           90           90     102002.7    432.80984 
  510000       509500   -10768.707     896.0742   -11664.781    4162.7749   -15827.556    91.566958    156.77528    283.31172    202.74962    59.098859   -61.825635    -10.28832      46.7237      46.7237      46.7237           90           90           90     102002.7    214.27887 
  511000       510500   -10733.371    924.33466   -11657.706    4150.0325   -15807.738    94.454804     118.4979    128.78827    198.86175   -200.65833    218.04018    56.918972      46.7237      46.7237      46.7237           90           90           90     102002.7    148.71598 
  512000       511500   -10770.686    878.40883   -11649.095    4169.2495   -15818.344    89.761791    122.50889     255.9548    334.76406    8.5659924    235.10842    73.060125      46.7237      46.7237      46.7237           90           90           90     102002.7    237.74258 
  513000       512500   -10758.642    911.65184   -11670.293    4138.5468    -15808.84    93.158787    324.68025   -18.987997   -51.437798    17.065049   -5.2675211   -48.738017      46.7237      46.7237      46.7237           90           90           90     102002.7    84.751484 
  514000       513500   -10798.346    884.79825   -11683.145    4134.3298   -15817.475    90.414705      399.113   -203.47688    254.31396    140.02734    77.246745    78.101292      46.7237      46.7237      46.7237           90           90           90     102002.7    149.98336 
  515000       514500    -10767.05    890.08365   -11657.134    4146.3586   -15803.492    90.954804   -326.44989    600.29189   -335.06943   -112.36314   -129.27606   -48.861789      46.7237      46.7237      46.7237           90           90           90     102002.7   -20.409143 
  516000       515500   -10766.021    886.66418   -11652.685    4158.8961   -15811.581    90.605378   -290.82083    190.18668     109.4868    87.704975     117.4576    59.644568      46.7237      46.7237      46.7237           90           90           90     102002.7    2.9508831 
  517000       516500   -10772.768    894.56321   -11667.331    4145.3327   -15812.664    91.412555     212.6229    272.78454    240.95659    25.559995   -91.004886    108.28251      46.7237      46.7237      46.7237           90           90           90     102002.7    242.12134 
  518000       517500   -10761.352    888.28758   -11649.639    4158.6766   -15808.316    90.771269    235.83449    23.263351    122.99626    105.02562   -86.596525    299.37973      46.7237      46.7237      46.7237           90           90           90     102002.7     127.3647 
  519000       518500    -10775.48    898.88166   -11674.362    4147.7218   -15822.084    91.853844    183.44139     106.8498    410.25096   -267.93588   -191.59711   -267.42182      46.7237      46.7237      46.7237           90           90           90     102002.7    233.51405 
  520000       519500   -10768.882    888.32223   -11657.205    4150.6837   -15807.888    90.774809    353.01434    132.01258    593.72165   -39.701028   -10.708455   -127.90507      46.7237      46.7237      46.7237           90           90           90     102002.7    359.58286 
  521000       520500   -10777.173    874.77006   -11651.943    4161.0342   -15812.977    89.389956    561.75317   -169.22108     447.3153    132.14093    175.44594   -67.893884      46.7237      46.7237      46.7237           90           90           90     102002.7    279.94913 
  522000       521500   -10761.771    894.88496   -11656.656    4149.8418   -15806.498    91.445434    211.44033    341.79149    353.75097    162.39787    17.599577    43.943069      46.7237      46.7237      46.7237           90           90           90     102002.7     302.3276 
  523000       522500   -10778.383    880.94596   -11659.329    4162.0123   -15821.341    90.021052    237.90048     298.8801    308.09209   -398.87969    81.198309   -171.34652      46.7237      46.7237      46.7237           90           90           90     102002.7    281.62423 
  524000       523500   -10798.276    889.74353   -11688.019    4130.9386   -15818.958    90.920048     552.0914    171.10975    20.409166    13.864411    35.610437    114.87976      46.7237      46.7237      46.7237           90           90           90     102002.7     247.8701 
  525000       524500   -10759.846    893.06176   -11652.908    4174.6068   -15827.515    91.259127   -85.194158    392.49322    401.83508   -67.985794   -167.67446   -14.272232      46.7237      46.7237      46.7237           90           90           90     102002.7    236.37805 
  526000       525500   -10784.432     884.0625   -11668.494    4149.3126   -15817.807    90.339521    -207.4656    177.70695    160.50757   -124.33355   -15.877237     287.1022      46.7237      46.7237      46.7237           90           90           90     102002.7    43.582972 
  527000       526500   -10784.501    886.45548   -11670.957    4140.1533    -15811.11    90.584052    585.28437     237.6765   -181.83252   -220.79317   -61.437171    -23.43663      46.7237      46.7237      46.7237           90           90           90     102002.7    213.70945 
  528000       527500   -10781.418    873.76192    -11655.18    4163.0536   -15818.234    89.286938   -221.71995    233.57327    -216.5193    55.134599    272.83165   -265.74564      46.7237      46.7237      46.7237           90           90           90     102002.7   -68.221995 
  529000       528500   -10751.455    891.83747   -11643.292    4148.8451   -15792.137    91.134021    51.695319    201.14164    44.717274    232.12375   -1.8302331   -239.09368      46.7237      46.7237      46.7237           90           90           90     102002.7    99.184745 
  530000       529500   -10775.414    896.02431   -11671.439    4134.8355   -15806.274    91.561861    207.67388    128.47189    366.56654   -23.233256    1.6127306   -75.431074      46.7237      46.7237      46.7237           90           90           90     102002.7    234.23743 
  531000       530500   -10730.754    891.80019   -11622.554    4169.6833   -15792.238    91.130211   -119.73656    287.85631   -98.973953   -53.782126    -30.96331    61.885736      46.7237      46.7237      46.7237           90           90           90     102002.7    23.048602 
  532000       531500   -10765.304    884.56166   -11649.866    4174.9129   -15824.779    90.390529    240.05635     259.0022    267.83549      3.49403    144.06502    131.08995      46.7237      46.7237      46.7237           90           90           90     102002.7    255.63135 
  533000       532500   -10778.212     885.3145   -11663.526    4153.1757   -15816.702    90.467459    137.42085    95.496447    547.44688   -168.25856    64.643111    27.074944      46.7237      46.7237      46.7237           90           90           90     102002.7    260.12139 
  534000       533500   -10781.188    896.04612   -11677.234    4135.0498   -15812.284    91.564089    10.990421    15.837981    363.16532    88.487613    326.91981   -238.00645      46.7237      46.7237      46.7237           90           90           90     102002.7    129.99791 
  535000       534500   -10755.173    890.31723   -11645.491    4145.9399   -15791.431    90.978672    167.90507    144.26337     453.2957   -240.19553    55.703961   -171.95216      46.7237      46.7237      46.7237           90           90           90     102002.7    255.15472 
  536000       535500    -10797.35    905.44206   -11702.792    4130.5135   -15833.306     92.52423    154.84709    62.368054    101.90155     7.297812    129.69836    126.16373      46.7237      46.7237      46.7237           90           90           90     102002.7    106.37223 
  537000       536500   -10763.692    881.06566   -11644.758    4157.6487   -15802.407    90.033283   -98.437778    272.86623    227.83891    67.778456   -209.24095   -91.361106      46.7237      46.7237      46.7237           90           90           90     102002.7    134.08912 
  538000       537500   -10766.362    881.62213   -11647.984    4159.5028   -15807.487    90.090148    188.38519    20.143507    120.62992    279.51437   -16.441921   -121.18381      46.7237      46.7237      46.7237           90           90           90     102002.7    109.71954 
  539000       538500   -10743.978    918.48531   -11662.463    4146.3494   -15808.812    93.857078    159.61521    92.608349     498.0453    -221.5778    25.151712    82.699412      46.7237      46.7237      46.7237           90           90           90     102002.7    250.08962 
  540000       539500   -10760.265    895.96823   -11656.233    4143.5808   -15799.814    91.556129   -465.50477   -144.06404    329.44689    -40.42033    146.57184    -1.213062      46.7237      46.7237      46.7237           90           90           90     102002.7   -93.373971 
  541000       540500   -10757.133    891.00543   -11648.138    4159.9824    -15808.12    91.048997   -145.73035    508.75245    10.699318   -88.207021    23.189089   -16.326444      46.7237      46.7237      46.7237           90           90           90     102002.7    124.57381 
  542000       541500   -10753.661    897.70286   -11651.364     4164.999   -15816.363    91.733386    4.0564404    443.76874    290.74013    -58.92133   -25.351151   -64.572113      46.7237      46.7237      46.7237           90           90           90     102002.7    246.18844 
  543000       542500   -10777.007    873.93119   -11650.938    4179.1965   -15830.135    89.304235   -249.87047    346.95572   -162.19543    270.23246    69.651403   -108.01147      46.7237      46.7237      46.7237           90           90           90     102002.7   -21.703392 
  544000       543500   -10751.013    891.27008   -11642.283    4155.0528   -15797.336    91.076041     600.1874    261.95412    47.724103   -89.052065   -172.07239   -233.04561      46.7237      46.7237      46.7237           90           90           90     102002.7    303.28854 
  545000       544500    -10802.56     876.9856   -11679.545    4139.7351    -15819.28    89.616356    419.94117   -138.93843   -92.460213    12.865966    61.238676    66.734738      46.7237      46.7237      46.7237           90           90           90     102002.7    62.847509 
  546000       545500   -10748.939    881.25962   -11630.199    4161.8577   -15792.057    90.053104   -18.832508   -25.372726   -177.59828   -88.161634   -58.956804    45.565284      46.7237      46.7237      46.7237           90           90           90     102002.7   -73.934505 
  547000       546500   -10757.711    892.22331   -11649.934    4149.5345   -15799.469    91.173449    428.33793    412.56018    416.45542     68.69389   0.27234801    85.209186      46.7237      46.7237      46.7237           90           90           90     102002.7    419.11784 
  548000       547500   -10793.368    885.39111   -11678.759    4146.0308    -15824.79    90.475287    227.87913    254.99585    166.02937   -7.3642829    75.659076   -6.7423758      46.7237      46.7237      46.7237           90           90           90     102002.7    216.30145 
  549000       548500     -10745.8    904.77102   -11650.571    4176.9284   -15827.499    92.455659   -254.14702   -163.20692    34.068701   -217.11205    -44.48313    151.63717      46.7237      46.7237      46.7237           90           90           90     102002.7   -127.76175 
  550000       549500     -10767.8    885.36639   -11653.167      4137.45   -15790.617    90.472762    78.289151     452.0867    596.69611    36.623534   -25.747308     17.98261      46.7237      46.7237      46.7237           90           90           90     102002.7    375.69066 
  551000       550500   -10756.501    897.92247   -11654.423    4151.4329   -15805.856    91.755827    637.69011    299.54107    428.63561   -36.906982   -152.90138   -301.49564      46.7237      46.7237      46.7237           90           90           90     102002.7    455.28893 
  552000       551500   -10763.162    875.45902   -11638.621    4149.2905   -15787.912    89.460359    539.17211     77.40439    385.26309    -78.06668     115.2413   -287.68111      46.7237      46.7237      46.7237           90           90           90     102002.7    333.94653 
  553000       552500   -10765.518    896.52836   -11662.046     4146.695   -15808.741    91.613368     286.6227    435.31088    290.12501   -183.38202   -78.830389    57.327508      46.7237      46.7237      46.7237           90           90           90     102002.7    337.35286 
  554000       553500   -10746.351    896.66205   -11643.013    4137.1003   -15780.114    91.627029    93.587267   -121.89239    268.84735   -116.13776   -157.26352    117.14336      46.7237      46.7237      46.7237           90           90           90     102002.7    80.180744 
  555000       554500   -10772.075    875.97058   -11648.046    4159.1787   -15807.225    89.512634    431.76526    157.17118    3.6021098   -258.02109   -44.165539   -4.0149285      46.7237      46.7237      46.7237           90           90           90     102002.7    197.51285 
[...]
  936000       935500   -10795.313     886.4319   -11681.745    4140.5067   -15822.252    90.581643    399.50105    157.15137    472.41293   -151.44079    -32.24816    30.932085      46.7237      46.7237      46.7237           90           90           90     102002.7    343.02178 
  937000       936500   -10761.193    897.50059   -11658.694    4148.3785   -15807.072    91.712717     427.1053    157.71646    59.122401     31.82424    87.893212    50.247545      46.7237      46.7237      46.7237           90           90           90     102002.7    214.64805 
  938000       937500   -10770.902    889.87358   -11660.775    4156.7331   -15817.508    90.933337    316.41713    215.54659    87.053042    95.816597   -186.55378    52.162021      46.7237      46.7237      46.7237           90           90           90     102002.7    206.33892 
  939000       938500   -10776.406      901.274    -11677.68    4147.3238   -15825.003    92.098309    341.56863   -117.22954    211.57543   -33.126467    299.29779   -28.340854      46.7237      46.7237      46.7237           90           90           90     102002.7    145.30484 
  940000       939500   -10786.258    889.77008   -11676.028    4137.7201   -15813.748     90.92276    384.84348    205.29598   -196.10858   -39.850001    138.80007   -102.83238      46.7237      46.7237      46.7237           90           90           90     102002.7    131.34362 
  941000       940500   -10786.717    886.21796   -11672.935    4141.5036   -15814.438    90.559781    247.44015    436.90855    271.45226    52.715566    19.879412    251.92067      46.7237      46.7237      46.7237           90           90           90     102002.7    318.60032 
  942000       941500   -10799.475    859.30264   -11658.778      4149.73   -15808.508     87.80939    699.13141    335.72399    691.02519    24.389953    193.86886    182.54471      46.7237      46.7237      46.7237           90           90           90     102002.7    575.29353 
  943000       942500   -10755.009    907.10839   -11662.117    4152.8977   -15815.015    92.694507    121.78479    125.11615     377.4348   -24.398406    60.220246   -47.496001      46.7237      46.7237      46.7237           90           90           90     102002.7    208.11191 
  944000       943500   -10773.211    886.96107   -11660.172    4144.3232   -15804.495    90.635717    284.70293    61.866163    810.11542     -77.4997    36.624305   -329.98387      46.7237      46.7237      46.7237           90           90           90     102002.7    385.56151 
  945000       944500   -10805.568    885.87702   -11691.445    4129.6723   -15821.117    90.524941    189.98215    177.72291    530.33245    51.474753    95.068822   -159.59104      46.7237      46.7237      46.7237           90           90           90     102002.7    299.34584 
  946000       945500   -10778.141    899.21342   -11677.354    4134.8557    -15812.21    91.887746    419.88081    123.93289    355.51088    137.59265    5.9907878    105.54538      46.7237      46.7237      46.7237           90           90           90     102002.7    299.77486 
  947000       946500   -10785.546    887.01706   -11672.563    4144.5191   -15817.082    90.641439    57.614662   -67.236593     385.5648    25.285832    140.28475    76.194868      46.7237      46.7237      46.7237           90           90           90     102002.7    125.31429 
  948000       947500   -10785.565    872.56384   -11658.129    4162.9155   -15821.044     89.16451   -58.971185    77.222214    168.35368    41.629038    161.77954    114.00237      46.7237      46.7237      46.7237           90           90           90     102002.7    62.201571 
  949000       948500   -10788.022    878.20924   -11666.231    4143.0986    -15809.33    89.741395    147.82808   -42.413032   -124.21708   -14.278411   -29.111293    225.04262      46.7237      46.7237      46.7237           90           90           90     102002.7   -6.2673453 
  950000       949500   -10777.095    901.73881   -11678.834    4149.6597   -15828.493    92.145806     -114.548    174.88846    417.59351    158.00964   -109.99614   -240.64901      46.7237      46.7237      46.7237           90           90           90     102002.7    159.31132 
  951000       950500   -10781.351    887.60836   -11668.959    4142.4414   -15811.401    90.701861    -84.68691    540.17742    50.584211   -133.78851   -274.59742    39.347986      46.7237      46.7237      46.7237           90           90           90     102002.7    168.69157 
  952000       951500   -10787.078    887.14532   -11674.223    4162.1132   -15836.337    90.654545    206.22241   -46.681061   -128.76338   -74.164403    224.50066    14.067583      46.7237      46.7237      46.7237           90           90           90     102002.7    10.259324 
  953000       952500   -10791.981    861.85727   -11653.838    4137.8651   -15791.703     88.07044    419.63071    245.12666     226.9458   -77.491444    28.002345    105.95727      46.7237      46.7237      46.7237           90           90           90     102002.7    297.23439 
  954000       953500   -10760.713    905.62312   -11666.337    4140.9202   -15807.257    92.542733   -53.846066    160.70007    202.09663    44.406304    78.443379    44.717225      46.7237      46.7237      46.7237           90           90           90     102002.7    102.98355 
  955000       954500   -10784.534    893.48657    -11678.02    4141.8533   -15819.874    91.302537    29.760676   -154.99424   -139.06961    -78.62053    96.084633    342.73224      46.7237      46.7237      46.7237           90           90           90     102002.7   -88.101058 
  956000       955500   -10765.029    894.87194     -11659.9    4122.9013   -15782.802    91.444103    952.26639    240.14636     466.9477    100.49053   -85.843695    130.75027      46.7237      46.7237      46.7237           90           90           90     102002.7    553.12015 
  957000       956500   -10759.498    871.24716   -11630.745    4162.1346   -15792.879    89.029962    161.85362   -219.51444     269.5273   -149.97111    72.746431   -96.422758      46.7237      46.7237      46.7237           90           90           90     102002.7    70.622157 
  958000       957500   -10755.694    892.33522   -11648.029    4154.7093   -15802.739    91.184885   -129.42342    92.580324    463.11722     94.48022   -99.132017    116.01367      46.7237      46.7237      46.7237           90           90           90     102002.7    142.09137 
  959000       958500   -10742.899    896.69085    -11639.59    4169.7898    -15809.38    91.629972    289.10302    296.68188    31.180613    114.93355    105.47674   -79.140096      46.7237      46.7237      46.7237           90           90           90     102002.7    205.65517 
  960000       959500   -10768.226    894.10284   -11662.328    4150.4447   -15812.773    91.365512    209.31181   -29.272999   -270.97961   -126.30971    16.699269    142.91809      46.7237      46.7237      46.7237           90           90           90     102002.7   -30.313602 
  961000       960500    -10763.53    888.65348   -11652.184    4152.5009   -15804.684    90.808659    193.74668   -92.115778   -140.45262     19.63396    53.407247    80.253146      46.7237      46.7237      46.7237           90           90           90     102002.7   -12.940573 
  962000       961500   -10738.142     901.4904   -11639.632     4169.981   -15809.613    92.120422    -204.0399    462.19653   -134.42858   -23.306812   -131.56476    59.941209      46.7237      46.7237      46.7237           90           90           90     102002.7    41.242683 
  963000       962500    -10793.71    871.88507   -11665.595    4156.6849    -15822.28    89.095148    119.15699   -173.43449  -0.73289443   -11.402517    52.070779   -20.122022      46.7237      46.7237      46.7237           90           90           90     102002.7   -18.336799 
  964000       963500   -10790.224    891.88508   -11682.109    4138.3163   -15820.425    91.138886    339.02001    133.10664    -161.9005    -50.04634     155.8223     150.4969      46.7237      46.7237      46.7237           90           90           90     102002.7    103.40871 
  965000       964500   -10765.971    892.22163   -11658.193    4149.3361   -15807.529    91.173277    182.15402    115.65091    292.65285    114.17969    71.481518    -311.2501      46.7237      46.7237      46.7237           90           90           90     102002.7    196.81926 
  966000       965500    -10798.65    876.60002    -11675.25      4145.23    -15820.48    89.576954    132.38825     283.0954   -372.04627    244.96102   -41.435234   -83.423984      46.7237      46.7237      46.7237           90           90           90     102002.7    14.479126 
  967000       966500   -10765.592    897.46114   -11663.053    4156.2542   -15819.307    91.708686    307.16182    383.23412    117.37558     80.65095   -70.851359    243.06001      46.7237      46.7237      46.7237           90           90           90     102002.7    269.25717 
  968000       967500   -10769.835     886.6786   -11656.514    4136.3076   -15792.822    90.606852    93.789462    30.453393    666.13387    82.579624    82.849465   -213.35224      46.7237      46.7237      46.7237           90           90           90     102002.7    263.45891 
  969000       968500   -10775.872    894.27382   -11670.146     4149.286   -15819.432    91.382983   -300.50892    259.74711    176.51473    74.354029    83.362937    65.466874      46.7237      46.7237      46.7237           90           90           90     102002.7    45.250971 
  970000       969500   -10721.729    898.17071     -11619.9    4165.5717   -15785.471    91.781194    240.84448     162.9643    277.52322   -143.79036    117.29102    11.534183      46.7237      46.7237      46.7237           90           90           90     102002.7    227.11066 
  971000       970500   -10788.633    884.00266   -11672.635    4140.5965   -15813.232    90.333407    458.96266    154.12775    101.98989   -8.0585863     169.3723   -75.065017      46.7237      46.7237      46.7237           90           90           90     102002.7     238.3601 
  972000       971500   -10769.732    887.92589   -11657.658    4160.9558   -15818.614    90.734308   -250.82138   -138.61845   -522.42752   -23.821044   -203.85998     136.4703      46.7237      46.7237      46.7237           90           90           90     102002.7   -303.95578 
  973000       972500   -10767.541    881.08312   -11648.624    4158.5396   -15807.164    90.035068     57.54335   -320.04974     46.61839    -76.53551   -64.134788   -159.86093      46.7237      46.7237      46.7237           90           90           90     102002.7   -71.962666 
  974000       973500   -10787.357    891.76624   -11679.123    4121.3601   -15800.483    91.126742   0.77182542    497.84934    439.26829    34.317842   -37.513531   -140.50545      46.7237      46.7237      46.7237           90           90           90     102002.7    312.62982 
  975000       974500   -10731.856    911.11337   -11642.969    4162.4782   -15805.447    93.103764    513.51779   -135.58954    350.29737    3.2422768    159.79961   -43.488167      46.7237      46.7237      46.7237           90           90           90     102002.7    242.74187 
  976000       975500   -10750.813    883.56161   -11634.375     4150.492   -15784.867    90.288337    656.65223    386.27962    586.87036     28.54321    146.01116   -299.43067      46.7237      46.7237      46.7237           90           90           90     102002.7     543.2674 
  977000       976500   -10756.429    899.94552   -11656.374    4159.9529   -15816.327    91.962556    278.34077    372.37511    135.69376    168.99647    163.97576   -120.88908      46.7237      46.7237      46.7237           90           90           90     102002.7    262.13655 
  978000       977500   -10742.843    904.82653   -11647.669    4162.9104    -15810.58    92.461331    825.52628    72.804141    471.96037   -54.022367   -212.15245    134.58348      46.7237      46.7237      46.7237           90           90           90     102002.7     456.7636 
  979000       978500   -10782.199    893.86215   -11676.061    4155.3681    -15831.43    91.340916     492.6139     514.0645    172.09313    73.041118    16.884315    48.674737      46.7237      46.7237      46.7237           90           90           90     102002.7    392.92384 
  980000       979500   -10768.186    898.06696   -11666.253    4135.9361   -15802.189    91.770592   -174.11835     5.618452    49.596053    71.214417   -146.28783   -131.19842      46.7237      46.7237      46.7237           90           90           90     102002.7   -39.634614 
  981000       980500   -10799.434    887.15735   -11686.591    4133.6442   -15820.235    90.655774    -412.6711    23.790539    226.35662   -22.324251     39.78858   -10.642362      46.7237      46.7237      46.7237           90           90           90     102002.7   -54.174649 
  982000       981500   -10746.091    914.30044   -11660.391    4159.0478   -15819.439     93.42944    163.60937    370.84421    655.26109    266.21255   -84.027397    -42.71532      46.7237      46.7237      46.7237           90           90           90     102002.7    396.57156 
  983000       982500   -10751.315    895.84651   -11647.162    4169.6683    -15816.83    91.543692    -195.3445   -62.409685    137.89083   -112.36622    49.842704   -24.768553      46.7237      46.7237      46.7237           90           90           90     102002.7    -39.95445 
  984000       983500   -10778.693    875.97632   -11654.669    4152.1286   -15806.798     89.51322    203.13694    337.26482    166.01761   -95.111647   -122.10286   -166.97559      46.7237      46.7237      46.7237           90           90           90     102002.7    235.47312 
  985000       984500   -10781.425    889.11352   -11670.538     4145.226   -15815.764    90.855669    855.59061    234.36988    96.288585    139.11907    56.628027    34.447823      46.7237      46.7237      46.7237           90           90           90     102002.7    395.41636 
  986000       985500   -10766.889    897.98143   -11664.871    4142.6404   -15807.511    91.761852     246.6189    12.754885    187.73569    107.83384   -64.084815   -281.78328      46.7237      46.7237      46.7237           90           90           90     102002.7    149.03649 
  987000       986500   -10724.679    918.71979   -11643.399    4155.6045   -15799.004    93.881039    678.77095    88.125268    854.69065   -47.149145    93.505013   -45.750833      46.7237      46.7237      46.7237           90           90           90     102002.7    540.52896 
  988000       987500   -10756.139    894.78121   -11650.921      4153.58   -15804.501    91.434832   -20.569131     463.4484     368.8084   -51.901329   -20.858287    286.98078      46.7237      46.7237      46.7237           90           90           90     102002.7    270.56256 
  989000       988500   -10756.478    897.02421   -11653.502    4149.0082   -15802.511    91.664037   -107.12496    332.44194   -35.782737    21.358642   -54.371295    14.746365      46.7237      46.7237      46.7237           90           90           90     102002.7    63.178081 
  990000       989500   -10772.982    889.28075   -11662.262    4160.5485   -15822.811    90.872757    485.69795    353.12196    273.46286   -50.248675   -32.754886   -164.36016      46.7237      46.7237      46.7237           90           90           90     102002.7    370.76092 
  991000       990500   -10796.932    901.71642   -11698.649    4137.9435   -15836.592    92.143519     120.7328   -5.3875279     397.0775    274.25966   -171.70381    111.92728      46.7237      46.7237      46.7237           90           90           90     102002.7    170.80759 
  992000       991500   -10766.469       880.87   -11647.339    4150.3247   -15797.664     90.01329    483.24196    127.79715    606.90651    32.844752    -167.6351   -10.668093      46.7237      46.7237      46.7237           90           90           90     102002.7    405.98188 
  993000       992500   -10758.398    899.16752   -11657.565    4156.2283   -15813.794    91.883055    521.08632    399.41265    744.43375   -192.91675    118.63265   -16.230869      46.7237      46.7237      46.7237           90           90           90     102002.7    554.97757 
  994000       993500   -10735.617    894.65155   -11630.269     4167.079   -15797.348    91.421582    -173.3588    76.417774    252.01161   -122.98069    49.281831     111.0176      46.7237      46.7237      46.7237           90           90           90     102002.7    51.690194 
  995000       994500   -10768.877    882.40357   -11651.281    4128.7356   -15780.017        90.17    314.27547    610.86928    482.27121    94.704809   -108.56149    -101.3165      46.7237      46.7237      46.7237           90           90           90     102002.7    469.13865 
  996000       995500   -10726.497    918.68423   -11645.181    4154.2287    -15799.41    93.877405    290.86668    148.31018    390.67097     194.1518   -351.88921    40.209932      46.7237      46.7237      46.7237           90           90           90     102002.7    276.61594 
  997000       996500   -10769.482    901.84529   -11671.328    4161.9943   -15833.322    92.156688   -226.27218    295.70286    526.52267    -7.549845   -11.811412    161.44494      46.7237      46.7237      46.7237           90           90           90     102002.7    198.65112 
  998000       997500   -10746.561    894.44027   -11641.002    4181.6634   -15822.665    91.399992    391.54445    344.32668   -55.455805   -152.81948   -32.647096    -26.55567      46.7237      46.7237      46.7237           90           90           90     102002.7    226.80511 
  999000       998500    -10760.19     903.0927   -11663.283    4141.7497   -15805.032    92.284157    260.56757    221.44329    347.91094   -24.474783    21.867894    -35.66315      46.7237      46.7237      46.7237           90           90           90     102002.7     276.6406 
 1000000       999500   -10753.506    900.58242   -11654.088    4146.1071   -15800.195    92.027639    233.99716    -213.1335    387.18866    208.77698   -69.152685    221.21156      46.7237      46.7237      46.7237           90           90           90     102002.7    136.01744 
 1000500      1000000   -10755.324    885.41146   -11640.735    4139.1764   -15779.912    90.477367     235.9106    424.86742   -204.05252    77.414521   -151.07911    52.061309      46.7237      46.7237      46.7237           90           90           90     102002.7    152.24183 
Loop time of 2312.98 on 16 procs for 500000 steps with 3284 atoms

Performance: 18.677 ns/day, 1.285 hours/ns, 216.171 timesteps/s
99.9% CPU use with 16 MPI tasks x no OpenMP threads

MPI task timing breakdown:
Section |  min time  |  avg time  |  max time  |%varavg| %total
---------------------------------------------------------------
Pair    | 1226.7     | 1518.3     | 1843       | 455.2 | 65.64
Bond    | 117.99     | 184.27     | 209.69     | 197.0 |  7.97
Neigh   | 14.79      | 14.864     | 14.916     |   1.1 |  0.64
Comm    | 223.31     | 563.87     | 921.59     | 802.3 | 24.38
Output  | 0.13421    | 0.14054    | 0.14113    |   0.4 |  0.01
Modify  | 24.026     | 24.492     | 24.801     |   5.4 |  1.06
Other   |            | 7.063      |            |       |  0.31

Nlocal:    205.25 ave 258 max 165 min
Histogram: 1 2 2 5 0 2 1 1 1 1
Nghost:    4146 ave 4187 max 4088 min
Histogram: 1 0 2 0 2 2 2 5 0 2
Neighs:    11461.1 ave 16936 max 6492 min
Histogram: 2 2 2 0 1 3 3 1 1 1

Total # of neighbors = 183378
Ave neighs/atom = 55.8398
Ave special neighs/atom = 3.50792
Neighbor list builds = 4119
Dangerous builds = 0
Total wall time: 1:10:49
