LAMMPS (30 Mar 2018)
Reading data file ...
  orthogonal box = (0 0 0) to (46.7237 46.7237 46.7237)
  2 by 3 by 4 MPI processor grid
  reading atoms ...
  3111 atoms
  scanning bonds ...
  5 = max bonds/atom
  scanning angles ...
  10 = max angles/atom
  scanning dihedrals ...
  32 = max dihedrals/atom
  scanning impropers ...
  3 = max impropers/atom
  reading bonds ...
  2064 bonds
  reading angles ...
  3696 angles
  reading dihedrals ...
  6240 dihedrals
  reading impropers ...
  1008 impropers
Finding 1-2 1-3 1-4 neighbors ...
  special bond factors lj:   0          0          0         
  special bond factors coul: 0          0          0         
  5 = max # of 1-2 neighbors
  8 = max # of 1-3 neighbors
  20 = max # of 1-4 neighbors
  19 = max # of special neighbors
Finding 1-2 1-3 1-4 neighbors ...
  special bond factors lj:   0          0          1         
  special bond factors coul: 1          1          1         
  5 = max # of 1-2 neighbors
  8 = max # of 1-3 neighbors
  19 = max # of special neighbors
WARNING: Using 'neigh_modify every 1 delay 0 check yes' setting during minimization (../min.cpp:168)
Neighbor list info ...
  update every 1 steps, delay 0 steps, check yes
  max neighbors/atom: 2000, page size: 100000
  master list distance cutoff = 16
  ghost atom cutoff = 16
  binsize = 8, bins = 6 6 6
  3 neighbor lists, perpetual/occasional/extra = 3 0 0
  (1) pair buck6d/coul/gauss/dsf, perpetual, skip from (3)
      attributes: half, newton on
      pair build: skip
      stencil: none
      bin: none
  (2) pair lj/cut, perpetual, skip from (3)
      attributes: half, newton on
      pair build: skip
      stencil: none
      bin: none
  (3) neighbor class addition, perpetual
      attributes: half, newton on
      pair build: half/bin/newton
      stencil: half/bin/3d/newton
      bin: standard
Setting up cg style minimization ...
  Unit style    : real
  Current step  : 0
WARNING: Inconsistent image flags (../domain.cpp:786)
Per MPI rank memory allocation (min/avg/max) = 22.97 | 23.34 | 24.52 Mbytes
Step Temp E_pair E_mol TotEng Press 
       0            0   -15164.685    6482.8914   -8681.7935    5818.7137 
     500            0   -15559.316     3752.438   -11806.878   -2105.0077 
Loop time of 1.92795 on 24 procs for 500 steps with 3111 atoms

98.0% CPU use with 24 MPI tasks x no OpenMP threads

Minimization stats:
  Stopping criterion = max force evaluations
  Energy initial, next-to-last, final = 
        -8681.79348868     -11806.7588182     -11806.8779814
  Force two-norm initial, final = 2575.41 15.6947
  Force max component initial, final = 152.09 1.92922
  Final line search alpha, max atom move = 0.00497806 0.00960378
  Iterations, force evaluations = 500 1000

MPI task timing breakdown:
Section |  min time  |  avg time  |  max time  |%varavg| %total
---------------------------------------------------------------
Pair    | 0.85526    | 1.0794     | 1.3954     |  13.9 | 55.99
Bond    | 0.12085    | 0.1578     | 0.19544    |   5.7 |  8.18
Neigh   | 0.015737   | 0.016175   | 0.016668   |   0.3 |  0.84
Comm    | 0.28427    | 0.63745    | 0.8976     |  19.6 | 33.06
Output  | 0          | 0          | 0          |   0.0 |  0.00
Modify  | 0          | 0          | 0          |   0.0 |  0.00
Other   |            | 0.03715    |            |       |  1.93

Nlocal:    129.625 ave 164 max 114 min
Histogram: 6 3 4 2 4 2 2 0 0 1
Nghost:    3458 ave 3630 max 3349 min
Histogram: 5 10 1 0 0 0 0 0 2 6
Neighs:    7646.38 ave 12541 max 4262 min
Histogram: 5 2 3 3 2 3 2 1 1 2

Total # of neighbors = 183513
Ave neighs/atom = 58.9884
Ave special neighs/atom = 3.70299
Neighbor list builds = 10
Dangerous builds = 0
Neighbor list info ...
  update every 1 steps, delay 10 steps, check yes
  max neighbors/atom: 2000, page size: 100000
  master list distance cutoff = 16
  ghost atom cutoff = 16
  binsize = 8, bins = 6 6 6
  3 neighbor lists, perpetual/occasional/extra = 3 0 0
  (1) pair buck6d/coul/gauss/dsf, perpetual, skip from (3)
      attributes: half, newton on
      pair build: skip
      stencil: none
      bin: none
  (2) pair lj/cut, perpetual, skip from (3)
      attributes: half, newton on
      pair build: skip
      stencil: none
      bin: none
  (3) neighbor class addition, perpetual
      attributes: half, newton on
      pair build: half/bin/newton
      stencil: half/bin/3d/newton
      bin: standard
Setting up Verlet run ...
  Unit style    : real
  Current step  : 500
  Time step     : 1
WARNING: Inconsistent image flags (../domain.cpp:786)
Per MPI rank memory allocation (min/avg/max) = 22.61 | 22.81 | 23.4 Mbytes
Step Temp PotEng TotEng Press Volume Lx Ly Lz 
     500          110   -11806.878   -10787.143   -1648.0158     102002.7      46.7237      46.7237      46.7237 
    1000    93.757778   -10970.491   -10101.326   -557.02628     102002.7      46.7237      46.7237      46.7237 
    2000    109.37715   -10800.453   -9786.4916   -693.52607     102002.7      46.7237      46.7237      46.7237 
    3000    111.39143    -10860.47   -9827.8356   -599.27531     102002.7      46.7237      46.7237      46.7237 
    4000    110.72392   -10824.571   -9798.1249   -189.76577     102002.7      46.7237      46.7237      46.7237 
    5000    108.48451   -10852.707    -9847.021   -595.24028     102002.7      46.7237      46.7237      46.7237 
    6000    112.32916   -10853.344   -9812.0168   -689.04992     102002.7      46.7237      46.7237      46.7237 
    7000    111.48145   -10843.744   -9810.2753   -698.23019     102002.7      46.7237      46.7237      46.7237 
    8000    109.45117   -10823.954   -9809.3067   -408.31747     102002.7      46.7237      46.7237      46.7237 
    9000    109.38953    -10840.28   -9826.2042   -723.12838     102002.7      46.7237      46.7237      46.7237 
   10000    106.64026    -10862.14   -9873.5506   -700.30151     102002.7      46.7237      46.7237      46.7237 
   11000    111.79093   -10865.347   -9829.0091    -773.5046     102002.7      46.7237      46.7237      46.7237 
   12000    108.51097    -10853.83   -9847.8988   -418.97984     102002.7      46.7237      46.7237      46.7237 
   13000    110.94713   -10832.995   -9804.4794   -813.54611     102002.7      46.7237      46.7237      46.7237 
   14000    114.19169   -10858.899   -9800.3051   -402.47192     102002.7      46.7237      46.7237      46.7237 
   15000    110.07113   -10837.509   -9817.1148    -667.0851     102002.7      46.7237      46.7237      46.7237 
   16000    106.91642   -10835.149   -9843.9999   -469.53562     102002.7      46.7237      46.7237      46.7237 
   17000    106.43093   -10846.231   -9859.5823   -540.48647     102002.7      46.7237      46.7237      46.7237 
   18000    110.73893   -10844.362   -9817.7769   -253.62473     102002.7      46.7237      46.7237      46.7237 
   19000    109.43478   -10838.759   -9824.2638   -674.58839     102002.7      46.7237      46.7237      46.7237 
   20000    109.04715   -10850.554   -9839.6522   -347.83858     102002.7      46.7237      46.7237      46.7237 
   21000     111.5342    -10827.74   -9793.7827   -247.19203     102002.7      46.7237      46.7237      46.7237 
   22000    108.82329   -10842.043   -9833.2165   -749.98863     102002.7      46.7237      46.7237      46.7237 
   23000    110.74591   -10849.749    -9823.099   -605.82365     102002.7      46.7237      46.7237      46.7237 
   24000     113.2722   -10825.593   -9775.5239   -655.95949     102002.7      46.7237      46.7237      46.7237 
   25000    107.86759   -10833.111   -9833.1441   -624.72034     102002.7      46.7237      46.7237      46.7237 
   26000    111.09117   -10880.104   -9850.2538   -456.39254     102002.7      46.7237      46.7237      46.7237 
   27000    110.68944   -10861.944   -9835.8177   -587.36392     102002.7      46.7237      46.7237      46.7237 
   28000    110.42281   -10830.896   -9807.2412   -493.42557     102002.7      46.7237      46.7237      46.7237 
   29000    109.39975   -10846.554   -9832.3838   -710.46334     102002.7      46.7237      46.7237      46.7237 
   30000    107.89133   -10840.115   -9839.9284   -657.95176     102002.7      46.7237      46.7237      46.7237 
   31000    109.18622   -10862.393   -9850.2023   -675.75359     102002.7      46.7237      46.7237      46.7237 
   32000    109.08481   -10859.909   -9848.6581   -724.20141     102002.7      46.7237      46.7237      46.7237 
   33000    112.29033   -10840.009   -9799.0413    -550.1207     102002.7      46.7237      46.7237      46.7237 
   34000    112.21059   -10864.498   -9824.2699   -749.88197     102002.7      46.7237      46.7237      46.7237 
   35000    113.77255    -10850.09   -9795.3819   -836.28465     102002.7      46.7237      46.7237      46.7237 
   36000    112.50982    -10891.11   -9848.1075   -628.11123     102002.7      46.7237      46.7237      46.7237 
   37000    112.83144   -10854.741   -9808.7571   -566.41983     102002.7      46.7237      46.7237      46.7237 
   38000    110.55565   -10859.369   -9834.4827   -645.47373     102002.7      46.7237      46.7237      46.7237 
   39000    108.06561   -10882.039   -9880.2363   -706.94066     102002.7      46.7237      46.7237      46.7237 
   40000    112.51519   -10860.585   -9817.5329    -723.1975     102002.7      46.7237      46.7237      46.7237 
   41000    110.97067   -10835.626   -9806.8925   -384.11106     102002.7      46.7237      46.7237      46.7237 
   42000    110.52262   -10844.373   -9819.7935   -741.31466     102002.7      46.7237      46.7237      46.7237 
   43000    110.65228    -10864.83    -9839.048   -639.92796     102002.7      46.7237      46.7237      46.7237 
   44000    107.87656   -10847.876   -9847.8262   -482.43694     102002.7      46.7237      46.7237      46.7237 
   45000    105.77041   -10870.684   -9890.1587   -669.56354     102002.7      46.7237      46.7237      46.7237 
   46000    108.10795   -10854.331   -9852.1357   -612.87693     102002.7      46.7237      46.7237      46.7237 
   47000    110.35783   -10869.488   -9846.4358   -630.54742     102002.7      46.7237      46.7237      46.7237 
   48000    109.40233   -10860.183   -9845.9884   -628.89545     102002.7      46.7237      46.7237      46.7237 
   49000    113.64867   -10871.787   -9818.2274   -605.08509     102002.7      46.7237      46.7237      46.7237 
   50000    112.31662   -10852.216   -9811.0048   -595.06507     102002.7      46.7237      46.7237      46.7237 
   51000    109.58956   -10876.409    -9860.479   -534.13359     102002.7      46.7237      46.7237      46.7237 
   52000     110.0632   -10829.969   -9809.6483   -404.70943     102002.7      46.7237      46.7237      46.7237 
   53000    110.60556    -10849.31    -9823.961   -668.85453     102002.7      46.7237      46.7237      46.7237 
   54000    110.62754   -10848.182   -9822.6298   -678.07401     102002.7      46.7237      46.7237      46.7237 
   55000     108.3156   -10853.177    -9849.057   -460.36045     102002.7      46.7237      46.7237      46.7237 
   56000    109.93141   -10835.493   -9816.3933   -296.27113     102002.7      46.7237      46.7237      46.7237 
   57000    109.29672   -10842.406    -9829.191   -739.84923     102002.7      46.7237      46.7237      46.7237 
   58000    110.08551   -10839.465   -9818.9374   -636.31851     102002.7      46.7237      46.7237      46.7237 
   59000    110.05885   -10862.654   -9842.3731   -409.65055     102002.7      46.7237      46.7237      46.7237 
   60000    107.39248   -10855.916   -9860.3538   -427.57173     102002.7      46.7237      46.7237      46.7237 
   61000    109.88555   -10856.589   -9837.9152   -697.22254     102002.7      46.7237      46.7237      46.7237 
   62000    110.85539   -10839.205     -9811.54     -842.344     102002.7      46.7237      46.7237      46.7237 
   63000    109.66389   -10836.253   -9819.6338   -591.17347     102002.7      46.7237      46.7237      46.7237 
   64000    108.85299   -10872.918   -9863.8161   -753.29504     102002.7      46.7237      46.7237      46.7237 
   65000    110.25443   -10848.794   -9826.6999   -546.66173     102002.7      46.7237      46.7237      46.7237 
   66000    109.23994   -10854.316   -9841.6273   -755.91941     102002.7      46.7237      46.7237      46.7237 
   67000    108.78228    -10842.87    -9834.424   -662.80927     102002.7      46.7237      46.7237      46.7237 
   68000    110.07472   -10847.417   -9826.9893   -523.92665     102002.7      46.7237      46.7237      46.7237 
   69000    115.10459   -10869.228   -9802.1713    -484.7509     102002.7      46.7237      46.7237      46.7237 
   70000    110.01839    -10828.82   -9808.9147    -410.8348     102002.7      46.7237      46.7237      46.7237 
   71000    109.89983   -10842.822   -9824.0154   -472.66651     102002.7      46.7237      46.7237      46.7237 
   72000    110.14557   -10854.942   -9833.8569   -335.44825     102002.7      46.7237      46.7237      46.7237 
   73000    108.13228   -10878.317   -9875.8962   -670.87925     102002.7      46.7237      46.7237      46.7237 
   74000    109.42167   -10843.954     -9829.58   -760.03087     102002.7      46.7237      46.7237      46.7237 
   75000     109.6163   -10819.497   -9803.3193   -799.27466     102002.7      46.7237      46.7237      46.7237 
   76000     113.8509   -10877.504   -9822.0699   -662.41027     102002.7      46.7237      46.7237      46.7237 
   77000    109.19394   -10857.241   -9844.9781   -750.83948     102002.7      46.7237      46.7237      46.7237 
   78000    114.86279   -10859.536   -9794.7215    -713.6661     102002.7      46.7237      46.7237      46.7237 
   79000    109.34964    -10868.64   -9854.9343   -469.60471     102002.7      46.7237      46.7237      46.7237 
   80000    110.91734   -10836.422   -9808.1832   -756.63526     102002.7      46.7237      46.7237      46.7237 
   81000    109.40645   -10857.975   -9843.7424   -706.32338     102002.7      46.7237      46.7237      46.7237 
   82000    107.72291   -10850.857   -9852.2317   -779.50952     102002.7      46.7237      46.7237      46.7237 
   83000     112.0671   -10852.489   -9813.5911    -744.1484     102002.7      46.7237      46.7237      46.7237 
   84000    112.93023   -10836.196   -9789.2968   -381.62045     102002.7      46.7237      46.7237      46.7237 
   85000     108.0179   -10903.128   -9901.7677   -522.56631     102002.7      46.7237      46.7237      46.7237 
   86000    109.86076    -10846.08   -9827.6355   -858.07428     102002.7      46.7237      46.7237      46.7237 
   87000    107.81828    -10851.88   -9852.3696   -622.25011     102002.7      46.7237      46.7237      46.7237 
   88000    109.70422   -10852.971   -9835.9776   -776.52985     102002.7      46.7237      46.7237      46.7237 
   89000    109.05128   -10851.946    -9841.006   -432.03065     102002.7      46.7237      46.7237      46.7237 
   90000    110.48108   -10855.563   -9831.3685   -286.16227     102002.7      46.7237      46.7237      46.7237 
   91000    109.07023   -10864.982   -9853.8659   -501.58293     102002.7      46.7237      46.7237      46.7237 
   92000    111.42464   -10857.771   -9824.8294   -651.75118     102002.7      46.7237      46.7237      46.7237 
   93000    112.69764   -10870.881   -9826.1376   -605.29023     102002.7      46.7237      46.7237      46.7237 
   94000     109.8351    -10844.27   -9826.0632   -840.21973     102002.7      46.7237      46.7237      46.7237 
   95000    109.94937   -10852.169   -9832.9029    -622.2002     102002.7      46.7237      46.7237      46.7237 
   96000    108.59639   -10846.851    -9840.128    -1024.781     102002.7      46.7237      46.7237      46.7237 
   97000    111.20525   -10845.508   -9814.5995   -890.94739     102002.7      46.7237      46.7237      46.7237 
   98000    110.57108   -10875.322   -9850.2925   -859.51155     102002.7      46.7237      46.7237      46.7237 
   99000    108.54917   -10872.374   -9866.0885   -647.96676     102002.7      46.7237      46.7237      46.7237 
  100000    108.55112   -10858.393   -9852.0895   -642.15975     102002.7      46.7237      46.7237      46.7237 
  101000     109.5109   -10844.909   -9829.7082   -701.50688     102002.7      46.7237      46.7237      46.7237 
  102000     109.8762   -10868.613   -9850.0252   -568.56625     102002.7      46.7237      46.7237      46.7237 
  103000    112.39972   -10855.336   -9813.3545   -592.47146     102002.7      46.7237      46.7237      46.7237 
  104000    113.10571   -10853.208   -9804.6819   -557.00569     102002.7      46.7237      46.7237      46.7237 
  105000    110.46672   -10874.305   -9850.2434   -503.43074     102002.7      46.7237      46.7237      46.7237 
  106000    112.50346   -10836.851   -9793.9076   -571.31991     102002.7      46.7237      46.7237      46.7237 
  107000    111.84141   -10859.437   -9822.6316   -769.84648     102002.7      46.7237      46.7237      46.7237 
  108000    106.09455    -10839.11   -9855.5801   -792.74234     102002.7      46.7237      46.7237      46.7237 
  109000    109.48617   -10843.887    -9828.915   -598.54458     102002.7      46.7237      46.7237      46.7237 
  110000     114.1573    -10865.34   -9807.0652   -331.41462     102002.7      46.7237      46.7237      46.7237 
  111000    107.67654   -10860.268   -9862.0721    -781.8878     102002.7      46.7237      46.7237      46.7237 
  112000     109.3246   -10865.656   -9852.1823   -282.84831     102002.7      46.7237      46.7237      46.7237 
  113000    111.86467   -10842.068   -9805.0463   -507.16861     102002.7      46.7237      46.7237      46.7237 
  114000    111.38543   -10865.328   -9832.7497   -400.28906     102002.7      46.7237      46.7237      46.7237 
  115000    112.19405    -10840.16   -9800.0852   -456.87674     102002.7      46.7237      46.7237      46.7237 
  116000    109.94328   -10818.609   -9799.3996    -462.7551     102002.7      46.7237      46.7237      46.7237 
  117000    109.79024   -10859.203   -9841.4128   -608.54691     102002.7      46.7237      46.7237      46.7237 
  118000    111.10697   -10856.565   -9826.5676   -1026.7512     102002.7      46.7237      46.7237      46.7237 
  119000    110.75668   -10859.694   -9832.9438   -573.61639     102002.7      46.7237      46.7237      46.7237 
  120000    109.48225   -10838.916   -9823.9802   -545.62093     102002.7      46.7237      46.7237      46.7237 
  121000    111.25818   -10863.163   -9831.7641   -1129.0776     102002.7      46.7237      46.7237      46.7237 
  122000    110.90571   -10862.551   -9834.4191   -550.91037     102002.7      46.7237      46.7237      46.7237 
  123000     107.6077   -10856.993   -9859.4356   -707.30971     102002.7      46.7237      46.7237      46.7237 
  124000    112.47501    -10864.26    -9821.581   -674.66306     102002.7      46.7237      46.7237      46.7237 
  125000    109.88148   -10850.706   -9832.0699    -736.5634     102002.7      46.7237      46.7237      46.7237 
  126000    112.52747    -10817.16   -9773.9948   -648.11921     102002.7      46.7237      46.7237      46.7237 
  127000    108.37995   -10833.473   -9828.7566   -668.86658     102002.7      46.7237      46.7237      46.7237 
  128000    110.10144    -10859.28   -9838.6043   -215.70977     102002.7      46.7237      46.7237      46.7237 
  129000    108.00595    -10832.07   -9830.8208   -369.01983     102002.7      46.7237      46.7237      46.7237 
  130000     110.6044    -10834.96   -9809.6217   -411.11457     102002.7      46.7237      46.7237      46.7237 
  131000    108.21734   -10860.652   -9857.4427   -814.96555     102002.7      46.7237      46.7237      46.7237 
  132000    109.86556   -10834.214   -9815.7254   -544.00822     102002.7      46.7237      46.7237      46.7237 
  133000    108.31849   -10845.818   -9841.6712   -785.13923     102002.7      46.7237      46.7237      46.7237 
  134000    110.12709   -10834.025   -9813.1114   -964.01294     102002.7      46.7237      46.7237      46.7237 
  135000     109.6123   -10834.216   -9818.0753   -696.47592     102002.7      46.7237      46.7237      46.7237 
  136000    109.45506   -10844.138   -9829.4549   -911.36847     102002.7      46.7237      46.7237      46.7237 
  137000    111.33122   -10844.639   -9812.5635   -503.60645     102002.7      46.7237      46.7237      46.7237 
  138000      109.868   -10862.803   -9844.2916   -695.26813     102002.7      46.7237      46.7237      46.7237 
  139000    108.35515   -10809.529   -9805.0419   -523.99513     102002.7      46.7237      46.7237      46.7237 
  140000    108.21532   -10861.438   -9858.2479   -432.91571     102002.7      46.7237      46.7237      46.7237 
  141000    106.67315   -10859.638   -9870.7437   -579.77153     102002.7      46.7237      46.7237      46.7237 
  142000    112.55418   -10850.597   -9807.1839   -590.27281     102002.7      46.7237      46.7237      46.7237 
  143000    108.67304   -10832.208   -9824.7739   -457.59934     102002.7      46.7237      46.7237      46.7237 
  144000    107.85887    -10844.64   -9844.7538   -607.41608     102002.7      46.7237      46.7237      46.7237 
  145000    110.18556   -10867.889    -9846.434   -497.71111     102002.7      46.7237      46.7237      46.7237 
  146000    109.51942   -10857.105   -9841.8247    -211.3498     102002.7      46.7237      46.7237      46.7237 
  147000     109.2529   -10858.403   -9845.5934   -510.51946     102002.7      46.7237      46.7237      46.7237 
  148000    111.75591   -10831.275   -9795.2619   -652.92649     102002.7      46.7237      46.7237      46.7237 
  149000    108.92747   -10853.434   -9843.6414   -793.67351     102002.7      46.7237      46.7237      46.7237 
  150000    111.26589   -10839.372   -9807.9013   -384.73012     102002.7      46.7237      46.7237      46.7237 
  151000    108.90058   -10840.133   -9830.5901   -589.88823     102002.7      46.7237      46.7237      46.7237 
  152000    109.19007   -10847.023   -9834.7962   -815.59584     102002.7      46.7237      46.7237      46.7237 
  153000    111.62489   -10858.101   -9823.3025   -818.86561     102002.7      46.7237      46.7237      46.7237 
  154000     107.5772    -10857.67    -9860.395   -747.58247     102002.7      46.7237      46.7237      46.7237 
  155000     109.2122   -10829.499   -9817.0673   -774.59676     102002.7      46.7237      46.7237      46.7237 
  156000    110.88359    -10850.48   -9822.5535   -481.39906     102002.7      46.7237      46.7237      46.7237 
  157000    106.89627   -10848.759   -9857.7969    -836.6865     102002.7      46.7237      46.7237      46.7237 
  158000    111.12211   -10848.178   -9818.0403   -519.23376     102002.7      46.7237      46.7237      46.7237 
  159000    108.58068    -10835.19   -9828.6129   -509.74203     102002.7      46.7237      46.7237      46.7237 
  160000    111.62457   -10845.308   -9810.5122   -446.86881     102002.7      46.7237      46.7237      46.7237 
  161000    109.66539   -10847.556   -9830.9227    -508.2167     102002.7      46.7237      46.7237      46.7237 
  162000    109.65732   -10839.217   -9822.6592    -859.0379     102002.7      46.7237      46.7237      46.7237 
  163000    112.37772   -10838.063   -9796.2854   -686.30491     102002.7      46.7237      46.7237      46.7237 
  164000    110.79996   -10875.758   -9848.6072   -738.75517     102002.7      46.7237      46.7237      46.7237 
  165000    108.49803    -10832.67   -9826.8582   -1060.4282     102002.7      46.7237      46.7237      46.7237 
  166000    108.45238   -10836.273   -9830.8844   -738.45987     102002.7      46.7237      46.7237      46.7237 
  167000    110.45663   -10840.419   -9816.4504    -406.0302     102002.7      46.7237      46.7237      46.7237 
  168000    113.88574   -10831.351   -9775.5943   -694.11834     102002.7      46.7237      46.7237      46.7237 
  169000    111.76905   -10873.491   -9837.3559   -388.35022     102002.7      46.7237      46.7237      46.7237 
  170000    110.96113   -10818.846   -9790.2012   -486.36668     102002.7      46.7237      46.7237      46.7237 
  171000    109.46078   -10845.004   -9830.2677   -714.67539     102002.7      46.7237      46.7237      46.7237 
  172000    111.53608   -10839.589   -9805.6135   -514.47479     102002.7      46.7237      46.7237      46.7237 
  173000    109.92492    -10841.07   -9822.0314   -472.93484     102002.7      46.7237      46.7237      46.7237 
  174000    111.69789   -10842.971    -9807.496   -339.30605     102002.7      46.7237      46.7237      46.7237 
  175000    112.63749   -10848.707   -9804.5215   -599.11841     102002.7      46.7237      46.7237      46.7237 
  176000    109.52767   -10866.784   -9851.4276   -860.15429     102002.7      46.7237      46.7237      46.7237 
  177000    109.75902   -10844.488    -9826.987   -575.25216     102002.7      46.7237      46.7237      46.7237 
  178000    109.00209    -10849.08   -9838.5955   -286.57085     102002.7      46.7237      46.7237      46.7237 
  179000    112.98265   -10836.366   -9788.9809   -671.58381     102002.7      46.7237      46.7237      46.7237 
  180000    107.82924   -10852.434   -9852.8225   -626.24524     102002.7      46.7237      46.7237      46.7237 
  181000    110.08636   -10846.322   -9825.7868   -765.10604     102002.7      46.7237      46.7237      46.7237 
  182000    108.62877   -10853.194   -9846.1703   -886.08358     102002.7      46.7237      46.7237      46.7237 
  183000    108.15259    -10853.46   -9850.8506   -571.32114     102002.7      46.7237      46.7237      46.7237 
  184000    109.81573   -10865.189   -9847.1621   -801.22338     102002.7      46.7237      46.7237      46.7237 
  185000    110.27463   -10840.773    -9818.492   -633.60831     102002.7      46.7237      46.7237      46.7237 
  186000    109.75811   -10887.334   -9869.8415   -732.98667     102002.7      46.7237      46.7237      46.7237 
  187000    110.10624   -10863.176    -9842.456   -890.83815     102002.7      46.7237      46.7237      46.7237 
  188000    111.10964   -10843.575   -9813.5534   -405.92649     102002.7      46.7237      46.7237      46.7237 
  189000    106.96765   -10847.877   -9856.2531   -965.90062     102002.7      46.7237      46.7237      46.7237 
  190000    110.39147   -10853.046   -9829.6819   -647.44841     102002.7      46.7237      46.7237      46.7237 
  191000    111.20862   -10833.431   -9802.4916   -567.44373     102002.7      46.7237      46.7237      46.7237 
  192000    110.09586    -10843.46   -9822.8358   -813.94128     102002.7      46.7237      46.7237      46.7237 
  193000    108.29624   -10866.733   -9862.7924   -765.66867     102002.7      46.7237      46.7237      46.7237 
  194000    110.94761   -10850.074   -9821.5544   -688.51876     102002.7      46.7237      46.7237      46.7237 
  195000    108.51742   -10863.395   -9857.4035   -544.92513     102002.7      46.7237      46.7237      46.7237 
  196000    110.49816   -10824.818   -9800.4646   -298.01484     102002.7      46.7237      46.7237      46.7237 
  197000    110.36659   -10842.874   -9819.7409   -709.75281     102002.7      46.7237      46.7237      46.7237 
  198000    109.40274   -10841.741   -9827.5424   -610.14646     102002.7      46.7237      46.7237      46.7237 
  199000    111.26944   -10836.449   -9804.9457   -692.28682     102002.7      46.7237      46.7237      46.7237 
  200000    109.78054   -10839.288   -9821.5869    -796.9097     102002.7      46.7237      46.7237      46.7237 
  201000    110.67211   -10832.569    -9806.603   -681.69213     102002.7      46.7237      46.7237      46.7237 
  202000    109.73504   -10843.105   -9825.8263   -832.68965     102002.7      46.7237      46.7237      46.7237 
  203000     111.2011   -10876.095   -9845.2257   -900.81516     102002.7      46.7237      46.7237      46.7237 
  204000    111.14931   -10855.064   -9824.6748    -676.9128     102002.7      46.7237      46.7237      46.7237 
  205000    110.47891   -10849.241   -9825.0663   -688.68561     102002.7      46.7237      46.7237      46.7237 
  206000    108.61057   -10838.919    -9832.064   -758.01809     102002.7      46.7237      46.7237      46.7237 
  207000    111.59323   -10832.077   -9797.5721   -429.81826     102002.7      46.7237      46.7237      46.7237 
  208000     109.7032   -10853.809   -9836.8255   -969.36818     102002.7      46.7237      46.7237      46.7237 
  209000    109.37914   -10842.077    -9828.097   -712.81156     102002.7      46.7237      46.7237      46.7237 
  210000    112.16629   -10826.839   -9787.0216   -741.45376     102002.7      46.7237      46.7237      46.7237 
  211000    110.70328   -10854.637   -9828.3819   -554.09378     102002.7      46.7237      46.7237      46.7237 
  212000     110.8713   -10831.882     -9804.07   -506.27261     102002.7      46.7237      46.7237      46.7237 
  213000    110.78582   -10816.141   -9789.1211   -838.75136     102002.7      46.7237      46.7237      46.7237 
  214000     108.5592   -10821.573   -9815.1943   -540.37633     102002.7      46.7237      46.7237      46.7237 
  215000    108.44951   -10848.481   -9843.1192   -503.08528     102002.7      46.7237      46.7237      46.7237 
  216000    109.99446   -10843.588   -9823.9046   -814.86789     102002.7      46.7237      46.7237      46.7237 
  217000    111.03966   -10894.027   -9864.6535   -330.63091     102002.7      46.7237      46.7237      46.7237 
  218000    108.38137   -10851.036   -9846.3057   -619.07768     102002.7      46.7237      46.7237      46.7237 
  219000    108.91425   -10850.549   -9840.8795   -539.74687     102002.7      46.7237      46.7237      46.7237 
  220000    109.69149   -10845.257   -9828.3817   -461.74275     102002.7      46.7237      46.7237      46.7237 
  221000    110.97167   -10869.087   -9840.3443   -833.99685     102002.7      46.7237      46.7237      46.7237 
  222000    105.83221   -10851.035   -9869.9369   -726.87444     102002.7      46.7237      46.7237      46.7237 
  223000    108.48683   -10833.746    -9828.038   -614.74417     102002.7      46.7237      46.7237      46.7237 
  224000    106.46231   -10835.477   -9848.5377   -538.76333     102002.7      46.7237      46.7237      46.7237 
  225000     109.3325   -10834.635   -9821.0875   -834.95817     102002.7      46.7237      46.7237      46.7237 
  226000    108.72778    -10859.19   -9851.2486   -755.55799     102002.7      46.7237      46.7237      46.7237 
  227000    108.53614    -10840.45   -9834.2853    -609.8082     102002.7      46.7237      46.7237      46.7237 
  228000     109.2829    -10855.83   -9842.7429   -454.58751     102002.7      46.7237      46.7237      46.7237 
  229000    111.08866   -10838.719    -9808.892   -267.03147     102002.7      46.7237      46.7237      46.7237 
  230000    109.47398   -10839.247   -9824.3879   -354.13395     102002.7      46.7237      46.7237      46.7237 
  231000    111.11545   -10819.971   -9789.8958    -721.3697     102002.7      46.7237      46.7237      46.7237 
  232000    108.14919   -10879.658   -9877.0802   -834.60542     102002.7      46.7237      46.7237      46.7237 
  233000    112.06489   -10869.484   -9830.6065   -739.05138     102002.7      46.7237      46.7237      46.7237 
  234000    110.55417   -10842.595   -9817.7224   -962.81341     102002.7      46.7237      46.7237      46.7237 
  235000    107.07218   -10865.083   -9872.4894    -1007.139     102002.7      46.7237      46.7237      46.7237 
  236000     108.5723   -10869.634   -9863.1342   -857.88239     102002.7      46.7237      46.7237      46.7237 
  237000    110.35114   -10844.103   -9821.1123   -793.01331     102002.7      46.7237      46.7237      46.7237 
  238000    110.16987   -10850.153   -9828.8432   -846.11036     102002.7      46.7237      46.7237      46.7237 
  239000     112.7746   -10852.996   -9807.5391   -779.60743     102002.7      46.7237      46.7237      46.7237 
  240000    109.60645   -10845.859   -9829.7717   -575.08507     102002.7      46.7237      46.7237      46.7237 
  241000    108.86857    -10864.31   -9855.0638   -501.85969     102002.7      46.7237      46.7237      46.7237 
  242000    111.78484   -10855.029   -9818.7482   -578.71128     102002.7      46.7237      46.7237      46.7237 
  243000    109.68791    -10834.21   -9817.3681   -520.89756     102002.7      46.7237      46.7237      46.7237 
  244000    110.43055   -10851.688   -9827.9614   -726.54251     102002.7      46.7237      46.7237      46.7237 
  245000    109.30805   -10852.659   -9839.3384    -611.8303     102002.7      46.7237      46.7237      46.7237 
  246000    109.38823   -10868.275   -9854.2115   -795.23044     102002.7      46.7237      46.7237      46.7237 
  247000    112.22144   -10849.042   -9808.7133   -792.33621     102002.7      46.7237      46.7237      46.7237 
  248000    110.81769   -10838.397   -9811.0814   -811.76095     102002.7      46.7237      46.7237      46.7237 
  249000    109.03943   -10868.736   -9857.9056     -784.192     102002.7      46.7237      46.7237      46.7237 
  250000    110.98389   -10865.929    -9837.073   -464.80538     102002.7      46.7237      46.7237      46.7237 
  251000    108.00551   -10848.131   -9846.8859    -540.4231     102002.7      46.7237      46.7237      46.7237 
  252000    110.97545   -10873.037   -9844.2591   -746.81332     102002.7      46.7237      46.7237      46.7237 
  253000    110.08546   -10825.174   -9804.6467   -643.21258     102002.7      46.7237      46.7237      46.7237 
  254000     112.2543   -10856.562   -9815.9292    -675.1587     102002.7      46.7237      46.7237      46.7237 
  255000    109.46245   -10861.746   -9846.9941   -567.05276     102002.7      46.7237      46.7237      46.7237 
  256000    109.83632   -10859.817   -9841.5987   -617.14349     102002.7      46.7237      46.7237      46.7237 
  257000    108.92238   -10870.551   -9860.8059   -1166.7653     102002.7      46.7237      46.7237      46.7237 
  258000    112.29614   -10837.399   -9796.3775   -503.21366     102002.7      46.7237      46.7237      46.7237 
  259000    112.75649   -10832.905   -9787.6167   -663.80949     102002.7      46.7237      46.7237      46.7237 
  260000    108.65825   -10855.944   -9848.6471   -570.96216     102002.7      46.7237      46.7237      46.7237 
  261000    108.48842   -10827.066   -9821.3438   -323.01748     102002.7      46.7237      46.7237      46.7237 
  262000    111.72611    -10857.57   -9821.8333   -702.24943     102002.7      46.7237      46.7237      46.7237 
  263000    109.89157   -10880.054   -9861.3243    -326.1623     102002.7      46.7237      46.7237      46.7237 
  264000    110.14736   -10842.198    -9821.097   -422.83637     102002.7      46.7237      46.7237      46.7237 
  265000    109.65611   -10854.035   -9837.4878   -1000.9734     102002.7      46.7237      46.7237      46.7237 
  266000    114.03727   -10849.471   -9792.3091   -757.35481     102002.7      46.7237      46.7237      46.7237 
  267000    112.44876   -10846.716   -9804.2803   -751.77433     102002.7      46.7237      46.7237      46.7237 
  268000    110.71521     -10858.9   -9832.5351   -665.72709     102002.7      46.7237      46.7237      46.7237 
  269000    110.07669   -10866.281   -9845.8354   -680.83983     102002.7      46.7237      46.7237      46.7237 
  270000    113.73304   -10860.445   -9806.1032   -532.97246     102002.7      46.7237      46.7237      46.7237 
  271000     109.9341   -10812.361   -9793.2367   -929.68852     102002.7      46.7237      46.7237      46.7237 
  272000    110.91505   -10854.789   -9826.5716   -732.19425     102002.7      46.7237      46.7237      46.7237 
  273000    110.13791   -10857.763   -9836.7494   -801.76565     102002.7      46.7237      46.7237      46.7237 
  274000    111.68707   -10826.637   -9791.2624   -657.09815     102002.7      46.7237      46.7237      46.7237 
  275000    108.87905   -10856.399   -9847.0552   -535.68369     102002.7      46.7237      46.7237      46.7237 
  276000    110.48866   -10855.896   -9831.6308   -659.85218     102002.7      46.7237      46.7237      46.7237 
  277000    109.49537   -10840.104   -9825.0471   -543.63151     102002.7      46.7237      46.7237      46.7237 
  278000    109.40498   -10824.094   -9809.8749   -522.95229     102002.7      46.7237      46.7237      46.7237 
  279000    106.96219   -10869.411   -9877.8377   -579.48011     102002.7      46.7237      46.7237      46.7237 
  280000    110.26734   -10834.674   -9812.4609    -405.3118     102002.7      46.7237      46.7237      46.7237 
  281000    112.78693   -10825.634   -9780.0633   -868.54903     102002.7      46.7237      46.7237      46.7237 
  282000    111.78185   -10871.384   -9835.1301   -647.67561     102002.7      46.7237      46.7237      46.7237 
  283000    110.86321   -10844.418   -9816.6807   -649.16513     102002.7      46.7237      46.7237      46.7237 
  284000     111.2384   -10838.318   -9807.1028   -729.11408     102002.7      46.7237      46.7237      46.7237 
  285000    112.17544    -10852.68   -9812.7775   -931.75092     102002.7      46.7237      46.7237      46.7237 
  286000    110.64077   -10846.691   -9821.0158   -756.21188     102002.7      46.7237      46.7237      46.7237 
  287000    109.65306   -10860.676   -9844.1567    -562.1274     102002.7      46.7237      46.7237      46.7237 
  288000    109.87348   -10862.261   -9843.6987   -820.45017     102002.7      46.7237      46.7237      46.7237 
  289000    110.98167   -10859.419   -9830.5832    -890.1058     102002.7      46.7237      46.7237      46.7237 
  290000    110.63082   -10828.279   -9802.6956    -800.6303     102002.7      46.7237      46.7237      46.7237 
  291000    109.48128   -10849.831   -9834.9043   -888.12463     102002.7      46.7237      46.7237      46.7237 
  292000    110.58545   -10839.672   -9814.5096   -646.67402     102002.7      46.7237      46.7237      46.7237 
  293000    106.35144   -10823.616    -9837.704   -872.26253     102002.7      46.7237      46.7237      46.7237 
  294000     109.1961   -10821.414   -9809.1315   -797.45856     102002.7      46.7237      46.7237      46.7237 
  295000    112.91536   -10859.726   -9812.9642    -479.5394     102002.7      46.7237      46.7237      46.7237 
  296000    108.33852   -10850.226   -9845.8935   -608.72697     102002.7      46.7237      46.7237      46.7237 
  297000    111.42358   -10845.427   -9812.4953   -560.03926     102002.7      46.7237      46.7237      46.7237 
  298000    109.16753   -10858.897   -9846.8791    -548.4569     102002.7      46.7237      46.7237      46.7237 
  299000    110.14401   -10827.789   -9806.7185   -696.90364     102002.7      46.7237      46.7237      46.7237 
  300000    107.65945   -10862.509   -9864.4713   -950.39817     102002.7      46.7237      46.7237      46.7237 
  301000    111.75223   -10852.059   -9816.0803   -737.06684     102002.7      46.7237      46.7237      46.7237 
  302000    112.26374   -10835.701   -9794.9801   -607.73276     102002.7      46.7237      46.7237      46.7237 
  303000    111.68633   -10871.705   -9836.3375   -491.72532     102002.7      46.7237      46.7237      46.7237 
  304000    109.95269   -10840.495   -9821.1983   -747.09869     102002.7      46.7237      46.7237      46.7237 
  305000    115.44588   -10859.459   -9789.2387   -765.74586     102002.7      46.7237      46.7237      46.7237 
  306000    110.52902   -10846.415   -9821.7754   -786.28099     102002.7      46.7237      46.7237      46.7237 
  307000    109.68593   -10872.282   -9855.4586   -679.17344     102002.7      46.7237      46.7237      46.7237 
  308000    109.72855   -10881.534   -9864.3149   -582.99193     102002.7      46.7237      46.7237      46.7237 
  309000    110.15858   -10850.959   -9829.7534     -817.454     102002.7      46.7237      46.7237      46.7237 
  310000    109.11525   -10847.141   -9835.6078   -854.62691     102002.7      46.7237      46.7237      46.7237 
  311000    110.39678   -10856.819   -9833.4052   -368.16259     102002.7      46.7237      46.7237      46.7237 
  312000    108.94174   -10842.683    -9832.758   -749.66755     102002.7      46.7237      46.7237      46.7237 
  313000     110.1485    -10860.18   -9839.0678   -669.25645     102002.7      46.7237      46.7237      46.7237 
  314000    110.75729   -10826.539   -9799.7833   -691.42359     102002.7      46.7237      46.7237      46.7237 
  315000    110.61142   -10843.419   -9818.0155   -652.70464     102002.7      46.7237      46.7237      46.7237 
  316000    108.16933   -10863.035   -9860.2703   -326.38165     102002.7      46.7237      46.7237      46.7237 
  317000    112.72908   -10854.863   -9809.8281    -588.8204     102002.7      46.7237      46.7237      46.7237 
  318000    108.27103   -10845.344   -9841.6367   -469.38926     102002.7      46.7237      46.7237      46.7237 
  319000    108.31784   -10862.317   -9858.1762   -613.43157     102002.7      46.7237      46.7237      46.7237 
  320000    110.23347   -10841.831   -9819.9317   -474.66005     102002.7      46.7237      46.7237      46.7237 
  321000    112.72273   -10879.556   -9834.5806    -596.2591     102002.7      46.7237      46.7237      46.7237 
  322000    108.85625   -10839.782   -9830.6501   -847.69592     102002.7      46.7237      46.7237      46.7237 
  323000    109.76952    -10838.65   -9821.0515   -1293.2252     102002.7      46.7237      46.7237      46.7237 
  324000    112.41548   -10820.329   -9778.2018   -488.84583     102002.7      46.7237      46.7237      46.7237 
  325000    109.59486   -10848.188   -9832.2085   -1063.6284     102002.7      46.7237      46.7237      46.7237 
  326000    109.12901   -10853.697   -9842.0365   -703.94621     102002.7      46.7237      46.7237      46.7237 
  327000    111.84334   -10826.109   -9789.2851   -775.13558     102002.7      46.7237      46.7237      46.7237 
  328000    108.30209   -10840.389    -9836.394   -673.13684     102002.7      46.7237      46.7237      46.7237 
  329000    109.96328    -10822.39   -9802.9956   -695.61441     102002.7      46.7237      46.7237      46.7237 
  330000    111.11104   -10851.489   -9821.4545   -490.36172     102002.7      46.7237      46.7237      46.7237 
  331000    109.08044   -10849.822   -9838.6111    -419.3882     102002.7      46.7237      46.7237      46.7237 
  332000    108.73387   -10847.972   -9839.9744   -254.56859     102002.7      46.7237      46.7237      46.7237 
  333000    109.98799    -10830.46   -9810.8358   -625.28473     102002.7      46.7237      46.7237      46.7237 
  334000    108.19015   -10879.208   -9876.2509   -716.22917     102002.7      46.7237      46.7237      46.7237 
  335000    110.01656   -10833.978   -9814.0897   -647.98025     102002.7      46.7237      46.7237      46.7237 
  336000    110.20446   -10832.644   -9811.0131   -839.72391     102002.7      46.7237      46.7237      46.7237 
  337000    108.84831    -10834.18   -9825.1209   -346.46943     102002.7      46.7237      46.7237      46.7237 
  338000     109.9575   -10831.583   -9812.2421   -872.63635     102002.7      46.7237      46.7237      46.7237 
  339000     108.8951   -10838.564   -9829.0719   -449.96081     102002.7      46.7237      46.7237      46.7237 
  340000    107.01351   -10836.271    -9844.222   -760.92075     102002.7      46.7237      46.7237      46.7237 
  341000    108.88761   -10863.919   -9854.4963   -1301.3569     102002.7      46.7237      46.7237      46.7237 
  342000    109.09527   -10821.137   -9809.7886    -684.3988     102002.7      46.7237      46.7237      46.7237 
  343000    107.53604   -10815.446    -9818.553   -798.73864     102002.7      46.7237      46.7237      46.7237 
  344000    110.60798   -10850.873   -9825.5014    -780.9682     102002.7      46.7237      46.7237      46.7237 
  345000     110.1525   -10845.867   -9824.7183   -494.41153     102002.7      46.7237      46.7237      46.7237 
  346000     111.3868    -10815.01   -9782.4185   -612.59122     102002.7      46.7237      46.7237      46.7237 
  347000    108.20265   -10839.093   -9836.0201   -541.52195     102002.7      46.7237      46.7237      46.7237 
  348000    110.99798   -10868.551   -9839.5638   -470.62039     102002.7      46.7237      46.7237      46.7237 
  349000    109.33178   -10827.368   -9813.8274   -530.89278     102002.7      46.7237      46.7237      46.7237 
  350000    111.01654   -10866.009   -9836.8499   -391.67344     102002.7      46.7237      46.7237      46.7237 
  351000    110.86937   -10861.065   -9833.2708   -618.23429     102002.7      46.7237      46.7237      46.7237 
  352000    109.94782   -10861.133   -9841.8811   -769.07425     102002.7      46.7237      46.7237      46.7237 
  353000    111.16216   -10842.729   -9812.2203   -538.69809     102002.7      46.7237      46.7237      46.7237 
  354000    111.05684   -10900.228    -9870.696   -963.35989     102002.7      46.7237      46.7237      46.7237 
  355000    110.17356   -10822.769   -9801.4249   -454.92707     102002.7      46.7237      46.7237      46.7237 
  356000    108.36115   -10852.629   -9848.0863   -732.91072     102002.7      46.7237      46.7237      46.7237 
  357000     109.9806   -10844.305   -9824.7501   -560.14908     102002.7      46.7237      46.7237      46.7237 
  358000    111.32125   -10853.609   -9821.6257   -571.28053     102002.7      46.7237      46.7237      46.7237 
  359000    109.98025   -10868.428   -9848.8756   -637.81944     102002.7      46.7237      46.7237      46.7237 
  360000    110.66439   -10837.053   -9811.1588   -513.30683     102002.7      46.7237      46.7237      46.7237 
  361000    107.90811   -10839.388   -9839.0458   -829.54454     102002.7      46.7237      46.7237      46.7237 
  362000    110.29995     -10843.7   -9821.1839   -688.75274     102002.7      46.7237      46.7237      46.7237 
  363000    113.50727   -10852.945   -9800.6961   -713.40153     102002.7      46.7237      46.7237      46.7237 
  364000    110.07814    -10856.01   -9835.5504   -790.57119     102002.7      46.7237      46.7237      46.7237 
  365000    109.57051   -10848.784   -9833.0306   -807.65218     102002.7      46.7237      46.7237      46.7237 
  366000    110.18374   -10846.665   -9825.2268   -615.57166     102002.7      46.7237      46.7237      46.7237 
  367000    108.97217   -10870.973   -9860.7661   -576.82042     102002.7      46.7237      46.7237      46.7237 
  368000    108.03082   -10825.166    -9823.686   -611.48816     102002.7      46.7237      46.7237      46.7237 
  369000    107.75321   -10870.013   -9871.1063   -486.19307     102002.7      46.7237      46.7237      46.7237 
  370000    109.71877   -10859.606   -9842.4776   -630.49582     102002.7      46.7237      46.7237      46.7237 
  371000    107.81787   -10848.844   -9849.3378   -929.08041     102002.7      46.7237      46.7237      46.7237 
  372000    111.54813    -10871.18   -9837.0933   -568.41884     102002.7      46.7237      46.7237      46.7237 
  373000    110.85483   -10852.216   -9824.5565   -738.39142     102002.7      46.7237      46.7237      46.7237 
  374000    110.13922   -10840.397   -9819.3708   -609.29976     102002.7      46.7237      46.7237      46.7237 
  375000    110.55019   -10845.575   -9820.7394   -298.78008     102002.7      46.7237      46.7237      46.7237 
  376000    108.17859   -10850.799   -9847.9489   -749.18896     102002.7      46.7237      46.7237      46.7237 
  377000    109.11346   -10866.782   -9855.2658   -452.31605     102002.7      46.7237      46.7237      46.7237 
  378000    110.77309   -10840.224    -9813.322   -710.28629     102002.7      46.7237      46.7237      46.7237 
  379000    108.98637    -10876.54   -9866.2011    -628.1125     102002.7      46.7237      46.7237      46.7237 
  380000    112.63776   -10841.967   -9797.7792   -271.02815     102002.7      46.7237      46.7237      46.7237 
  381000    108.78154   -10865.497   -9857.0575   -631.44411     102002.7      46.7237      46.7237      46.7237 
  382000     109.7592   -10827.379   -9809.8761   -500.76893     102002.7      46.7237      46.7237      46.7237 
  383000    112.24962   -10851.187   -9810.5975   -649.35039     102002.7      46.7237      46.7237      46.7237 
  384000    109.81553   -10829.155   -9811.1299   -849.37651     102002.7      46.7237      46.7237      46.7237 
  385000    112.10692   -10861.625   -9822.3576   -578.23929     102002.7      46.7237      46.7237      46.7237 
  386000    107.94614    -10862.32   -9861.6253   -724.66669     102002.7      46.7237      46.7237      46.7237 
  387000    110.00054   -10827.631   -9807.8911    -861.1764     102002.7      46.7237      46.7237      46.7237 
  388000    109.61685   -10839.566   -9823.3828   -791.99266     102002.7      46.7237      46.7237      46.7237 
  389000    111.34922   -10815.335   -9783.0921   -389.13408     102002.7      46.7237      46.7237      46.7237 
  390000    112.95018   -10838.135    -9791.051   -369.05275     102002.7      46.7237      46.7237      46.7237 
  391000    109.53988   -10856.194   -9840.7239   -628.97137     102002.7      46.7237      46.7237      46.7237 
  392000    111.68356   -10834.987   -9799.6451   -520.94185     102002.7      46.7237      46.7237      46.7237 
  393000    108.89417   -10851.665   -9842.1809   -690.37982     102002.7      46.7237      46.7237      46.7237 
  394000     111.3763    -10890.81   -9858.3157    -600.3035     102002.7      46.7237      46.7237      46.7237 
  395000     112.0469   -10867.251   -9828.5408   -559.69527     102002.7      46.7237      46.7237      46.7237 
  396000    113.46865   -10851.246   -9799.3551     -760.607     102002.7      46.7237      46.7237      46.7237 
  397000    111.41159   -10853.398   -9820.5771   -777.80358     102002.7      46.7237      46.7237      46.7237 
  398000    108.80012   -10869.199    -9860.587   -712.88665     102002.7      46.7237      46.7237      46.7237 
  399000    110.02655   -10866.806    -9846.825   -604.16637     102002.7      46.7237      46.7237      46.7237 
  400000    110.98078     -10842.6    -9813.773   -686.51161     102002.7      46.7237      46.7237      46.7237 
  401000    109.69914   -10853.138   -9836.1922   -758.38349     102002.7      46.7237      46.7237      46.7237 
  402000    107.83661   -10841.176   -9841.4963    -639.0651     102002.7      46.7237      46.7237      46.7237 
  403000    109.35003   -10835.378    -9821.668   -809.26416     102002.7      46.7237      46.7237      46.7237 
  404000    109.81522   -10843.947   -9825.9248   -735.12677     102002.7      46.7237      46.7237      46.7237 
  405000    107.83451   -10865.005   -9865.3445   -756.38072     102002.7      46.7237      46.7237      46.7237 
  406000    111.20623   -10835.543    -9804.626   -656.70278     102002.7      46.7237      46.7237      46.7237 
  407000    109.10907   -10834.078   -9822.6021   -780.80265     102002.7      46.7237      46.7237      46.7237 
  408000    109.11493   -10855.102   -9843.5715   -612.60704     102002.7      46.7237      46.7237      46.7237 
  409000    110.83738   -10856.326   -9828.8276   -772.95345     102002.7      46.7237      46.7237      46.7237 
  410000    110.93041   -10831.252   -9802.8916   -756.31865     102002.7      46.7237      46.7237      46.7237 
  411000    107.96905   -10853.157   -9852.2498   -714.54648     102002.7      46.7237      46.7237      46.7237 
  412000    115.44325   -10848.226   -9778.0303   -449.72475     102002.7      46.7237      46.7237      46.7237 
  413000    110.46871   -10836.355   -9812.2746   -620.12011     102002.7      46.7237      46.7237      46.7237 
  414000    109.84709   -10848.929   -9830.6115   -215.78964     102002.7      46.7237      46.7237      46.7237 
  415000    109.17363   -10825.994   -9813.9194   -673.61149     102002.7      46.7237      46.7237      46.7237 
  416000    110.75659   -10851.856   -9825.1075   -489.14988     102002.7      46.7237      46.7237      46.7237 
  417000    110.42606   -10854.011   -9830.3263   -595.17785     102002.7      46.7237      46.7237      46.7237 
  418000    109.26191     -10859.5   -9846.6072   -478.56336     102002.7      46.7237      46.7237      46.7237 
  419000    106.86551   -10883.602   -9892.9242   -667.18122     102002.7      46.7237      46.7237      46.7237 
  420000    111.94318   -10868.922   -9831.1733   -798.94506     102002.7      46.7237      46.7237      46.7237 
  421000    112.37524   -10869.918   -9828.1634   -498.20092     102002.7      46.7237      46.7237      46.7237 
  422000    109.22684   -10842.717   -9830.1497   -589.80139     102002.7      46.7237      46.7237      46.7237 
  423000    111.27532   -10874.273    -9842.715   -830.62917     102002.7      46.7237      46.7237      46.7237 
  424000    107.99674   -10847.209   -9846.0445   -670.54597     102002.7      46.7237      46.7237      46.7237 
  425000    108.26141   -10840.567   -9836.9487    -796.3331     102002.7      46.7237      46.7237      46.7237 
  426000    110.05294    -10844.75   -9824.5236   -675.25506     102002.7      46.7237      46.7237      46.7237 
  427000    108.98069   -10839.755   -9829.4687   -689.40536     102002.7      46.7237      46.7237      46.7237 
  428000    109.25668   -10842.146    -9829.302   -646.51214     102002.7      46.7237      46.7237      46.7237 
  429000    108.13788   -10860.434   -9857.9613   -671.34007     102002.7      46.7237      46.7237      46.7237 
  430000    106.28563   -10851.072   -9865.7701   -494.58561     102002.7      46.7237      46.7237      46.7237 
  431000    108.32446   -10866.468   -9862.2659   -546.28423     102002.7      46.7237      46.7237      46.7237 
  432000    114.29642    -10859.71   -9800.1458   -811.21073     102002.7      46.7237      46.7237      46.7237 
  433000    111.48043   -10853.515   -9820.0556   -574.36813     102002.7      46.7237      46.7237      46.7237 
  434000    109.10986   -10855.069   -9843.5855   -814.83224     102002.7      46.7237      46.7237      46.7237 
  435000     111.0227   -10826.525   -9797.3092   -765.31676     102002.7      46.7237      46.7237      46.7237 
  436000    109.75544   -10871.586   -9854.1182    -657.0778     102002.7      46.7237      46.7237      46.7237 
  437000    111.94755   -10831.803   -9794.0134   -788.27892     102002.7      46.7237      46.7237      46.7237 
  438000    108.57302   -10821.774   -9815.2674   -653.49114     102002.7      46.7237      46.7237      46.7237 
  439000    111.13467   -10857.932   -9827.6778   -846.16445     102002.7      46.7237      46.7237      46.7237 
  440000    108.26813   -10862.466   -9858.7856   -900.31471     102002.7      46.7237      46.7237      46.7237 
  441000    111.48835    -10838.96   -9805.4277    -468.8269     102002.7      46.7237      46.7237      46.7237 
  442000    112.31872   -10841.334   -9800.1038   -751.56053     102002.7      46.7237      46.7237      46.7237 
  443000    112.23239   -10836.562   -9796.1314    -825.1573     102002.7      46.7237      46.7237      46.7237 
  444000    112.88306   -10853.997   -9807.5347   -538.22042     102002.7      46.7237      46.7237      46.7237 
  445000    108.50304   -10847.132   -9841.2744   -579.06325     102002.7      46.7237      46.7237      46.7237 
  446000    110.71683   -10849.409   -9823.0286   -638.31843     102002.7      46.7237      46.7237      46.7237 
  447000    110.98837    -10857.48    -9828.582   -470.23489     102002.7      46.7237      46.7237      46.7237 
  448000      110.391   -10839.208   -9815.8483   -1083.2742     102002.7      46.7237      46.7237      46.7237 
  449000    111.03605   -10871.202   -9841.8628   -640.14991     102002.7      46.7237      46.7237      46.7237 
  450000    109.77903   -10843.091   -9825.4048   -546.64092     102002.7      46.7237      46.7237      46.7237 
  451000    111.48067   -10837.855   -9804.3934   -743.06868     102002.7      46.7237      46.7237      46.7237 
  452000    110.33741   -10837.557   -9814.6937   -592.13963     102002.7      46.7237      46.7237      46.7237 
  453000    108.18347   -10841.563   -9838.6676   -863.55861     102002.7      46.7237      46.7237      46.7237 
  454000    110.70726   -10828.773   -9802.4817   -492.03278     102002.7      46.7237      46.7237      46.7237 
  455000    110.03662   -10871.045   -9850.9703   -644.67991     102002.7      46.7237      46.7237      46.7237 
  456000    107.43757   -10863.572   -9867.5918   -605.04278     102002.7      46.7237      46.7237      46.7237 
  457000    110.26358   -10811.403   -9789.2243   -582.01747     102002.7      46.7237      46.7237      46.7237 
  458000    109.46528   -10840.665   -9825.8867    -632.2787     102002.7      46.7237      46.7237      46.7237 
  459000    105.80752   -10843.863   -9862.9934   -606.13743     102002.7      46.7237      46.7237      46.7237 
  460000    109.80787   -10850.514   -9832.5596   -1137.2068     102002.7      46.7237      46.7237      46.7237 
  461000    110.80822   -10847.444   -9820.2166   -673.71715     102002.7      46.7237      46.7237      46.7237 
  462000     106.5332   -10825.062   -9837.4653    -682.4681     102002.7      46.7237      46.7237      46.7237 
  463000    109.44383   -10840.215   -9825.6357   -1031.1924     102002.7      46.7237      46.7237      46.7237 
  464000    111.11524   -10844.769   -9814.6956   -319.36467     102002.7      46.7237      46.7237      46.7237 
  465000    110.86385   -10847.042   -9819.2986   -787.63671     102002.7      46.7237      46.7237      46.7237 
  466000    110.27889   -10848.496   -9826.1754   -479.34428     102002.7      46.7237      46.7237      46.7237 
  467000     112.3532   -10860.984   -9819.4335   -612.23308     102002.7      46.7237      46.7237      46.7237 
  468000    107.46536    -10863.38   -9867.1422   -903.51347     102002.7      46.7237      46.7237      46.7237 
  469000    111.20079   -10851.086   -9820.2196     -535.151     102002.7      46.7237      46.7237      46.7237 
  470000    112.62357   -10855.342   -9811.2858     -663.174     102002.7      46.7237      46.7237      46.7237 
  471000    111.19319   -10857.298   -9826.5012   -712.71397     102002.7      46.7237      46.7237      46.7237 
  472000    110.65727   -10859.708   -9833.8795   -774.63412     102002.7      46.7237      46.7237      46.7237 
  473000    112.61439   -10858.188   -9814.2166   -647.18659     102002.7      46.7237      46.7237      46.7237 
  474000    110.76605   -10838.988   -9812.1516   -965.49788     102002.7      46.7237      46.7237      46.7237 
  475000    112.34152   -10851.406   -9809.9639   -902.64497     102002.7      46.7237      46.7237      46.7237 
  476000    109.66534   -10825.215   -9808.5822    -751.2894     102002.7      46.7237      46.7237      46.7237 
  477000    110.59646   -10833.452   -9808.1878   -538.57732     102002.7      46.7237      46.7237      46.7237 
  478000    109.27144   -10850.663   -9837.6823   -904.95835     102002.7      46.7237      46.7237      46.7237 
  479000     109.2504   -10842.272    -9829.486   -721.02561     102002.7      46.7237      46.7237      46.7237 
  480000     108.8437    -10853.57   -9844.5542   -695.83291     102002.7      46.7237      46.7237      46.7237 
  481000    109.08096   -10858.134   -9846.9182   -890.62365     102002.7      46.7237      46.7237      46.7237 
  482000    111.67549   -10841.646   -9806.3784   -731.30379     102002.7      46.7237      46.7237      46.7237 
  483000    107.76479   -10810.876   -9811.8618   -717.39617     102002.7      46.7237      46.7237      46.7237 
  484000    107.99156    -10840.21   -9839.0941   -562.25412     102002.7      46.7237      46.7237      46.7237 
  485000    110.65072    -10846.57   -9820.8025   -451.04813     102002.7      46.7237      46.7237      46.7237 
  486000    109.30723   -10833.507   -9820.1937   -227.03506     102002.7      46.7237      46.7237      46.7237 
  487000    111.46546   -10854.463   -9821.1421    -259.3262     102002.7      46.7237      46.7237      46.7237 
  488000    108.01117   -10862.706   -9861.4079   -583.65921     102002.7      46.7237      46.7237      46.7237 
  489000    107.93548    -10825.52   -9824.9237   -552.94421     102002.7      46.7237      46.7237      46.7237 
  490000    109.93823   -10880.066   -9860.9032   -545.19499     102002.7      46.7237      46.7237      46.7237 
  491000    113.87049   -10841.507   -9785.8912   -836.50077     102002.7      46.7237      46.7237      46.7237 
  492000    106.66211   -10840.752     -9851.96   -567.66227     102002.7      46.7237      46.7237      46.7237 
  493000     110.4359   -10852.242   -9828.4657   -727.46259     102002.7      46.7237      46.7237      46.7237 
  494000    108.66983   -10833.559   -9826.1547   -921.15554     102002.7      46.7237      46.7237      46.7237 
  495000    110.42853   -10863.339   -9839.6315   -444.24819     102002.7      46.7237      46.7237      46.7237 
  496000    108.16786   -10838.854   -9836.1034   -698.52007     102002.7      46.7237      46.7237      46.7237 
  497000    110.51714   -10857.682   -9833.1527   -527.16811     102002.7      46.7237      46.7237      46.7237 
  498000     110.9947   -10842.196   -9813.2394   -595.80026     102002.7      46.7237      46.7237      46.7237 
  499000    110.33207   -10814.431   -9791.6172   -389.25268     102002.7      46.7237      46.7237      46.7237 
  500000    107.55332   -10844.839    -9847.785   -514.67169     102002.7      46.7237      46.7237      46.7237 
  500500    111.12289   -10841.058   -9810.9134   -683.24718     102002.7      46.7237      46.7237      46.7237 
Loop time of 913.266 on 24 procs for 500000 steps with 3111 atoms

Performance: 47.303 ns/day, 0.507 hours/ns, 547.485 timesteps/s
98.0% CPU use with 24 MPI tasks x no OpenMP threads

MPI task timing breakdown:
Section |  min time  |  avg time  |  max time  |%varavg| %total
---------------------------------------------------------------
Pair    | 273.27     | 453.33     | 654.15     | 549.7 | 49.64
Bond    | 46.964     | 78.333     | 113.59     | 237.7 |  8.58
Neigh   | 7.7868     | 7.8198     | 7.8462     |   0.7 |  0.86
Comm    | 123.92     | 358.46     | 564.28     | 719.9 | 39.25
Output  | 0.47019    | 0.47059    | 0.47458    |   0.1 |  0.05
Modify  | 4.0998     | 4.9472     | 5.6419     |  23.3 |  0.54
Other   |            | 9.906      |            |       |  1.08

Nlocal:    129.625 ave 168 max 92 min
Histogram: 3 1 3 1 5 3 2 2 0 4
Nghost:    3512.21 ave 3701 max 3392 min
Histogram: 4 8 4 0 0 0 0 2 4 2
Neighs:    7635.75 ave 14562 max 2458 min
Histogram: 5 1 4 2 3 0 4 1 1 3

Total # of neighbors = 183258
Ave neighs/atom = 58.9065
Ave special neighs/atom = 3.70299
Neighbor list builds = 4723
Dangerous builds = 0
Neighbor list info ...
  update every 1 steps, delay 10 steps, check yes
  max neighbors/atom: 2000, page size: 100000
  master list distance cutoff = 16
  ghost atom cutoff = 16
  binsize = 8, bins = 6 6 6
  3 neighbor lists, perpetual/occasional/extra = 3 0 0
  (1) pair buck6d/coul/gauss/dsf, perpetual, skip from (3)
      attributes: half, newton on
      pair build: skip
      stencil: none
      bin: none
  (2) pair lj/cut, perpetual, skip from (3)
      attributes: half, newton on
      pair build: skip
      stencil: none
      bin: none
  (3) neighbor class addition, perpetual
      attributes: half, newton on
      pair build: half/bin/newton
      stencil: half/bin/3d/newton
      bin: standard
Setting up Verlet run ...
  Unit style    : real
  Current step  : 500500
  Time step     : 1
WARNING: Inconsistent image flags (../domain.cpp:786)
Per MPI rank memory allocation (min/avg/max) = 24.02 | 24.56 | 24.66 Mbytes
Step Time TotEng KinEng PotEng E_mol E_pair Temp Pxx Pyy Pzz Pxy Pxz Pyz Cella Cellb Cellc CellAlpha CellBeta CellGamma Volume Press 
  500500       500000   -9810.9134    1030.1447   -10841.058    4273.6171   -15114.675    111.12289   -324.70284   -971.81925   -753.21944    96.275492   -84.028548   -2.5698986      46.7237      46.7237      46.7237           90           90           90     102002.7   -683.24718 
  501000       500500   -9872.4249    1020.1962   -10892.621    4255.2223   -15147.843    110.04974   -765.75483    -427.6485   -822.29205   -299.67923    123.94634    136.76113      46.7237      46.7237      46.7237           90           90           90     102002.7   -671.89846 
  502000       501500   -9806.2783    1038.2807   -10844.559    4297.1792   -15141.738    112.00054   -754.78036   -1130.3897   -565.73951   -16.846944    337.56462    52.456655      46.7237      46.7237      46.7237           90           90           90     102002.7   -816.96986 
  503000       502500   -9842.3802    1007.5943   -10849.975    4293.2192   -15143.194    108.69036   -1026.1557   -872.56814   -607.32903    6.5751906    180.00666   -76.384933      46.7237      46.7237      46.7237           90           90           90     102002.7   -835.35094 
  504000       503500    -9834.635    1015.4762   -10850.111    4303.7068   -15153.818    109.54059   -1064.6091   -483.72249   -617.23453    75.230137   -13.685415   -47.974361      46.7237      46.7237      46.7237           90           90           90     102002.7   -721.85538 
  505000       504500   -9841.3757    1017.5317   -10858.907    4299.0642   -15157.972    109.76232   -1025.7232   -413.11018   -930.52637    47.970024   -302.43169    184.20549      46.7237      46.7237      46.7237           90           90           90     102002.7   -789.78659 
  506000       505500   -9821.4562    1031.5941    -10853.05    4286.1085   -15139.159    111.27924   -864.36539   -983.27559   -671.01503     15.74859   -119.85996   -61.238688      46.7237      46.7237      46.7237           90           90           90     102002.7     -839.552 
  507000       506500   -9853.2908    1029.4376   -10882.728    4278.7865   -15161.515    111.04661   -955.96184   -425.20058   -561.32028   -230.12107    96.301762    213.20903      46.7237      46.7237      46.7237           90           90           90     102002.7   -647.49423 
  508000       507500   -9798.6021    1039.8583    -10838.46    4300.0924   -15138.553    112.17071   -816.30012   -437.78271   -629.05375    332.12323   -137.91848    11.676447      46.7237      46.7237      46.7237           90           90           90     102002.7   -627.71219 
  509000       508500    -9813.019    1021.7439   -10834.763    4278.8529   -15113.616    110.21669   -439.05287    -813.6624   -694.32184    177.79259   -20.036159    142.38462      46.7237      46.7237      46.7237           90           90           90     102002.7   -649.01237 
  510000       509500   -9847.4897    1035.6962   -10883.186    4273.9107   -15157.097    111.72174   -245.13672   -388.18575   -74.608664    64.931846   -80.691311   -87.852838      46.7237      46.7237      46.7237           90           90           90     102002.7   -235.97704 
  511000       510500   -9840.2348    1017.5417   -10857.776    4280.6341   -15138.411     109.7634   -459.65285   -752.83811   -914.22627   -44.892384   -209.90299    71.653045      46.7237      46.7237      46.7237           90           90           90     102002.7   -708.90574 
  512000       511500   -9814.3371    1023.6966   -10838.034    4275.6459    -15113.68    110.42733   -665.45404   -408.35242   -512.05118   -110.54235   -42.200703    87.676604      46.7237      46.7237      46.7237           90           90           90     102002.7   -528.61921 
  513000       512500   -9812.9811    1013.3641   -10826.345    4286.3352    -15112.68    109.31275   -588.93322    12.499626   -309.74628    240.61409   -173.14601   -91.336112      46.7237      46.7237      46.7237           90           90           90     102002.7   -295.39329 
  514000       513500   -9824.9265    997.30837   -10822.235    4291.8746   -15114.109     107.5808   -591.63158   -1188.5061   -1125.8587    125.78997    -387.1946   -98.639783      46.7237      46.7237      46.7237           90           90           90     102002.7   -968.66545 
  515000       514500   -9822.8934    1021.8351   -10844.728    4293.7019    -15138.43    110.22652   -632.91258   -911.06137   -249.01831   -19.853287   -7.8353619      128.117      46.7237      46.7237      46.7237           90           90           90     102002.7   -597.66409 
  516000       515500   -9835.2806    1016.6835   -10851.964     4290.105   -15142.069    109.67082   -117.64817   -278.83019   -784.62625    43.044343     -187.009    25.129075      46.7237      46.7237      46.7237           90           90           90     102002.7   -393.70154 
  517000       516500    -9853.291      1020.19   -10873.481    4262.7911   -15136.272    110.04906   -625.36303   -852.11773   -1254.7332   -3.9471599     62.53036    121.27062      46.7237      46.7237      46.7237           90           90           90     102002.7   -910.73798 
  518000       517500   -9823.0205    1016.9685   -10839.989    4296.9253   -15136.914    109.70156   -691.97251   -922.45993   -1244.2918    246.71854    -16.39121    259.23307      46.7237      46.7237      46.7237           90           90           90     102002.7   -952.90807 
  519000       518500   -9831.5316    1026.3349   -10857.866    4265.8548   -15123.721    110.71192   -904.15681   -652.60028   -607.21983   -37.933074    50.158415    109.06415      46.7237      46.7237      46.7237           90           90           90     102002.7   -721.32564 
  520000       519500   -9829.2357    1038.2384   -10867.474    4278.9242   -15146.398    111.99597   -574.81812   -495.85076   -867.14081   -62.529499    317.01642     212.2904      46.7237      46.7237      46.7237           90           90           90     102002.7   -645.93656 
  521000       520500   -9836.3424    1009.4975    -10845.84     4290.732   -15136.572    108.89566   -498.90389    -569.1934   -964.23131    225.50467   -39.975783    -21.99821      46.7237      46.7237      46.7237           90           90           90     102002.7   -677.44287 
  522000       521500   -9820.9561    1008.2228   -10829.179    4287.9679   -15117.147    108.75815   -1136.7314     -816.598   -760.42011    59.773501    70.610625    48.693226      46.7237      46.7237      46.7237           90           90           90     102002.7   -904.58317 
  523000       522500   -9809.8822    1027.1214   -10837.004    4308.9047   -15145.908    110.79677   -560.93246   -439.26192   -789.71886    41.878749   -202.11623   -273.91415      46.7237      46.7237      46.7237           90           90           90     102002.7   -596.63775 
  524000       523500   -9803.2608    1013.8495    -10817.11    4290.2172   -15107.328    109.36512   -645.99402   -86.793641   -289.60477    7.3726654     25.56955   -174.23299      46.7237      46.7237      46.7237           90           90           90     102002.7   -340.79748 
  525000       524500   -9807.0678    1040.0542   -10847.122     4259.408    -15106.53    112.19184   -331.26395   -870.60363   -785.82299    353.48541    17.011347    16.842486      46.7237      46.7237      46.7237           90           90           90     102002.7   -662.56352 
  526000       525500   -9842.5218    1012.2466   -10854.768    4241.0653   -15095.834    109.19221   -357.00868   -572.58315   -507.20846   -85.592939   -120.32629   -194.27714      46.7237      46.7237      46.7237           90           90           90     102002.7   -478.93343 
  527000       526500   -9822.1356    1013.5317   -10835.667    4299.6677   -15135.335    109.33083    -635.2242   -333.69444   -1153.9725   -94.615085    182.01722   -180.96871      46.7237      46.7237      46.7237           90           90           90     102002.7   -707.63037 
  528000       527500    -9842.508    1009.8194   -10852.327    4270.5134   -15122.841    108.93038   -546.60172   -712.31408   -759.78823    19.009572   -105.38871   -121.77911      46.7237      46.7237      46.7237           90           90           90     102002.7   -672.90134 
  529000       528500   -9830.5417    1015.1129   -10845.655    4279.5911   -15125.246     109.5014    -504.5771   -573.11562   -129.88442     26.91809     33.58442    95.575934      46.7237      46.7237      46.7237           90           90           90     102002.7   -402.52571 
  530000       529500   -9803.2212    1033.1359   -10836.357     4300.651   -15137.008    111.44556   -644.65737   -387.54907   -599.53431   -18.471174   -26.842835   -86.289799      46.7237      46.7237      46.7237           90           90           90     102002.7   -543.91358 
  531000       530500   -9823.4262    1031.1528   -10854.579    4281.8424   -15136.421    111.23164   -998.65532   -345.01197   -66.709992    27.672549    48.110864   -51.179129      46.7237      46.7237      46.7237           90           90           90     102002.7   -470.12576 
  532000       531500   -9809.0133    1042.9882   -10852.001    4277.2833   -15129.285    112.50834   -306.40507   -534.38469   -444.39432     190.6819   -26.876503    16.456325      46.7237      46.7237      46.7237           90           90           90     102002.7   -428.39469 
  533000       532500   -9810.8183    1042.1304   -10852.949     4282.875   -15135.824    112.41581   -691.38297   -604.52108   -595.48629    32.782083    16.899746   -17.706542      46.7237      46.7237      46.7237           90           90           90     102002.7   -630.46344 
  534000       533500   -9844.2429    1015.7655   -10860.008     4288.284   -15148.292     109.5718   -853.54934   -642.00818   -1114.6004   -8.1594228    -66.15724   -243.73574      46.7237      46.7237      46.7237           90           90           90     102002.7   -870.05263 
  535000       534500   -9825.6984    1013.2001   -10838.898    4300.0956   -15138.994    109.29506   -610.38127   -959.96529   -985.65749   -79.431388   -138.72096   -88.931959      46.7237      46.7237      46.7237           90           90           90     102002.7   -852.00135 
  536000       535500   -9800.8303    1039.3783   -10840.209    4276.9478   -15117.156    112.11893   -532.76426   -512.93423   -833.50918   -35.818562    241.92131    188.61304      46.7237      46.7237      46.7237           90           90           90     102002.7   -626.40255 
  537000       536500   -9825.3462    1015.2563   -10840.602    4296.5248   -15137.127    109.51687   -688.68012   -519.53706   -894.22124    20.706957   -54.318316    6.7506925      46.7237      46.7237      46.7237           90           90           90     102002.7   -700.81281 
  538000       537500   -9834.6827    1015.6119   -10850.295    4292.2691   -15142.564    109.55522   -378.16389   -1124.4058   -556.32684   -15.415183    53.841419   -18.107133      46.7237      46.7237      46.7237           90           90           90     102002.7   -686.29883 
  539000       538500   -9821.5944    1006.5123   -10828.107    4317.4232    -15145.53    108.57364   -761.92396   -829.72748   -1044.2415    7.1635687    114.11659    265.36268      46.7237      46.7237      46.7237           90           90           90     102002.7   -878.63099 
  540000       539500   -9859.2059    995.80436    -10855.01      4278.09     -15133.1    107.41856   -381.32065   -735.75048   -821.01711   -79.357882    74.633138    181.54906      46.7237      46.7237      46.7237           90           90           90     102002.7   -646.02941 
  541000       540500   -9846.8835    994.22773   -10841.111      4297.27   -15138.381    107.24849   -221.53099    -196.0155   -472.01587   -78.048125    152.90882   -304.22218      46.7237      46.7237      46.7237           90           90           90     102002.7   -296.52079 
  542000       541500   -9805.7515    1046.3833   -10852.135    4311.4844   -15163.619    112.87457   -223.63028   -622.49016   -738.69293   -189.67879   -5.2571044    52.779452      46.7237      46.7237      46.7237           90           90           90     102002.7   -528.27113 
  543000       542500    -9815.568    1013.5282   -10829.096    4295.2234    -15124.32    109.33046   -427.20046   -581.09255   -732.59843    24.949868    145.51071   -45.072204      46.7237      46.7237      46.7237           90           90           90     102002.7   -580.29715 
  544000       543500   -9869.2974    1015.7973   -10885.095    4263.4251    -15148.52    109.57523   -539.12977   -272.64057   -1010.0829    117.03822   -200.28569    -91.52248      46.7237      46.7237      46.7237           90           90           90     102002.7   -607.28441 
  545000       544500   -9854.5456    1011.2143    -10865.76     4268.246   -15134.006    109.08085   -381.73416   -609.03917   -743.48059    57.379425   -176.61221   -209.83617      46.7237      46.7237      46.7237           90           90           90     102002.7   -578.08464 
  546000       545500   -9828.9791    1013.4426   -10842.422    4297.2009   -15139.623    109.32122   -62.817836   -607.69835   -595.61522    34.872091   -121.17008    120.31203      46.7237      46.7237      46.7237           90           90           90     102002.7    -422.0438 
  547000       546500   -9831.2501    1020.7315   -10851.982    4275.6305   -15127.612    110.10748   -113.93712   -948.59015    -691.4062    19.010907   -126.58601   -104.06149      46.7237      46.7237      46.7237           90           90           90     102002.7   -584.64449 
  548000       547500   -9859.5851    997.03491    -10856.62     4279.787   -15136.407     107.5513   -327.36793   -824.36697   -382.24471   -186.96634    18.090606   -241.23544      46.7237      46.7237      46.7237           90           90           90     102002.7   -511.32654 
  549000       548500    -9814.311    1027.4758   -10841.787    4285.1595   -15126.946    110.83499   -794.00305   -653.72543   -762.03695   -135.21675    7.5805706   -84.812076      46.7237      46.7237      46.7237           90           90           90     102002.7   -736.58848 
  550000       549500   -9796.6574    1035.1314   -10831.789    4300.3234   -15132.112    111.66082   -535.18202   -563.63977   -634.12412    137.65289   -212.35553    28.744512      46.7237      46.7237      46.7237           90           90           90     102002.7   -577.64864 
  551000       550500   -9847.3145    1015.7314   -10863.046    4280.4234   -15143.469    109.56811   -918.80248   -671.77447   -372.74012    119.66439   -190.54161    117.85377      46.7237      46.7237      46.7237           90           90           90     102002.7   -654.43902 
  552000       551500   -9835.1989    1025.4248   -10860.624    4295.6753   -15156.299    110.61375   -711.37584   -543.85017   -888.07542    179.14964    216.54759    173.68016      46.7237      46.7237      46.7237           90           90           90     102002.7   -714.43381 
  553000       552500   -9843.1593    1030.7288   -10873.888    4265.0802   -15138.968     111.1859    -919.0602   -700.56187   -553.60204    90.829325   -14.290804   -66.810249      46.7237      46.7237      46.7237           90           90           90     102002.7   -724.40804 
  554000       553500     -9842.43    1013.1999    -10855.63    4298.8291   -15154.459    109.29504   -884.70403   -499.13746   -528.53487     108.7676    407.49262    75.748102      46.7237      46.7237      46.7237           90           90           90     102002.7   -637.45879 
  555000       554500   -9792.4189    1048.2319   -10840.651    4298.2272   -15138.878    113.07398   -550.60879   -133.15512   -768.27076    29.749069   -80.573807    125.13412      46.7237      46.7237      46.7237           90           90           90     102002.7   -484.01156 
[...]
  936000       935500    -9820.177    1026.9279   -10847.105    4276.9485   -15124.053     110.7759   -682.81538   -632.08706   -723.42774    184.09878    -158.3228   -125.06718      46.7237      46.7237      46.7237           90           90           90     102002.7    -679.4434 
  937000       936500   -9829.3083    1036.5669   -10865.875    4282.9162   -15148.791    111.81567   -632.62991   -1043.4585   -818.11754   -50.869898    169.13224   -333.51742      46.7237      46.7237      46.7237           90           90           90     102002.7   -831.40197 
  938000       937500   -9835.5874    1034.5229    -10870.11    4270.9547   -15141.065    111.59518   -928.79257   -435.86132   -551.21239   -33.897227    115.31046    87.739191      46.7237      46.7237      46.7237           90           90           90     102002.7   -638.62209 
  939000       938500    -9787.757    1052.3131    -10840.07    4276.3163   -15116.386    113.51423   -710.52052   -988.80563   -736.26209    -39.84709   -553.63006   -173.12121      46.7237      46.7237      46.7237           90           90           90     102002.7   -811.86275 
  940000       939500    -9836.397    1013.6519   -10850.049    4267.6989   -15117.748     109.3438   -178.47632   -833.55229    -401.4261   -24.479432    49.989008    206.37137      46.7237      46.7237      46.7237           90           90           90     102002.7   -471.15157 
  941000       940500   -9863.7637    1001.5166    -10865.28    4268.4062   -15133.687    108.03475   -428.24693    -395.4931    -795.3365    4.9205237   -44.269051    133.94543      46.7237      46.7237      46.7237           90           90           90     102002.7   -539.69217 
  942000       941500   -9825.5383    1025.1435   -10850.682    4309.6884    -15160.37    110.58341   -970.09023   -355.87232   -1108.5048    118.15425    148.01812    68.031373      46.7237      46.7237      46.7237           90           90           90     102002.7   -811.48912 
  943000       942500   -9832.9973    1023.0804   -10856.078    4262.3766   -15118.454    110.36086    -533.9555   -917.11372   -591.15971   -173.86418    207.62173   -200.98355      46.7237      46.7237      46.7237           90           90           90     102002.7   -680.74298 
  944000       943500   -9804.6288    1015.4262   -10820.055    4279.8215   -15099.876    109.53519    -851.2495   -440.02425   -947.76187   -190.49208    90.072067   -88.458065      46.7237      46.7237      46.7237           90           90           90     102002.7   -746.34521 
  945000       944500   -9803.5702    1039.0547   -10842.625    4299.9626   -15142.588    112.08403    21.919133    -905.7732     41.26957    -590.9067   -44.911373    402.44031      46.7237      46.7237      46.7237           90           90           90     102002.7    -280.8615 
  946000       945500   -9824.8452    1013.3727   -10838.218    4309.6199   -15147.838    109.31367    -812.7274   -516.94996   -1061.4279   -344.37833    193.92465   -24.989403      46.7237      46.7237      46.7237           90           90           90     102002.7   -797.03509 
  947000       946500   -9809.5497    1020.7477   -10830.297    4276.4922    -15106.79    110.10923   -608.20975    -630.4308    -605.3919   -55.290187    359.53573    210.77278      46.7237      46.7237      46.7237           90           90           90     102002.7   -614.67748 
  948000       947500   -9774.0807    1048.8613   -10822.942    4300.4998   -15123.442    113.14188    -698.7256   -330.08569   -576.96339    184.81052   -303.10261    352.53815      46.7237      46.7237      46.7237           90           90           90     102002.7   -535.25823 
  949000       948500   -9822.4404    1013.5139   -10835.954    4276.2228   -15112.177    109.32892    -657.4591   -301.47619   -573.40017    161.17162   -24.240644    136.82689      46.7237      46.7237      46.7237           90           90           90     102002.7   -510.77849 
  950000       949500   -9837.3612    1030.4943   -10867.856    4277.5296   -15145.385    111.16061   -64.888938   -878.98077   -659.75124   -167.77682   -104.37055    62.037109      46.7237      46.7237      46.7237           90           90           90     102002.7   -534.54032 
  951000       950500   -9828.2529    1022.0937   -10850.347    4260.6015   -15110.948    110.25442   -817.00185   -796.18415   -1013.9361   -112.62328    161.35281   -82.658154      46.7237      46.7237      46.7237           90           90           90     102002.7   -875.70736 
  952000       951500     -9864.36    984.11737   -10848.477    4279.8778   -15128.355    106.15787   -1172.8902   -709.91413   -1001.7015    91.640966    222.52201   -39.369702      46.7237      46.7237      46.7237           90           90           90     102002.7   -961.50195 
  953000       952500   -9825.9999    1016.9616   -10842.961    4270.7916   -15113.753    109.70082   -635.42021   -830.29338   -508.12453   -101.87182   -2.3046147    58.092104      46.7237      46.7237      46.7237           90           90           90     102002.7   -657.94604 
  954000       953500   -9829.8518     1020.765   -10850.617    4275.9298   -15126.547    110.11109   -682.71082    -981.0531   -968.19884    36.640005    48.507764   -30.689222      46.7237      46.7237      46.7237           90           90           90     102002.7   -877.32092 
  955000       954500   -9845.6118    1010.4861   -10856.098    4289.7462   -15145.844     109.0023   -616.39928   -822.04985   -1305.3887   -132.88455     3.059556   -301.80701      46.7237      46.7237      46.7237           90           90           90     102002.7   -914.61262 
  956000       955500   -9831.6163    1019.0677   -10850.684    4270.6027   -15121.287    109.92801   -104.11229   -542.93292   -1271.4299    117.98462    257.96391    51.551594      46.7237      46.7237      46.7237           90           90           90     102002.7   -639.49171 
  957000       956500   -9840.1497    1008.4156   -10848.565    4277.2201   -15125.785    108.77895   -565.76608    -374.6251     -508.012    152.95194    195.91089   -2.2927344      46.7237      46.7237      46.7237           90           90           90     102002.7   -482.80106 
  958000       957500   -9808.6879    1011.6595   -10820.347    4301.8619   -15122.209    109.12887   -574.83118   -978.80879   -714.54012    117.39581    139.76358    119.30619      46.7237      46.7237      46.7237           90           90           90     102002.7   -756.06003 
  959000       958500   -9834.4453     1014.422   -10848.867    4283.2216   -15132.089    109.42687   -742.71715   -894.03381   -464.47136   -342.04443  -0.98369378    28.526296      46.7237      46.7237      46.7237           90           90           90     102002.7   -700.40744 
  960000       959500     -9837.97    1016.4545   -10854.425    4281.9591   -15136.384    109.64611   -501.22632   -854.05671   -927.87499     74.73758    13.220171    5.3782281      46.7237      46.7237      46.7237           90           90           90     102002.7   -761.05267 
  961000       960500   -9826.7214    1013.6446   -10840.366     4287.699   -15128.065      109.343    -790.4622    -1273.078   -520.32336   -62.433051    80.908938   -25.401077      46.7237      46.7237      46.7237           90           90           90     102002.7   -861.28787 
  962000       961500   -9824.3011    1018.2131   -10842.514    4270.2351   -15112.749    109.83582    -378.0349   -439.97561   -724.72301   -70.840267   -244.52643    87.633555      46.7237      46.7237      46.7237           90           90           90     102002.7    -514.2445 
  963000       962500   -9825.6915    1029.3101   -10855.002    4296.4122   -15151.414    111.03286   -775.53817   -380.29664   -883.47484   -48.062339    86.502173   -35.916033      46.7237      46.7237      46.7237           90           90           90     102002.7   -679.76988 
  964000       963500   -9814.9146    1013.3736   -10828.288     4308.291   -15136.579    109.31378   -865.16873   -703.60583   -633.67417   -57.964284    33.778348   -84.454595      46.7237      46.7237      46.7237           90           90           90     102002.7   -734.14957 
  965000       964500   -9828.1707     1011.703   -10839.874    4288.9185   -15128.792    109.13356   -288.86065    89.816945   -765.35283   -14.737471   -33.066951   -6.9637596      46.7237      46.7237      46.7237           90           90           90     102002.7   -321.46551 
  966000       965500   -9808.4904    1015.3542   -10823.845    4311.7096   -15135.554    109.52743   -492.25273   -529.18125   -846.36891   -15.739178   -113.29541    142.51958      46.7237      46.7237      46.7237           90           90           90     102002.7   -622.60096 
  967000       966500   -9846.1531    1022.0776   -10868.231    4257.3955   -15125.626    110.25268   -798.70779   -490.84828   -689.93793    244.81053    153.12539   -148.16154      46.7237      46.7237      46.7237           90           90           90     102002.7   -659.83133 
  968000       967500   -9804.0032    1022.6952   -10826.698    4286.9117    -15113.61     110.3193   -316.95607    -340.0691    -658.5742   -145.02736    33.505803     48.02865      46.7237      46.7237      46.7237           90           90           90     102002.7   -438.53312 
  969000       968500   -9814.6384    1040.1195   -10854.758    4286.3456   -15141.104    112.19889   -542.54422   -250.08811   -648.82891    161.27459    101.56867    140.71569      46.7237      46.7237      46.7237           90           90           90     102002.7   -480.48708 
  970000       969500   -9827.4458    1015.1207   -10842.567    4274.9742   -15117.541    109.50224    -376.7585   -537.34094   -344.01856    399.99249    106.60956   -30.914797      46.7237      46.7237      46.7237           90           90           90     102002.7   -419.37267 
  971000       970500   -9788.4826     1052.966   -10841.449    4300.0074   -15141.456    113.58465   -353.46622   -465.12637   -355.16122   -216.86716    212.75193   -28.830634      46.7237      46.7237      46.7237           90           90           90     102002.7   -391.25127 
  972000       971500   -9825.3632    1032.1815   -10857.545    4298.9147   -15156.459    111.34261   -843.12796   -576.90148   -801.93531    6.4412095   -23.475226   -333.93333      46.7237      46.7237      46.7237           90           90           90     102002.7   -740.65492 
  973000       972500   -9838.5994      1005.17   -10843.769    4303.9876   -15147.757    108.42884   -924.87738   -518.47558   -989.44542    128.48498   -51.060575    76.417491      46.7237      46.7237      46.7237           90           90           90     102002.7   -810.93279 
  974000       973500   -9825.3319    1000.9634   -10826.295    4301.2487   -15127.544    107.97507   -661.94491   -208.53766   -410.48475   -56.184008    16.438208    195.83807      46.7237      46.7237      46.7237           90           90           90     102002.7    -426.9891 
  975000       974500   -9836.8509    1015.9876   -10852.838    4302.1159   -15154.954    109.59575   -654.60269   -1027.7663    -994.4605   -43.342307    102.04754    75.567637      46.7237      46.7237      46.7237           90           90           90     102002.7   -892.27648 
  976000       975500   -9840.0079    1009.6403   -10849.648    4281.2392   -15130.887    108.91106   -716.50953   -424.62011   -566.51296   -255.88262    115.54324    100.02622      46.7237      46.7237      46.7237           90           90           90     102002.7    -569.2142 
  977000       976500   -9825.2096    1009.3233   -10834.533    4289.5202   -15124.053    108.87687   -702.51891     -755.682   -443.19389   -7.6346875    17.887963   -123.41016      46.7237      46.7237      46.7237           90           90           90     102002.7   -633.79826 
  978000       977500   -9818.0356    1041.7416   -10859.777    4286.7993   -15146.576    112.37387   -815.04005   -966.33901   -941.07819    20.574527   -136.06769    124.18855      46.7237      46.7237      46.7237           90           90           90     102002.7   -907.48575 
  979000       978500   -9827.0319    1003.4623   -10830.494    4292.9116   -15123.406    108.24464   -814.58612    -646.5985   -232.52363   -10.935898     199.3397   -113.77257      46.7237      46.7237      46.7237           90           90           90     102002.7   -564.56942 
  980000       979500   -9806.3689      1018.85   -10825.219    4302.8243   -15128.043    109.90453   -302.48002   -1024.9077   -527.90074    12.611809   -241.80213   -158.58955      46.7237      46.7237      46.7237           90           90           90     102002.7   -618.42949 
  981000       980500   -9822.6388    1024.2624   -10846.901    4300.2912   -15147.192    110.48837   -469.49225   -551.86706   -833.48655    95.412776   -88.293413   -168.70015      46.7237      46.7237      46.7237           90           90           90     102002.7   -618.28195 
  982000       981500   -9877.2148    1005.0732   -10882.288    4278.3734   -15160.661     108.4184    -1073.097   -657.72178    -189.2076   -114.81444   -61.385278    212.05295      46.7237      46.7237      46.7237           90           90           90     102002.7   -640.00879 
  983000       982500   -9807.3464    1040.8203   -10848.167     4303.348   -15151.515    112.27449   -816.14361   -1014.8375   -1103.9654   -50.447034    307.61946   -50.521352      46.7237      46.7237      46.7237           90           90           90     102002.7    -978.3155 
  984000       983500   -9825.6416    1028.9159   -10854.558    4282.6163   -15137.174    110.99035   -849.17072   -714.49188   -82.020629   -26.324584   -182.27547    156.18017      46.7237      46.7237      46.7237           90           90           90     102002.7   -548.56107 
  985000       984500   -9875.0784    1018.4754   -10893.554    4244.6275   -15138.181    109.86411   -524.31928   -959.83478   -490.49804   -118.70596   -165.77054   -262.61057      46.7237      46.7237      46.7237           90           90           90     102002.7   -658.21737 
  986000       985500   -9838.3278    1027.0062   -10865.334    4254.5469   -15119.881    110.78434   -1295.5796   -499.01085   -687.14677    131.88009    134.94985   -28.612126      46.7237      46.7237      46.7237           90           90           90     102002.7   -827.24575 
  987000       986500   -9803.4899    1020.6551   -10824.145     4293.937   -15118.082    110.09924   -114.69329   -360.59677   -792.27274    255.53787    -128.9052    117.01717      46.7237      46.7237      46.7237           90           90           90     102002.7   -422.52094 
  988000       987500   -9841.1742    1027.5014   -10868.676    4280.3974   -15149.073    110.83775   -689.60094   -780.74269   -759.32083    115.17676    150.69344    97.518211      46.7237      46.7237      46.7237           90           90           90     102002.7   -743.22148 
  989000       988500   -9863.4758    1019.5925   -10883.068    4270.1665   -15153.235    109.98462   -263.62473    -665.4801   -246.38674   -233.09145   -17.532738   -107.00794      46.7237      46.7237      46.7237           90           90           90     102002.7   -391.83052 
  990000       989500    -9833.924    1005.7185   -10839.642    4294.0189   -15133.661    108.48801   -536.56809    -874.8348   -536.34474    91.716595   -3.3359395    101.83512      46.7237      46.7237      46.7237           90           90           90     102002.7   -649.24921 
  991000       990500   -9802.9134    1026.3705   -10829.284    4279.3578   -15108.642    110.71577   -1017.2884   -440.63899   -922.83539   -222.37007   -181.64294    56.965085      46.7237      46.7237      46.7237           90           90           90     102002.7   -793.58759 
  992000       991500   -9848.4827    1011.2098   -10859.693    4270.7068   -15130.399    109.08036   -638.45726   -586.98691    -282.8644     196.9553    19.889965   -81.914012      46.7237      46.7237      46.7237           90           90           90     102002.7   -502.76953 
  993000       992500   -9807.7747    1019.2454    -10827.02    4315.0645   -15142.085    109.94717   -931.25205    -742.5259    -584.7921    -14.27142    121.17446    35.887323      46.7237      46.7237      46.7237           90           90           90     102002.7   -752.85668 
  994000       993500   -9824.2752    1027.3284   -10851.604    4277.0287   -15128.632     110.8191   -657.87692   -425.57562   -1235.9981   -39.648129    159.00959     53.56894      46.7237      46.7237      46.7237           90           90           90     102002.7   -773.15022 
  995000       994500   -9802.5165    1028.2962   -10830.813    4301.0638   -15131.877    110.92349   -847.24712   -676.68163   -166.88565    -44.61509   -7.0639179    185.08265      46.7237      46.7237      46.7237           90           90           90     102002.7    -563.6048 
  996000       995500   -9799.7747    1018.9818   -10818.756    4316.9466   -15135.703    109.91874   -753.93359    -1035.738     -881.255   -124.93125   -169.05862   -265.89029      46.7237      46.7237      46.7237           90           90           90     102002.7   -890.30886 
  997000       996500   -9810.9904    1017.6074   -10828.598    4320.9229   -15149.521    109.77048   -842.10825   -799.71799   -405.25893   -69.368603    183.38688    -92.96835      46.7237      46.7237      46.7237           90           90           90     102002.7   -682.36172 
  998000       997500   -9864.3446    1014.4183   -10878.763     4276.229   -15154.992    109.42647   -706.74463   -306.76967   -660.82158    98.314224   -134.50055   -57.324306      46.7237      46.7237      46.7237           90           90           90     102002.7   -558.11196 
  999000       998500   -9844.2078    1006.4877   -10850.695    4282.7174   -15133.413    108.57098   -552.09674   -1230.7908   -955.00687    129.73722   -210.08837   -76.372279      46.7237      46.7237      46.7237           90           90           90     102002.7   -912.63148 
 1000000       999500   -9813.0941    1010.2221   -10823.316    4312.1368   -15135.453    108.97382   -459.79594   -676.77556   -337.56585   -163.74818    32.460895   -150.34959      46.7237      46.7237      46.7237           90           90           90     102002.7   -491.37911 
 1000500      1000000   -9812.8528     1026.788   -10839.641    4286.1518   -15125.793     110.7608    -862.1116   -916.21424   -389.24196   -163.30203     124.3545   0.71404841      46.7237      46.7237      46.7237           90           90           90     102002.7    -722.5226 
Loop time of 1088.66 on 24 procs for 500000 steps with 3111 atoms

Performance: 39.682 ns/day, 0.605 hours/ns, 459.278 timesteps/s
98.3% CPU use with 24 MPI tasks x no OpenMP threads

MPI task timing breakdown:
Section |  min time  |  avg time  |  max time  |%varavg| %total
---------------------------------------------------------------
Pair    | 320.82     | 544.78     | 820.28     | 689.2 | 50.04
Bond    | 37.762     | 82.231     | 133.88     | 346.6 |  7.55
Neigh   | 8.0062     | 8.0371     | 8.0637     |   0.7 |  0.74
Comm    | 104.7      | 429.84     | 696.33     | 916.1 | 39.48
Output  | 0.65685    | 0.70723    | 0.70952    |   1.2 |  0.06
Modify  | 12.201     | 13.385     | 14.293     |  20.3 |  1.23
Other   |            | 9.685      |            |       |  0.89

Nlocal:    129.625 ave 166 max 86 min
Histogram: 1 3 3 0 3 4 2 2 2 4
Nghost:    3484.33 ave 3622 max 3407 min
Histogram: 6 7 3 0 0 0 2 2 1 3
Neighs:    7639.58 ave 14218 max 2260 min
Histogram: 5 1 4 2 2 1 3 0 3 3

Total # of neighbors = 183350
Ave neighs/atom = 58.936
Ave special neighs/atom = 3.70299
Neighbor list builds = 4705
Dangerous builds = 0
Total wall time: 0:33:24
