LAMMPS (30 Mar 2018)
Reading data file ...
  orthogonal box = (0 0 0) to (46.7237 46.7237 46.7237)
  2 by 2 by 4 MPI processor grid
  reading atoms ...
  3302 atoms
  scanning bonds ...
  5 = max bonds/atom
  scanning angles ...
  10 = max angles/atom
  scanning dihedrals ...
  32 = max dihedrals/atom
  scanning impropers ...
  3 = max impropers/atom
  reading bonds ...
  2064 bonds
  reading angles ...
  3696 angles
  reading dihedrals ...
  6240 dihedrals
  reading impropers ...
  1008 impropers
Finding 1-2 1-3 1-4 neighbors ...
  special bond factors lj:   0          0          0         
  special bond factors coul: 0          0          0         
  5 = max # of 1-2 neighbors
  8 = max # of 1-3 neighbors
  20 = max # of 1-4 neighbors
  19 = max # of special neighbors
Finding 1-2 1-3 1-4 neighbors ...
  special bond factors lj:   0          0          1         
  special bond factors coul: 1          1          1         
  5 = max # of 1-2 neighbors
  8 = max # of 1-3 neighbors
  19 = max # of special neighbors
WARNING: Using 'neigh_modify every 1 delay 0 check yes' setting during minimization (../min.cpp:168)
Neighbor list info ...
  update every 1 steps, delay 0 steps, check yes
  max neighbors/atom: 2000, page size: 100000
  master list distance cutoff = 16
  ghost atom cutoff = 16
  binsize = 8, bins = 6 6 6
  3 neighbor lists, perpetual/occasional/extra = 3 0 0
  (1) pair buck6d/coul/gauss/dsf, perpetual, skip from (3)
      attributes: half, newton on
      pair build: skip
      stencil: none
      bin: none
  (2) pair lj/cut, perpetual, skip from (3)
      attributes: half, newton on
      pair build: skip
      stencil: none
      bin: none
  (3) neighbor class addition, perpetual
      attributes: half, newton on
      pair build: half/bin/newton
      stencil: half/bin/3d/newton
      bin: standard
Setting up cg style minimization ...
  Unit style    : real
  Current step  : 0
WARNING: Inconsistent image flags (../domain.cpp:786)
Per MPI rank memory allocation (min/avg/max) = 23.02 | 23.48 | 23.92 Mbytes
Step Temp E_pair E_mol TotEng Press 
       0            0   -15933.207    6482.8914   -9450.3153    6474.1449 
     500            0   -16302.498    3792.4109   -12510.087     -1395.87 
Loop time of 4.52499 on 16 procs for 500 steps with 3302 atoms

99.9% CPU use with 16 MPI tasks x no OpenMP threads

Minimization stats:
  Stopping criterion = max force evaluations
  Energy initial, next-to-last, final = 
        -9450.31531339      -12510.035421     -12510.0874106
  Force two-norm initial, final = 2575.07 9.82884
  Force max component initial, final = 151.975 1.49941
  Final line search alpha, max atom move = 0.00839954 0.0125944
  Iterations, force evaluations = 500 1000

MPI task timing breakdown:
Section |  min time  |  avg time  |  max time  |%varavg| %total
---------------------------------------------------------------
Pair    | 2.5033     | 3.1048     | 3.6433     |  17.6 | 68.62
Bond    | 0.25715    | 0.35995    | 0.42498    |   7.4 |  7.95
Neigh   | 0.032417   | 0.032516   | 0.032653   |   0.0 |  0.72
Comm    | 0.4464     | 0.98166    | 1.5739     |  32.5 | 21.69
Output  | 0          | 0          | 0          |   0.0 |  0.00
Modify  | 0          | 0          | 0          |   0.0 |  0.00
Other   |            | 0.04604    |            |       |  1.02

Nlocal:    206.375 ave 229 max 161 min
Histogram: 1 1 0 0 0 1 3 6 2 2
Nghost:    4126 ave 4181 max 4090 min
Histogram: 1 1 3 5 3 1 0 1 0 1
Neighs:    11502.3 ave 17228 max 7409 min
Histogram: 2 2 2 3 1 1 2 1 1 1

Total # of neighbors = 184037
Ave neighs/atom = 55.735
Ave special neighs/atom = 3.48879
Neighbor list builds = 9
Dangerous builds = 0
Neighbor list info ...
  update every 1 steps, delay 10 steps, check yes
  max neighbors/atom: 2000, page size: 100000
  master list distance cutoff = 16
  ghost atom cutoff = 16
  binsize = 8, bins = 6 6 6
  3 neighbor lists, perpetual/occasional/extra = 3 0 0
  (1) pair buck6d/coul/gauss/dsf, perpetual, skip from (3)
      attributes: half, newton on
      pair build: skip
      stencil: none
      bin: none
  (2) pair lj/cut, perpetual, skip from (3)
      attributes: half, newton on
      pair build: skip
      stencil: none
      bin: none
  (3) neighbor class addition, perpetual
      attributes: half, newton on
      pair build: half/bin/newton
      stencil: half/bin/3d/newton
      bin: standard
Setting up Verlet run ...
  Unit style    : real
  Current step  : 500
  Time step     : 1
WARNING: Inconsistent image flags (../domain.cpp:786)
Per MPI rank memory allocation (min/avg/max) = 22.67 | 22.74 | 22.8 Mbytes
Step Temp PotEng TotEng Press Volume Lx Ly Lz 
     500           91   -12510.087   -11614.679   -994.59471     102002.7      46.7237      46.7237      46.7237 
    1000    76.082636   -11762.799   -11014.173    237.68714     102002.7      46.7237      46.7237      46.7237 
    2000    92.622463   -11617.339   -10705.966    539.25903     102002.7      46.7237      46.7237      46.7237 
    3000    92.495526   -11681.179   -10771.055    392.24832     102002.7      46.7237      46.7237      46.7237 
    4000    90.325045   -11647.438   -10758.671    539.26042     102002.7      46.7237      46.7237      46.7237 
    5000    91.725706   -11633.574   -10731.025    388.49529     102002.7      46.7237      46.7237      46.7237 
    6000    93.420932   -11662.983   -10743.753    429.25349     102002.7      46.7237      46.7237      46.7237 
    7000    92.567713   -11637.116   -10726.281    589.36832     102002.7      46.7237      46.7237      46.7237 
    8000    91.029878   -11642.475   -10746.773    219.05596     102002.7      46.7237      46.7237      46.7237 
    9000     90.72312   -11660.499   -10767.815    338.84973     102002.7      46.7237      46.7237      46.7237 
   10000    90.407527   -11687.767   -10798.188    22.393505     102002.7      46.7237      46.7237      46.7237 
   11000    89.583055   -11630.148   -10748.682    103.50863     102002.7      46.7237      46.7237      46.7237 
   12000    89.338997   -11666.005    -10786.94    316.91318     102002.7      46.7237      46.7237      46.7237 
   13000     90.66965   -11651.594   -10759.436    390.21135     102002.7      46.7237      46.7237      46.7237 
   14000    89.730572   -11669.167   -10786.249    348.42699     102002.7      46.7237      46.7237      46.7237 
   15000    91.605993     -11687.5   -10786.129    175.97982     102002.7      46.7237      46.7237      46.7237 
   16000    93.307671   -11658.985    -10740.87    19.594905     102002.7      46.7237      46.7237      46.7237 
   17000    89.967867   -11667.158   -10781.905    307.66326     102002.7      46.7237      46.7237      46.7237 
   18000    91.279216   -11669.237   -10771.081    287.47455     102002.7      46.7237      46.7237      46.7237 
   19000    88.551191   -11672.214   -10800.901    266.53943     102002.7      46.7237      46.7237      46.7237 
   20000    93.349981   -11672.123   -10753.591    69.283236     102002.7      46.7237      46.7237      46.7237 
   21000    91.113689    -11689.53   -10793.003     118.0154     102002.7      46.7237      46.7237      46.7237 
   22000    90.635455   -11684.364   -10792.542    306.73814     102002.7      46.7237      46.7237      46.7237 
   23000    90.650579   -11660.212   -10768.242    273.24811     102002.7      46.7237      46.7237      46.7237 
   24000    91.574454   -11675.418   -10774.357    321.20986     102002.7      46.7237      46.7237      46.7237 
   25000    89.059487    -11643.52   -10767.206     376.7682     102002.7      46.7237      46.7237      46.7237 
   26000    90.229462   -11668.919   -10781.092    324.97727     102002.7      46.7237      46.7237      46.7237 
   27000    93.193676   -11674.798   -10757.805     542.1854     102002.7      46.7237      46.7237      46.7237 
   28000    91.059151   -11698.518   -10802.528    411.88548     102002.7      46.7237      46.7237      46.7237 
   29000    89.395287   -11647.162   -10767.543    732.38632     102002.7      46.7237      46.7237      46.7237 
   30000    91.238624   -11651.663   -10753.907    568.82425     102002.7      46.7237      46.7237      46.7237 
   31000     91.28132   -11679.618   -10781.441    535.72203     102002.7      46.7237      46.7237      46.7237 
   32000    91.168791   -11675.301   -10778.231    157.33723     102002.7      46.7237      46.7237      46.7237 
   33000    91.773846   -11678.428   -10775.405    -8.728197     102002.7      46.7237      46.7237      46.7237 
   34000    91.566325   -11692.296   -10791.315    -7.157863     102002.7      46.7237      46.7237      46.7237 
   35000    91.572497   -11691.238   -10790.197    375.79353     102002.7      46.7237      46.7237      46.7237 
   36000    92.883761   -11699.545   -10785.601    190.87474     102002.7      46.7237      46.7237      46.7237 
   37000    93.301349   -11698.683    -10780.63    109.81572     102002.7      46.7237      46.7237      46.7237 
   38000    91.580985   -11673.704   -10772.579    522.98073     102002.7      46.7237      46.7237      46.7237 
   39000    92.032909   -11667.044   -10761.472    547.50536     102002.7      46.7237      46.7237      46.7237 
   40000    91.356051   -11664.539   -10765.627    398.68978     102002.7      46.7237      46.7237      46.7237 
   41000    88.382368   -11681.877   -10812.225    625.69072     102002.7      46.7237      46.7237      46.7237 
   42000    90.512623   -11681.177   -10790.564    163.56304     102002.7      46.7237      46.7237      46.7237 
   43000    92.219437   -11709.331   -10801.924    338.21091     102002.7      46.7237      46.7237      46.7237 
   44000    91.479823   -11675.685   -10775.555    325.28503     102002.7      46.7237      46.7237      46.7237 
   45000    91.286196   -11697.835   -10799.611      253.409     102002.7      46.7237      46.7237      46.7237 
   46000     89.85339   -11682.137   -10798.011    149.37345     102002.7      46.7237      46.7237      46.7237 
   47000    90.947742   -11676.461   -10781.567    328.36159     102002.7      46.7237      46.7237      46.7237 
   48000     90.43846   -11686.353    -10796.47    117.00593     102002.7      46.7237      46.7237      46.7237 
   49000      90.2244   -11677.831   -10790.054    221.44454     102002.7      46.7237      46.7237      46.7237 
   50000    91.688363   -11683.732    -10781.55     240.5825     102002.7      46.7237      46.7237      46.7237 
   51000    93.556821   -11686.115   -10765.548    177.77886     102002.7      46.7237      46.7237      46.7237 
   52000    89.286879   -11695.214   -10816.662     305.3506     102002.7      46.7237      46.7237      46.7237 
   53000    92.136416   -11674.103   -10767.512    423.48031     102002.7      46.7237      46.7237      46.7237 
   54000    88.952427   -11686.793   -10811.532    382.76788     102002.7      46.7237      46.7237      46.7237 
   55000    90.582173   -11686.561   -10795.264    190.30453     102002.7      46.7237      46.7237      46.7237 
   56000    93.555288   -11674.804   -10754.252    444.33578     102002.7      46.7237      46.7237      46.7237 
   57000    90.443247   -11680.429   -10790.499    351.53333     102002.7      46.7237      46.7237      46.7237 
   58000     87.84238   -11670.709    -10806.37    470.22106     102002.7      46.7237      46.7237      46.7237 
   59000     90.98529   -11685.669   -10790.405    224.17687     102002.7      46.7237      46.7237      46.7237 
   60000    89.710921   -11674.621   -10791.897    329.66251     102002.7      46.7237      46.7237      46.7237 
   61000    91.660252   -11653.762   -10751.857    383.82645     102002.7      46.7237      46.7237      46.7237 
   62000    89.664257   -11691.147   -10808.882    486.68937     102002.7      46.7237      46.7237      46.7237 
   63000    88.014287   -11705.967   -10839.936    365.70894     102002.7      46.7237      46.7237      46.7237 
   64000    91.479942   -11685.909   -10785.779    383.64634     102002.7      46.7237      46.7237      46.7237 
   65000    89.446284   -11687.783   -10807.663    341.75198     102002.7      46.7237      46.7237      46.7237 
   66000    90.831605   -11667.567   -10773.815    531.98629     102002.7      46.7237      46.7237      46.7237 
   67000    92.011846   -11681.257   -10775.892    278.79175     102002.7      46.7237      46.7237      46.7237 
   68000    92.288671   -11681.736   -10773.648     332.1517     102002.7      46.7237      46.7237      46.7237 
   69000     93.25823   -11698.214   -10780.585    237.83528     102002.7      46.7237      46.7237      46.7237 
   70000    90.575149   -11652.451   -10761.223    249.16089     102002.7      46.7237      46.7237      46.7237 
   71000    90.514598     -11672.6   -10781.968    389.63044     102002.7      46.7237      46.7237      46.7237 
   72000    90.926924   -11669.699   -10775.009    526.50243     102002.7      46.7237      46.7237      46.7237 
   73000    91.601092   -11677.456   -10776.133    399.85155     102002.7      46.7237      46.7237      46.7237 
   74000    90.596762   -11683.174   -10791.733    728.12517     102002.7      46.7237      46.7237      46.7237 
   75000     93.20787   -11681.051   -10763.918    704.30946     102002.7      46.7237      46.7237      46.7237 
   76000    92.158931   -11701.785   -10794.973    225.05754     102002.7      46.7237      46.7237      46.7237 
   77000    93.146537   -11668.755   -10752.225    289.80956     102002.7      46.7237      46.7237      46.7237 
   78000    89.640642    -11674.45   -10792.417    465.84182     102002.7      46.7237      46.7237      46.7237 
   79000    91.918485   -11682.063   -10777.616    246.34118     102002.7      46.7237      46.7237      46.7237 
   80000    89.647716   -11699.176   -10817.073    542.74617     102002.7      46.7237      46.7237      46.7237 
   81000    90.514197   -11686.874   -10796.245    395.09831     102002.7      46.7237      46.7237      46.7237 
   82000    91.439212   -11705.299   -10805.569    140.37511     102002.7      46.7237      46.7237      46.7237 
   83000    90.743183   -11686.442   -10793.561    293.03994     102002.7      46.7237      46.7237      46.7237 
   84000    89.835173   -11680.573   -10796.626    453.78588     102002.7      46.7237      46.7237      46.7237 
   85000    89.722586   -11691.908   -10809.069    309.12408     102002.7      46.7237      46.7237      46.7237 
   86000    90.525032    -11667.16   -10776.425    507.48254     102002.7      46.7237      46.7237      46.7237 
   87000    88.794594   -11687.718    -10814.01    431.65681     102002.7      46.7237      46.7237      46.7237 
   88000    93.259762   -11695.154    -10777.51    262.78976     102002.7      46.7237      46.7237      46.7237 
   89000    90.932532   -11706.183   -10811.439    380.22692     102002.7      46.7237      46.7237      46.7237 
   90000    92.639567   -11706.563   -10795.022    347.45367     102002.7      46.7237      46.7237      46.7237 
   91000    91.200081   -11695.388   -10798.011    221.37167     102002.7      46.7237      46.7237      46.7237 
   92000    89.935723   -11684.655   -10799.718     425.7972     102002.7      46.7237      46.7237      46.7237 
   93000    91.154592   -11668.355   -10771.425    266.67656     102002.7      46.7237      46.7237      46.7237 
   94000    92.152881   -11700.891   -10794.139    424.36858     102002.7      46.7237      46.7237      46.7237 
   95000    89.928101   -11674.575   -10789.714    344.87296     102002.7      46.7237      46.7237      46.7237 
   96000    90.694365   -11672.967   -10780.565    402.74066     102002.7      46.7237      46.7237      46.7237 
   97000    92.165389   -11692.938   -10786.063    426.95129     102002.7      46.7237      46.7237      46.7237 
   98000    91.797779   -11683.224   -10779.965    519.63355     102002.7      46.7237      46.7237      46.7237 
   99000    90.110204   -11683.903    -10797.25     -1.53762     102002.7      46.7237      46.7237      46.7237 
  100000    92.748148   -11677.025   -10764.415    164.76875     102002.7      46.7237      46.7237      46.7237 
  101000    92.821574   -11665.886   -10752.554    431.10988     102002.7      46.7237      46.7237      46.7237 
  102000    90.425721   -11706.725   -10816.967    391.45237     102002.7      46.7237      46.7237      46.7237 
  103000    89.523754   -11712.184   -10831.301    483.15341     102002.7      46.7237      46.7237      46.7237 
  104000    92.432562   -11699.457   -10789.953    392.61165     102002.7      46.7237      46.7237      46.7237 
  105000    92.396001   -11663.632   -10754.487    771.05753     102002.7      46.7237      46.7237      46.7237 
  106000    91.429768    -11681.94   -10782.303    597.34367     102002.7      46.7237      46.7237      46.7237 
  107000     93.99681   -11684.614   -10759.718    372.69376     102002.7      46.7237      46.7237      46.7237 
  108000    92.351243   -11704.948   -10796.244    491.83237     102002.7      46.7237      46.7237      46.7237 
  109000    91.052864   -11706.983   -10811.054    202.88096     102002.7      46.7237      46.7237      46.7237 
  110000    92.681907   -11696.248    -10784.29    363.92835     102002.7      46.7237      46.7237      46.7237 
  111000    91.297854   -11671.308   -10772.968    627.54596     102002.7      46.7237      46.7237      46.7237 
  112000    90.489402   -11688.638   -10798.254    644.96995     102002.7      46.7237      46.7237      46.7237 
  113000    91.359491   -11716.961   -10818.016    576.96291     102002.7      46.7237      46.7237      46.7237 
  114000    90.967616   -11705.894   -10810.804     572.6095     102002.7      46.7237      46.7237      46.7237 
  115000    90.800848   -11695.864   -10802.415    366.02471     102002.7      46.7237      46.7237      46.7237 
  116000    88.169913   -11700.854   -10833.292    201.51444     102002.7      46.7237      46.7237      46.7237 
  117000    92.962382   -11705.183   -10790.465    247.97229     102002.7      46.7237      46.7237      46.7237 
  118000    89.555401   -11711.839   -10830.644    331.58189     102002.7      46.7237      46.7237      46.7237 
  119000    89.326826   -11717.995    -10839.05    529.17546     102002.7      46.7237      46.7237      46.7237 
  120000    91.493435   -11688.874   -10788.611    257.45365     102002.7      46.7237      46.7237      46.7237 
  121000    91.685219   -11707.896   -10805.745    412.86948     102002.7      46.7237      46.7237      46.7237 
  122000    92.185374   -11699.209   -10792.137    541.44612     102002.7      46.7237      46.7237      46.7237 
  123000    90.523297   -11717.506   -10826.788    353.70302     102002.7      46.7237      46.7237      46.7237 
  124000    89.995782   -11706.961   -10821.434    227.56071     102002.7      46.7237      46.7237      46.7237 
  125000    89.737091   -11693.212    -10810.23     543.3597     102002.7      46.7237      46.7237      46.7237 
  126000    91.605773    -11719.85   -10818.481    229.62311     102002.7      46.7237      46.7237      46.7237 
  127000    90.353793   -11690.288   -10801.238    293.21474     102002.7      46.7237      46.7237      46.7237 
  128000     90.58184   -11690.474    -10799.18    263.85538     102002.7      46.7237      46.7237      46.7237 
  129000    91.171762    -11704.75   -10807.651    542.07267     102002.7      46.7237      46.7237      46.7237 
  130000    92.317222   -11705.678   -10797.308    609.95669     102002.7      46.7237      46.7237      46.7237 
  131000    90.497812   -11705.915   -10815.448    260.12293     102002.7      46.7237      46.7237      46.7237 
  132000     92.40502   -11698.303   -10789.069    445.82333     102002.7      46.7237      46.7237      46.7237 
  133000    88.651181   -11718.459   -10846.163    446.60698     102002.7      46.7237      46.7237      46.7237 
  134000    92.359092   -11723.274   -10814.492    125.34386     102002.7      46.7237      46.7237      46.7237 
  135000    89.474844    -11719.24   -10838.839    324.04842     102002.7      46.7237      46.7237      46.7237 
  136000    89.414342   -11705.739   -10825.933    494.90987     102002.7      46.7237      46.7237      46.7237 
  137000    89.559596     -11705.8   -10824.564    419.73292     102002.7      46.7237      46.7237      46.7237 
  138000    92.071898   -11712.477   -10806.521    371.89472     102002.7      46.7237      46.7237      46.7237 
  139000    90.538653   -11685.519    -10794.65    259.01342     102002.7      46.7237      46.7237      46.7237 
  140000    91.474548   -11666.124   -10766.046    343.07957     102002.7      46.7237      46.7237      46.7237 
  141000    90.906877   -11687.668   -10793.176    505.94413     102002.7      46.7237      46.7237      46.7237 
  142000    90.665756   -11699.165   -10807.046    193.33369     102002.7      46.7237      46.7237      46.7237 
  143000    88.341166   -11705.577    -10836.33    510.39929     102002.7      46.7237      46.7237      46.7237 
  144000    90.465713   -11708.886   -10818.735    399.79292     102002.7      46.7237      46.7237      46.7237 
  145000    92.422137   -11691.516   -10782.114    315.67793     102002.7      46.7237      46.7237      46.7237 
  146000    92.854143   -11686.375   -10772.723    266.80235     102002.7      46.7237      46.7237      46.7237 
  147000    92.371087   -11712.618   -10803.718    436.04991     102002.7      46.7237      46.7237      46.7237 
  148000    88.444936   -11674.041   -10803.773    305.79264     102002.7      46.7237      46.7237      46.7237 
  149000     89.79505   -11677.886   -10794.333    585.78992     102002.7      46.7237      46.7237      46.7237 
  150000     90.63063   -11696.325   -10804.551    461.96797     102002.7      46.7237      46.7237      46.7237 
  151000    92.932562   -11702.677   -10788.253    321.32841     102002.7      46.7237      46.7237      46.7237 
  152000    90.749626   -11719.588   -10826.643    197.37285     102002.7      46.7237      46.7237      46.7237 
  153000     92.58647   -11687.573   -10776.554    356.23746     102002.7      46.7237      46.7237      46.7237 
  154000     87.98599   -11697.235   -10831.483    186.36885     102002.7      46.7237      46.7237      46.7237 
  155000    91.248172   -11688.163   -10790.312    186.99963     102002.7      46.7237      46.7237      46.7237 
  156000     91.81352   -11717.499   -10814.085    297.94337     102002.7      46.7237      46.7237      46.7237 
  157000     92.62668   -11733.575    -10822.16    58.993249     102002.7      46.7237      46.7237      46.7237 
  158000    90.169342   -11691.355    -10804.12    470.75898     102002.7      46.7237      46.7237      46.7237 
  159000    89.973958   -11703.945   -10818.633     289.4514     102002.7      46.7237      46.7237      46.7237 
  160000    90.588464   -11725.778   -10834.418    534.55378     102002.7      46.7237      46.7237      46.7237 
  161000    90.951876   -11707.707   -10812.772    530.16633     102002.7      46.7237      46.7237      46.7237 
  162000    89.307466   -11690.194   -10811.439    234.85644     102002.7      46.7237      46.7237      46.7237 
  163000    90.343121    -11738.84   -10849.895    613.79465     102002.7      46.7237      46.7237      46.7237 
  164000    92.236225   -11707.351   -10799.779    510.18866     102002.7      46.7237      46.7237      46.7237 
  165000    91.836833   -11719.308   -10815.666    271.86452     102002.7      46.7237      46.7237      46.7237 
  166000    91.530376   -11699.874   -10799.246    226.06269     102002.7      46.7237      46.7237      46.7237 
  167000    91.617665   -11706.376    -10804.89    237.34792     102002.7      46.7237      46.7237      46.7237 
  168000    90.434082   -11714.609   -10824.769    235.04903     102002.7      46.7237      46.7237      46.7237 
  169000    91.337016   -11712.892   -10814.167    571.67343     102002.7      46.7237      46.7237      46.7237 
  170000    90.857712   -11733.092   -10839.083    413.20982     102002.7      46.7237      46.7237      46.7237 
  171000    90.265517   -11710.178   -10821.996     188.5791     102002.7      46.7237      46.7237      46.7237 
  172000     91.43394   -11716.101   -10816.423     510.7418     102002.7      46.7237      46.7237      46.7237 
  173000    90.727817   -11687.327   -10794.597    459.35568     102002.7      46.7237      46.7237      46.7237 
  174000    93.514851   -11724.231   -10804.077    239.80874     102002.7      46.7237      46.7237      46.7237 
  175000    90.443978   -11693.379   -10803.441    285.29092     102002.7      46.7237      46.7237      46.7237 
  176000    91.111618   -11716.402   -10819.895    267.08642     102002.7      46.7237      46.7237      46.7237 
  177000    90.541803   -11704.767   -10813.867    120.05094     102002.7      46.7237      46.7237      46.7237 
  178000    87.761647   -11699.961   -10836.416    562.67961     102002.7      46.7237      46.7237      46.7237 
  179000    90.569717    -11706.59   -10815.415    725.87257     102002.7      46.7237      46.7237      46.7237 
  180000    92.225705   -11699.945   -10792.476    476.27474     102002.7      46.7237      46.7237      46.7237 
  181000    90.600714   -11691.438   -10799.958    583.60313     102002.7      46.7237      46.7237      46.7237 
  182000    92.262048     -11710.3   -10802.473    442.67702     102002.7      46.7237      46.7237      46.7237 
  183000     93.88935   -11717.092   -10793.253    276.28453     102002.7      46.7237      46.7237      46.7237 
  184000     91.58731   -11692.146   -10790.958    330.77439     102002.7      46.7237      46.7237      46.7237 
  185000    92.239941   -11696.833   -10789.224    255.34044     102002.7      46.7237      46.7237      46.7237 
  186000     91.48523   -11710.547   -10810.364    231.16821     102002.7      46.7237      46.7237      46.7237 
  187000    91.029221   -11713.887   -10818.191    206.32981     102002.7      46.7237      46.7237      46.7237 
  188000    92.469213    -11703.26   -10793.395    118.60045     102002.7      46.7237      46.7237      46.7237 
  189000    91.321162   -11714.984   -10816.415    418.18816     102002.7      46.7237      46.7237      46.7237 
  190000    91.264029   -11713.232   -10815.225     446.0982     102002.7      46.7237      46.7237      46.7237 
  191000    90.702294   -11711.345   -10818.865    439.86402     102002.7      46.7237      46.7237      46.7237 
  192000    92.890498   -11727.311     -10813.3    508.16032     102002.7      46.7237      46.7237      46.7237 
  193000    90.403848   -11721.557   -10832.015    186.05217     102002.7      46.7237      46.7237      46.7237 
  194000    92.402572   -11689.284   -10780.075    544.87567     102002.7      46.7237      46.7237      46.7237 
  195000    88.993769     -11724.2   -10848.532    294.24814     102002.7      46.7237      46.7237      46.7237 
  196000      89.6229   -11694.305   -10812.447    309.14822     102002.7      46.7237      46.7237      46.7237 
  197000    92.155358   -11709.385   -10802.608    366.20035     102002.7      46.7237      46.7237      46.7237 
  198000    91.468896   -11730.848   -10830.826    664.15135     102002.7      46.7237      46.7237      46.7237 
  199000    91.634213    -11706.65   -10805.001    217.93802     102002.7      46.7237      46.7237      46.7237 
  200000    88.918999   -11735.778   -10860.846    383.29592     102002.7      46.7237      46.7237      46.7237 
  201000    91.951307   -11703.523   -10798.754    364.13177     102002.7      46.7237      46.7237      46.7237 
  202000    91.148437    -11743.09   -10846.221    281.92054     102002.7      46.7237      46.7237      46.7237 
  203000    93.231181   -11722.764   -10805.401    209.24232     102002.7      46.7237      46.7237      46.7237 
  204000    89.908109   -11719.466   -10834.801    441.46859     102002.7      46.7237      46.7237      46.7237 
  205000     91.13665   -11718.041   -10821.288     144.9927     102002.7      46.7237      46.7237      46.7237 
  206000    92.302642   -11707.409   -10799.182    222.74174     102002.7      46.7237      46.7237      46.7237 
  207000    91.662865   -11723.811    -10821.88    226.55406     102002.7      46.7237      46.7237      46.7237 
  208000    91.991038   -11749.284   -10844.124    152.24222     102002.7      46.7237      46.7237      46.7237 
  209000    91.518156    -11736.45   -10835.943    272.40204     102002.7      46.7237      46.7237      46.7237 
  210000    91.157675    -11729.74    -10832.78    204.09584     102002.7      46.7237      46.7237      46.7237 
  211000    91.384897   -11698.098   -10798.902    374.72388     102002.7      46.7237      46.7237      46.7237 
  212000    93.756802    -11715.94   -10793.405      161.586     102002.7      46.7237      46.7237      46.7237 
  213000    92.407033   -11681.288   -10772.035    322.50921     102002.7      46.7237      46.7237      46.7237 
  214000    90.839014   -11718.303   -10824.478    289.40542     102002.7      46.7237      46.7237      46.7237 
  215000    91.635708   -11717.446   -10815.783    376.48939     102002.7      46.7237      46.7237      46.7237 
  216000    92.413728   -11722.719     -10813.4    347.99068     102002.7      46.7237      46.7237      46.7237 
  217000    92.106243   -11699.421   -10793.128    435.18461     102002.7      46.7237      46.7237      46.7237 
  218000    92.049432   -11710.199   -10804.464    641.93024     102002.7      46.7237      46.7237      46.7237 
  219000      90.9188   -11722.968   -10828.358    498.49941     102002.7      46.7237      46.7237      46.7237 
  220000    92.749857    -11711.45   -10798.824    322.69036     102002.7      46.7237      46.7237      46.7237 
  221000    92.045898   -11721.347   -10815.647    449.42836     102002.7      46.7237      46.7237      46.7237 
  222000    89.042501   -11721.602   -10845.454    209.03283     102002.7      46.7237      46.7237      46.7237 
  223000    89.801933   -11721.707   -10838.087    426.19826     102002.7      46.7237      46.7237      46.7237 
  224000    91.441235   -11714.468   -10814.718    356.54629     102002.7      46.7237      46.7237      46.7237 
  225000    91.590287   -11727.803   -10826.587    215.94037     102002.7      46.7237      46.7237      46.7237 
  226000     89.13861   -11702.919   -10825.826    294.06972     102002.7      46.7237      46.7237      46.7237 
  227000    89.547869   -11698.357   -10817.237    333.66823     102002.7      46.7237      46.7237      46.7237 
  228000    93.242969   -11730.741   -10813.263    176.83313     102002.7      46.7237      46.7237      46.7237 
  229000    90.540909   -11746.156   -10855.265    384.00843     102002.7      46.7237      46.7237      46.7237 
  230000    90.082349   -11701.612   -10815.233     323.1233     102002.7      46.7237      46.7237      46.7237 
  231000    91.519272    -11704.92   -10804.402    297.61932     102002.7      46.7237      46.7237      46.7237 
  232000    92.345671   -11722.859    -10814.21    630.93234     102002.7      46.7237      46.7237      46.7237 
  233000    91.427737   -11683.991   -10784.374    210.76987     102002.7      46.7237      46.7237      46.7237 
  234000    91.952926   -11712.124   -10807.339    371.85688     102002.7      46.7237      46.7237      46.7237 
  235000    89.852178     -11712.7   -10828.586      588.589     102002.7      46.7237      46.7237      46.7237 
  236000    91.275804   -11732.523   -10834.401    94.340431     102002.7      46.7237      46.7237      46.7237 
  237000    90.680349    -11718.14   -10825.877    426.22002     102002.7      46.7237      46.7237      46.7237 
  238000    91.936183    -11704.94    -10800.32    452.99245     102002.7      46.7237      46.7237      46.7237 
  239000     92.02666   -11727.702   -10822.191    174.73819     102002.7      46.7237      46.7237      46.7237 
  240000    91.297852   -11735.072   -10836.732    369.74927     102002.7      46.7237      46.7237      46.7237 
  241000    91.981168   -11723.852   -10818.789    358.86479     102002.7      46.7237      46.7237      46.7237 
  242000    91.289537    -11709.84   -10811.583    178.01202     102002.7      46.7237      46.7237      46.7237 
  243000    88.721877    -11698.27   -10825.277    311.62368     102002.7      46.7237      46.7237      46.7237 
  244000    91.385998   -11709.781   -10810.575    311.30795     102002.7      46.7237      46.7237      46.7237 
  245000    91.343743   -11711.723   -10812.932    226.68709     102002.7      46.7237      46.7237      46.7237 
  246000    88.595103   -11707.445     -10835.7    469.74218     102002.7      46.7237      46.7237      46.7237 
  247000    92.218175   -11707.801   -10800.406    547.65717     102002.7      46.7237      46.7237      46.7237 
  248000    89.390255   -11726.284   -10846.714    368.58426     102002.7      46.7237      46.7237      46.7237 
  249000    89.913751   -11712.645   -10827.925    605.33096     102002.7      46.7237      46.7237      46.7237 
  250000    90.969079   -11703.327   -10808.222    431.97892     102002.7      46.7237      46.7237      46.7237 
  251000    90.108733   -11744.296   -10857.658    375.80369     102002.7      46.7237      46.7237      46.7237 
  252000    93.977941   -11735.736   -10811.025    488.68499     102002.7      46.7237      46.7237      46.7237 
  253000    93.208758   -11716.361   -10799.219   -26.332661     102002.7      46.7237      46.7237      46.7237 
  254000    91.574826   -11707.787   -10806.722    136.34488     102002.7      46.7237      46.7237      46.7237 
  255000    90.922664   -11709.132   -10814.484    401.98053     102002.7      46.7237      46.7237      46.7237 
  256000    93.686805    -11705.13   -10783.284    175.06709     102002.7      46.7237      46.7237      46.7237 
  257000     92.88139   -11731.842   -10817.921     265.9884     102002.7      46.7237      46.7237      46.7237 
  258000    91.418901    -11729.38   -10829.849    327.89249     102002.7      46.7237      46.7237      46.7237 
  259000    90.452218   -11715.778   -10825.759    371.98727     102002.7      46.7237      46.7237      46.7237 
  260000    89.916047   -11699.002   -10814.259    343.16819     102002.7      46.7237      46.7237      46.7237 
  261000    89.747235   -11718.622    -10835.54    429.34626     102002.7      46.7237      46.7237      46.7237 
  262000    89.295243   -11704.713   -10826.079     564.5486     102002.7      46.7237      46.7237      46.7237 
  263000    91.581466   -11706.051   -10804.921    653.08813     102002.7      46.7237      46.7237      46.7237 
  264000    89.651976    -11723.89   -10841.746    228.34237     102002.7      46.7237      46.7237      46.7237 
  265000     90.03359    -11702.53   -10816.631    271.35244     102002.7      46.7237      46.7237      46.7237 
  266000    90.071603   -11707.223    -10820.95    324.45059     102002.7      46.7237      46.7237      46.7237 
  267000    91.068371   -11712.268   -10816.187    388.27538     102002.7      46.7237      46.7237      46.7237 
  268000     90.05062   -11731.194   -10845.127     638.5077     102002.7      46.7237      46.7237      46.7237 
  269000    91.255915   -11723.316    -10825.39    182.34511     102002.7      46.7237      46.7237      46.7237 
  270000    92.325754   -11715.694    -10807.24   -7.1607087     102002.7      46.7237      46.7237      46.7237 
  271000    92.320772   -11714.483   -10806.078    418.60685     102002.7      46.7237      46.7237      46.7237 
  272000    88.846032   -11724.124    -10849.91    410.54415     102002.7      46.7237      46.7237      46.7237 
  273000    90.204328   -11711.196   -10823.617    60.170898     102002.7      46.7237      46.7237      46.7237 
  274000    91.025838   -11708.485   -10812.822    252.93695     102002.7      46.7237      46.7237      46.7237 
  275000    90.678727    -11724.33   -10832.082    379.60362     102002.7      46.7237      46.7237      46.7237 
  276000    90.773127   -11718.996    -10825.82    352.92319     102002.7      46.7237      46.7237      46.7237 
  277000    92.520268   -11749.709   -10839.341    429.48462     102002.7      46.7237      46.7237      46.7237 
  278000    91.794418   -11715.675   -10812.449     331.2076     102002.7      46.7237      46.7237      46.7237 
  279000    88.451521   -11696.282    -10825.95    390.44677     102002.7      46.7237      46.7237      46.7237 
  280000    91.316945   -11722.079   -10823.552    288.34762     102002.7      46.7237      46.7237      46.7237 
  281000    92.889635   -11712.867   -10798.865    724.75744     102002.7      46.7237      46.7237      46.7237 
  282000    90.298611   -11735.186   -10846.679    15.775457     102002.7      46.7237      46.7237      46.7237 
  283000    92.402248   -11713.945   -10804.739     165.7914     102002.7      46.7237      46.7237      46.7237 
  284000    92.666998   -11728.066   -10816.255    365.49646     102002.7      46.7237      46.7237      46.7237 
  285000    89.695903    -11723.03   -10840.453    412.93892     102002.7      46.7237      46.7237      46.7237 
  286000    91.522441   -11709.868   -10809.319    537.76989     102002.7      46.7237      46.7237      46.7237 
  287000    91.401152   -11719.555   -10820.199    401.86114     102002.7      46.7237      46.7237      46.7237 
  288000    89.443979    -11713.87   -10833.773    102.28977     102002.7      46.7237      46.7237      46.7237 
  289000    89.951656    -11727.93   -10842.837    247.06203     102002.7      46.7237      46.7237      46.7237 
  290000    91.472125   -11717.727   -10817.673    421.25676     102002.7      46.7237      46.7237      46.7237 
  291000    91.061602   -11714.541   -10818.526    364.63575     102002.7      46.7237      46.7237      46.7237 
  292000    92.289023   -11714.842    -10806.75    138.55055     102002.7      46.7237      46.7237      46.7237 
  293000     90.45182   -11718.602   -10828.587    84.255472     102002.7      46.7237      46.7237      46.7237 
  294000    89.351588   -11695.081   -10815.893    14.236896     102002.7      46.7237      46.7237      46.7237 
  295000    91.423623    -11716.35   -10816.773    74.777728     102002.7      46.7237      46.7237      46.7237 
  296000     91.43338   -11720.663    -10820.99     226.2724     102002.7      46.7237      46.7237      46.7237 
  297000    91.033056   -11713.523   -10817.789    448.40261     102002.7      46.7237      46.7237      46.7237 
  298000    92.225141   -11716.364   -10808.901    401.93138     102002.7      46.7237      46.7237      46.7237 
  299000    90.208305   -11711.764   -10824.145    39.335801     102002.7      46.7237      46.7237      46.7237 
  300000    93.025713   -11741.749   -10826.409    331.98829     102002.7      46.7237      46.7237      46.7237 
  301000    91.877466   -11726.967   -10822.924    578.11569     102002.7      46.7237      46.7237      46.7237 
  302000    90.885847    -11721.29   -10827.005    428.39451     102002.7      46.7237      46.7237      46.7237 
  303000     90.18591   -11694.273   -10806.875    535.64352     102002.7      46.7237      46.7237      46.7237 
  304000    88.278253   -11738.954   -10870.327    445.06065     102002.7      46.7237      46.7237      46.7237 
  305000    91.758166   -11692.896   -10790.027    328.33349     102002.7      46.7237      46.7237      46.7237 
  306000     91.14113   -11729.793   -10832.995    374.24054     102002.7      46.7237      46.7237      46.7237 
  307000    92.528017   -11702.056   -10791.612    261.47574     102002.7      46.7237      46.7237      46.7237 
  308000    92.047241   -11721.813     -10816.1    13.290766     102002.7      46.7237      46.7237      46.7237 
  309000    90.453907   -11717.785    -10827.75    221.64837     102002.7      46.7237      46.7237      46.7237 
  310000     90.49012   -11706.812   -10816.421    605.40114     102002.7      46.7237      46.7237      46.7237 
  311000    92.298281   -11735.253    -10827.07    294.26152     102002.7      46.7237      46.7237      46.7237 
  312000    90.427169   -11702.636   -10812.864    493.91785     102002.7      46.7237      46.7237      46.7237 
  313000     90.89285   -11720.498   -10826.143    442.07788     102002.7      46.7237      46.7237      46.7237 
  314000    91.411509   -11696.638   -10797.181    311.57948     102002.7      46.7237      46.7237      46.7237 
  315000     88.73046   -11737.921   -10864.844    856.81838     102002.7      46.7237      46.7237      46.7237 
  316000    89.523547   -11746.367   -10865.487    332.90857     102002.7      46.7237      46.7237      46.7237 
  317000    90.637978     -11712.1   -10820.254    54.508231     102002.7      46.7237      46.7237      46.7237 
  318000    90.047627   -11701.834   -10815.796    357.53614     102002.7      46.7237      46.7237      46.7237 
  319000    90.487574    -11720.39   -10830.024    466.32885     102002.7      46.7237      46.7237      46.7237 
  320000    90.651079   -11708.018   -10816.043    269.84183     102002.7      46.7237      46.7237      46.7237 
  321000    88.596803    -11718.19   -10846.428    484.51806     102002.7      46.7237      46.7237      46.7237 
  322000    92.246854   -11727.523   -10819.845    139.52534     102002.7      46.7237      46.7237      46.7237 
  323000    89.914742   -11690.896   -10806.166    290.18938     102002.7      46.7237      46.7237      46.7237 
  324000    90.821699   -11730.119   -10836.465     428.6882     102002.7      46.7237      46.7237      46.7237 
  325000      90.1686    -11721.31   -10834.082    285.54008     102002.7      46.7237      46.7237      46.7237 
  326000     90.11328   -11721.075   -10834.391    496.98582     102002.7      46.7237      46.7237      46.7237 
  327000    95.538934   -11729.011   -10788.941    195.84479     102002.7      46.7237      46.7237      46.7237 
  328000    90.018679   -11736.604   -10850.851    201.39902     102002.7      46.7237      46.7237      46.7237 
  329000    91.819466   -11716.878   -10813.406    378.87982     102002.7      46.7237      46.7237      46.7237 
  330000    90.684603   -11718.316   -10826.011     269.7921     102002.7      46.7237      46.7237      46.7237 
  331000    90.298627   -11729.656   -10841.149    282.40282     102002.7      46.7237      46.7237      46.7237 
  332000    91.308703   -11713.353   -10814.907     491.9192     102002.7      46.7237      46.7237      46.7237 
  333000    90.283525   -11717.497   -10829.138    453.18732     102002.7      46.7237      46.7237      46.7237 
  334000    90.662157   -11706.839   -10814.754     243.2153     102002.7      46.7237      46.7237      46.7237 
  335000    92.859653   -11731.503   -10817.796    310.01167     102002.7      46.7237      46.7237      46.7237 
  336000    89.431824   -11715.897   -10835.919    438.19165     102002.7      46.7237      46.7237      46.7237 
  337000    91.367391   -11730.278   -10831.255   -30.309449     102002.7      46.7237      46.7237      46.7237 
  338000    91.934563   -11710.614    -10806.01     390.9659     102002.7      46.7237      46.7237      46.7237 
  339000    91.575913   -11736.389   -10835.314    260.45139     102002.7      46.7237      46.7237      46.7237 
  340000    89.778782    -11724.47   -10841.078    259.54114     102002.7      46.7237      46.7237      46.7237 
  341000    90.996156   -11714.883   -10819.512    101.65951     102002.7      46.7237      46.7237      46.7237 
  342000    86.947579   -11717.005   -10861.471    383.50972     102002.7      46.7237      46.7237      46.7237 
  343000    91.515472   -11715.776   -10815.296    270.91414     102002.7      46.7237      46.7237      46.7237 
  344000    90.435712   -11728.739   -10838.882    225.12303     102002.7      46.7237      46.7237      46.7237 
  345000    91.241234   -11721.455   -10823.673    407.59732     102002.7      46.7237      46.7237      46.7237 
  346000    92.827127   -11720.872   -10807.485    305.41665     102002.7      46.7237      46.7237      46.7237 
  347000    89.650928   -11701.668   -10819.534    383.70852     102002.7      46.7237      46.7237      46.7237 
  348000    90.227478   -11707.018   -10819.211    382.90699     102002.7      46.7237      46.7237      46.7237 
  349000    93.325176    -11735.46   -10817.172    285.14286     102002.7      46.7237      46.7237      46.7237 
  350000    91.294835   -11710.371   -10812.061    180.22551     102002.7      46.7237      46.7237      46.7237 
  351000    88.813053    -11702.74    -10828.85    291.21843     102002.7      46.7237      46.7237      46.7237 
  352000    90.364923   -11733.063   -10843.903    443.93216     102002.7      46.7237      46.7237      46.7237 
  353000    90.489623   -11730.579   -10840.193    516.28154     102002.7      46.7237      46.7237      46.7237 
  354000    90.219104   -11691.633   -10803.908    371.11432     102002.7      46.7237      46.7237      46.7237 
  355000    86.908493   -11727.912   -10872.763    201.25331     102002.7      46.7237      46.7237      46.7237 
  356000    90.619859   -11731.014   -10839.346    558.18644     102002.7      46.7237      46.7237      46.7237 
  357000    91.294819   -11731.846   -10833.537    387.64893     102002.7      46.7237      46.7237      46.7237 
  358000    88.155207   -11734.494   -10867.077    361.89232     102002.7      46.7237      46.7237      46.7237 
  359000    91.968597    -11707.29   -10802.351    232.00129     102002.7      46.7237      46.7237      46.7237 
  360000    89.393424   -11736.532   -10856.932    313.79184     102002.7      46.7237      46.7237      46.7237 
  361000     91.86662   -11715.305    -10811.37    294.08976     102002.7      46.7237      46.7237      46.7237 
  362000    92.126071   -11702.403   -10795.914    408.91961     102002.7      46.7237      46.7237      46.7237 
  363000    89.301081   -11719.914   -10841.222    752.67009     102002.7      46.7237      46.7237      46.7237 
  364000    92.536343   -11724.575    -10814.05    427.12171     102002.7      46.7237      46.7237      46.7237 
  365000    91.948568   -11732.897   -10828.155    213.10575     102002.7      46.7237      46.7237      46.7237 
  366000    92.998815   -11709.482   -10794.406    411.26607     102002.7      46.7237      46.7237      46.7237 
  367000    91.627081    -11715.01   -10813.431    495.81657     102002.7      46.7237      46.7237      46.7237 
  368000     90.75284   -11721.882   -10828.905     716.5852     102002.7      46.7237      46.7237      46.7237 
  369000     90.83123   -11713.857   -10820.109    493.41252     102002.7      46.7237      46.7237      46.7237 
  370000    90.252116   -11717.825   -10829.775    455.48044     102002.7      46.7237      46.7237      46.7237 
  371000    89.982193   -11709.774    -10824.38    268.97017     102002.7      46.7237      46.7237      46.7237 
  372000    89.869237   -11713.351   -10829.069    461.38603     102002.7      46.7237      46.7237      46.7237 
  373000    91.526671   -11726.143   -10825.553    32.989871     102002.7      46.7237      46.7237      46.7237 
  374000    91.336953   -11727.396   -10828.672    425.37652     102002.7      46.7237      46.7237      46.7237 
  375000    91.821525   -11740.583   -10837.091    610.39483     102002.7      46.7237      46.7237      46.7237 
  376000     91.54014    -11715.37   -10814.646    265.11753     102002.7      46.7237      46.7237      46.7237 
  377000    89.016239   -11735.024   -10859.135    341.35917     102002.7      46.7237      46.7237      46.7237 
  378000    91.427634   -11720.998   -10821.382    450.66137     102002.7      46.7237      46.7237      46.7237 
  379000    92.349744   -11717.638   -10808.948    210.99519     102002.7      46.7237      46.7237      46.7237 
  380000    90.194915   -11713.842   -10826.355    426.20616     102002.7      46.7237      46.7237      46.7237 
  381000    89.481469     -11709.5   -10829.034    394.09684     102002.7      46.7237      46.7237      46.7237 
  382000    93.295013   -11720.504   -10802.513    232.61209     102002.7      46.7237      46.7237      46.7237 
  383000    89.010959   -11727.453   -10851.616    297.91168     102002.7      46.7237      46.7237      46.7237 
  384000     90.91802    -11716.18   -10821.578    263.69333     102002.7      46.7237      46.7237      46.7237 
  385000    92.070546   -11714.979   -10809.037    226.11213     102002.7      46.7237      46.7237      46.7237 
  386000    89.600171    -11731.67   -10850.035    466.83759     102002.7      46.7237      46.7237      46.7237 
  387000    92.130238   -11749.748   -10843.218    51.056562     102002.7      46.7237      46.7237      46.7237 
  388000      91.0415   -11717.825   -10822.008    290.58576     102002.7      46.7237      46.7237      46.7237 
  389000    91.214872   -11741.146   -10843.623    310.17348     102002.7      46.7237      46.7237      46.7237 
  390000    88.968059   -11721.004   -10845.589     503.3092     102002.7      46.7237      46.7237      46.7237 
  391000    90.547175   -11742.904   -10851.951    188.23761     102002.7      46.7237      46.7237      46.7237 
  392000    93.571003   -11736.444   -10815.738    300.61557     102002.7      46.7237      46.7237      46.7237 
  393000     91.30557   -11711.871   -10813.456    537.73032     102002.7      46.7237      46.7237      46.7237 
  394000      90.4878    -11708.73   -10818.361    360.86799     102002.7      46.7237      46.7237      46.7237 
  395000    89.259405   -11702.356   -10824.074    361.35054     102002.7      46.7237      46.7237      46.7237 
  396000    92.549772   -11725.971   -10815.314    415.12973     102002.7      46.7237      46.7237      46.7237 
  397000    89.209205   -11740.636   -10862.849    74.811128     102002.7      46.7237      46.7237      46.7237 
  398000    92.043493   -11722.471   -10816.795    338.18042     102002.7      46.7237      46.7237      46.7237 
  399000    93.271716   -11720.612    -10802.85    325.44122     102002.7      46.7237      46.7237      46.7237 
  400000    91.924595   -11723.499   -10818.993    409.10488     102002.7      46.7237      46.7237      46.7237 
  401000    89.599736   -11731.822   -10850.192    360.18927     102002.7      46.7237      46.7237      46.7237 
  402000    90.952678   -11729.872   -10834.929    59.857871     102002.7      46.7237      46.7237      46.7237 
  403000    92.165551   -11731.212   -10824.335    328.99353     102002.7      46.7237      46.7237      46.7237 
  404000    90.164087   -11732.059   -10844.876    458.04032     102002.7      46.7237      46.7237      46.7237 
  405000    92.772171   -11725.621   -10812.775     556.8475     102002.7      46.7237      46.7237      46.7237 
  406000    91.008507   -11730.552   -10835.059    412.77989     102002.7      46.7237      46.7237      46.7237 
  407000    92.352121   -11737.327   -10828.614    383.11081     102002.7      46.7237      46.7237      46.7237 
  408000    90.900298   -11732.543   -10838.115     208.4352     102002.7      46.7237      46.7237      46.7237 
  409000    92.677126   -11731.407   -10819.496    469.48362     102002.7      46.7237      46.7237      46.7237 
  410000    91.044049   -11730.991   -10835.149    377.53123     102002.7      46.7237      46.7237      46.7237 
  411000    89.023397   -11728.602   -10852.643    413.26196     102002.7      46.7237      46.7237      46.7237 
  412000    89.659485   -11718.429   -10836.211    344.67606     102002.7      46.7237      46.7237      46.7237 
  413000    90.982026   -11715.601    -10820.37    308.16786     102002.7      46.7237      46.7237      46.7237 
  414000     90.98034   -11740.244   -10845.029    128.42664     102002.7      46.7237      46.7237      46.7237 
  415000    92.735062   -11705.864   -10793.383    510.12935     102002.7      46.7237      46.7237      46.7237 
  416000    90.944463   -11712.394   -10817.532    162.19401     102002.7      46.7237      46.7237      46.7237 
  417000    90.885366   -11715.406   -10821.126    255.36914     102002.7      46.7237      46.7237      46.7237 
  418000     92.67538   -11733.751   -10821.857    411.07927     102002.7      46.7237      46.7237      46.7237 
  419000      92.1351    -11740.24   -10833.662    161.64136     102002.7      46.7237      46.7237      46.7237 
  420000    89.569702   -11729.072   -10847.737    353.15779     102002.7      46.7237      46.7237      46.7237 
  421000    89.622292   -11717.437   -10835.584    405.39486     102002.7      46.7237      46.7237      46.7237 
  422000     89.91771   -11724.664   -10839.905    107.82026     102002.7      46.7237      46.7237      46.7237 
  423000    89.980505   -11734.924   -10849.547    310.59373     102002.7      46.7237      46.7237      46.7237 
  424000    88.717414   -11730.059   -10857.111    646.85966     102002.7      46.7237      46.7237      46.7237 
  425000    91.894113   -11716.525   -10812.318     349.5601     102002.7      46.7237      46.7237      46.7237 
  426000    91.070674   -11712.636   -10816.532     460.0946     102002.7      46.7237      46.7237      46.7237 
  427000    90.204791   -11729.824    -10842.24    460.32143     102002.7      46.7237      46.7237      46.7237 
  428000    86.623884   -11701.433   -10849.084   -2.5577153     102002.7      46.7237      46.7237      46.7237 
  429000     91.04323   -11717.856   -10822.022    508.63627     102002.7      46.7237      46.7237      46.7237 
  430000    91.452168   -11699.361   -10799.504    310.69494     102002.7      46.7237      46.7237      46.7237 
  431000    91.067394   -11722.419   -10826.347    197.13109     102002.7      46.7237      46.7237      46.7237 
  432000    90.700962   -11727.425   -10834.959    352.12952     102002.7      46.7237      46.7237      46.7237 
  433000    88.935481   -11697.106   -10822.012    489.67459     102002.7      46.7237      46.7237      46.7237 
  434000    90.247883   -11716.662   -10828.654    752.95346     102002.7      46.7237      46.7237      46.7237 
  435000    91.938777   -11746.333   -10841.687    260.76821     102002.7      46.7237      46.7237      46.7237 
  436000     90.80405   -11718.497   -10825.017    496.39064     102002.7      46.7237      46.7237      46.7237 
  437000    90.518294   -11716.661   -10825.992    587.10742     102002.7      46.7237      46.7237      46.7237 
  438000    90.613648   -11713.765   -10822.158    394.54933     102002.7      46.7237      46.7237      46.7237 
  439000    90.971145   -11694.348   -10799.224    490.25354     102002.7      46.7237      46.7237      46.7237 
  440000    91.340749   -11711.634   -10812.872    272.53054     102002.7      46.7237      46.7237      46.7237 
  441000    90.076297   -11706.529   -10820.209    221.16173     102002.7      46.7237      46.7237      46.7237 
  442000     91.83692   -11706.328   -10802.685    366.78946     102002.7      46.7237      46.7237      46.7237 
  443000    87.957878   -11712.045    -10846.57    358.97695     102002.7      46.7237      46.7237      46.7237 
  444000    91.055988   -11730.619    -10834.66    296.75853     102002.7      46.7237      46.7237      46.7237 
  445000    91.233952   -11705.788   -10808.077     241.1548     102002.7      46.7237      46.7237      46.7237 
  446000    89.492691   -11722.061   -10841.484    178.39875     102002.7      46.7237      46.7237      46.7237 
  447000    91.475692   -11710.784   -10810.695    335.85687     102002.7      46.7237      46.7237      46.7237 
  448000    90.309281   -11706.106   -10817.494    352.61282     102002.7      46.7237      46.7237      46.7237 
  449000    89.947813   -11722.796   -10837.741    354.12412     102002.7      46.7237      46.7237      46.7237 
  450000    92.820387   -11707.133   -10793.813    217.66724     102002.7      46.7237      46.7237      46.7237 
  451000    90.391988   -11718.663   -10829.237    476.27454     102002.7      46.7237      46.7237      46.7237 
  452000    88.588235   -11747.093   -10875.416    338.09936     102002.7      46.7237      46.7237      46.7237 
  453000    91.428107    -11739.43   -10839.809    469.55693     102002.7      46.7237      46.7237      46.7237 
  454000    93.319542   -11705.923   -10787.691     499.8234     102002.7      46.7237      46.7237      46.7237 
  455000    91.139617   -11719.524   -10822.741    152.28637     102002.7      46.7237      46.7237      46.7237 
  456000    91.579895   -11731.989   -10830.875    313.98115     102002.7      46.7237      46.7237      46.7237 
  457000    92.040691   -11735.227   -10829.578    513.07555     102002.7      46.7237      46.7237      46.7237 
  458000    92.353591   -11715.213   -10806.486    208.73474     102002.7      46.7237      46.7237      46.7237 
  459000    91.175111   -11711.108   -10813.976    494.31268     102002.7      46.7237      46.7237      46.7237 
  460000    90.084683   -11728.597   -10842.195    514.72743     102002.7      46.7237      46.7237      46.7237 
  461000    93.373775   -11744.432   -10825.667    169.11666     102002.7      46.7237      46.7237      46.7237 
  462000    90.190704   -11731.739   -10844.294    483.41088     102002.7      46.7237      46.7237      46.7237 
  463000    92.810516   -11711.315   -10798.091    563.61502     102002.7      46.7237      46.7237      46.7237 
  464000    90.438559    -11733.23   -10843.346    255.22779     102002.7      46.7237      46.7237      46.7237 
  465000    90.125603   -11709.396   -10822.591    366.99894     102002.7      46.7237      46.7237      46.7237 
  466000    88.723344   -11713.317    -10840.31     514.4531     102002.7      46.7237      46.7237      46.7237 
  467000    90.625442   -11720.167   -10828.444    374.24011     102002.7      46.7237      46.7237      46.7237 
  468000    91.528997   -11728.342   -10827.728    136.30301     102002.7      46.7237      46.7237      46.7237 
  469000    92.671574   -11714.998   -10803.142    360.71989     102002.7      46.7237      46.7237      46.7237 
  470000    88.462071    -11743.49   -10873.054    162.32188     102002.7      46.7237      46.7237      46.7237 
  471000    91.984451   -11696.903   -10791.808    234.17051     102002.7      46.7237      46.7237      46.7237 
  472000    90.757231   -11706.718   -10813.698    534.14997     102002.7      46.7237      46.7237      46.7237 
  473000    89.748151   -11730.932   -10847.841    330.37771     102002.7      46.7237      46.7237      46.7237 
  474000    91.453059   -11722.407    -10822.54    594.86612     102002.7      46.7237      46.7237      46.7237 
  475000    91.228841   -11725.899   -10828.239    455.16292     102002.7      46.7237      46.7237      46.7237 
  476000    91.840649    -11743.42    -10839.74    384.89935     102002.7      46.7237      46.7237      46.7237 
  477000    89.469302   -11723.181   -10842.834    584.52026     102002.7      46.7237      46.7237      46.7237 
  478000     93.37138   -11727.318   -10808.576    123.65605     102002.7      46.7237      46.7237      46.7237 
  479000     92.08744   -11725.453   -10819.344    380.72192     102002.7      46.7237      46.7237      46.7237 
  480000    90.339355   -11741.134   -10852.226    257.63782     102002.7      46.7237      46.7237      46.7237 
  481000     91.01669   -11735.132   -10839.559    173.70641     102002.7      46.7237      46.7237      46.7237 
  482000    91.099246   -11701.945    -10805.56    536.93563     102002.7      46.7237      46.7237      46.7237 
  483000    91.240217   -11704.838   -10807.066    228.92255     102002.7      46.7237      46.7237      46.7237 
  484000    90.832915   -11723.739   -10829.974    222.51672     102002.7      46.7237      46.7237      46.7237 
  485000    92.018421   -11729.626   -10824.197    642.63432     102002.7      46.7237      46.7237      46.7237 
  486000    90.111848   -11720.495   -10833.826    200.30656     102002.7      46.7237      46.7237      46.7237 
  487000     90.58059    -11718.38   -10827.098    403.26276     102002.7      46.7237      46.7237      46.7237 
  488000    90.706359     -11721.9    -10829.38    442.30604     102002.7      46.7237      46.7237      46.7237 
  489000    92.127098   -11697.172   -10790.673     163.3801     102002.7      46.7237      46.7237      46.7237 
  490000    89.386913   -11717.348   -10837.812    379.47967     102002.7      46.7237      46.7237      46.7237 
  491000    91.705376   -11706.465   -10804.116     208.8469     102002.7      46.7237      46.7237      46.7237 
  492000    91.050783   -11705.446   -10809.537    324.06597     102002.7      46.7237      46.7237      46.7237 
  493000    91.295861   -11717.027   -10818.707    415.81069     102002.7      46.7237      46.7237      46.7237 
  494000    92.603704   -11731.076   -10819.887    277.05303     102002.7      46.7237      46.7237      46.7237 
  495000    89.598537   -11734.826   -10853.207    601.41695     102002.7      46.7237      46.7237      46.7237 
  496000    91.582353   -11709.301   -10808.162    414.13859     102002.7      46.7237      46.7237      46.7237 
  497000    90.367421   -11736.956   -10847.771    299.27819     102002.7      46.7237      46.7237      46.7237 
  498000    93.646029   -11704.369   -10782.924    590.45313     102002.7      46.7237      46.7237      46.7237 
  499000    90.815062   -11725.154   -10831.565    229.35417     102002.7      46.7237      46.7237      46.7237 
  500000    90.484352   -11712.669   -10822.335    252.23792     102002.7      46.7237      46.7237      46.7237 
  500500    90.075855   -11718.956   -10832.641    182.74014     102002.7      46.7237      46.7237      46.7237 
Loop time of 1901 on 16 procs for 500000 steps with 3302 atoms

Performance: 22.725 ns/day, 1.056 hours/ns, 263.019 timesteps/s
99.8% CPU use with 16 MPI tasks x no OpenMP threads

MPI task timing breakdown:
Section |  min time  |  avg time  |  max time  |%varavg| %total
---------------------------------------------------------------
Pair    | 989.03     | 1207.6     | 1510       | 413.0 | 63.52
Bond    | 145.39     | 174.83     | 195.3      | 116.1 |  9.20
Neigh   | 14.643     | 14.697     | 14.759     |   1.0 |  0.77
Comm    | 169.15     | 486.38     | 704.32     | 672.4 | 25.59
Output  | 0.022001   | 0.022658   | 0.026507   |   0.7 |  0.00
Modify  | 9.4249     | 10.463     | 11.29      |  20.7 |  0.55
Other   |            | 7.003      |            |       |  0.37

Nlocal:    206.375 ave 231 max 180 min
Histogram: 2 1 0 2 3 2 2 2 0 2
Nghost:    4135.62 ave 4163 max 4110 min
Histogram: 1 2 1 4 1 1 2 2 0 2
Neighs:    11459.6 ave 15473 max 7220 min
Histogram: 2 1 0 2 3 1 2 2 1 2

Total # of neighbors = 183354
Ave neighs/atom = 55.5282
Ave special neighs/atom = 3.48879
Neighbor list builds = 4096
Dangerous builds = 0
Neighbor list info ...
  update every 1 steps, delay 10 steps, check yes
  max neighbors/atom: 2000, page size: 100000
  master list distance cutoff = 16
  ghost atom cutoff = 16
  binsize = 8, bins = 6 6 6
  3 neighbor lists, perpetual/occasional/extra = 3 0 0
  (1) pair buck6d/coul/gauss/dsf, perpetual, skip from (3)
      attributes: half, newton on
      pair build: skip
      stencil: none
      bin: none
  (2) pair lj/cut, perpetual, skip from (3)
      attributes: half, newton on
      pair build: skip
      stencil: none
      bin: none
  (3) neighbor class addition, perpetual
      attributes: half, newton on
      pair build: half/bin/newton
      stencil: half/bin/3d/newton
      bin: standard
Setting up Verlet run ...
  Unit style    : real
  Current step  : 500500
  Time step     : 1
WARNING: Inconsistent image flags (../domain.cpp:786)
Per MPI rank memory allocation (min/avg/max) = 22.79 | 23.15 | 23.45 Mbytes
Step Time TotEng KinEng PotEng E_mol E_pair Temp Pxx Pyy Pzz Pxy Pxz Pyz Cella Cellb Cellc CellAlpha CellBeta CellGamma Volume Press 
  500500       500000   -10832.641    886.31524   -11718.956    4159.8536    -15878.81    90.075855    291.29858    300.53008   -43.608242   -57.259505   -81.827581   -155.28798      46.7237      46.7237      46.7237           90           90           90     102002.7    182.74014 
  501000       500500   -10857.508    873.46347   -11730.972    4153.4439   -15884.415    88.769735    444.58698    259.71825    311.79926    99.805578    22.760521   -61.623785      46.7237      46.7237      46.7237           90           90           90     102002.7     338.7015 
  502000       501500   -10852.592    885.76509   -11738.357    4153.5305   -15891.888    90.019943    31.546619    597.16491    468.69423   -69.748414    127.62458    137.09781      46.7237      46.7237      46.7237           90           90           90     102002.7    365.80192 
  503000       502500   -10831.088    879.21897   -11710.307    4157.7674   -15868.075    89.354663    127.09127    795.85394    263.77795   -173.75218   -6.8021743   -51.802297      46.7237      46.7237      46.7237           90           90           90     102002.7    395.57439 
  504000       503500   -10811.237    898.92395   -11710.161    4169.0273   -15879.188    91.357272     641.6336    820.75553    715.43638    85.971598    162.81005   -124.41389      46.7237      46.7237      46.7237           90           90           90     102002.7    725.94184 
  505000       504500   -10839.158    892.40216    -11731.56    4152.3826   -15883.943    90.694465   -79.684183    56.948201    317.84025   -38.223068    99.220973   -288.91658      46.7237      46.7237      46.7237           90           90           90     102002.7    98.368089 
  506000       505500   -10839.626    882.38496   -11722.011    4144.7977   -15866.808    89.676422   -88.878208   -70.238332    156.31897    24.443814    -159.0122   -28.215982      46.7237      46.7237      46.7237           90           90           90     102002.7  -0.93252477 
  507000       506500   -10830.233    881.32807   -11711.561    4158.0617   -15869.623     89.56901    504.93732    354.00368    620.33494     89.55321   -34.316961    172.16686      46.7237      46.7237      46.7237           90           90           90     102002.7    493.09198 
  508000       507500   -10822.113     892.1667    -11714.28    4157.5509   -15871.831    90.670536    184.46905    489.51123     45.25249   -190.89593    158.84044    118.51184      46.7237      46.7237      46.7237           90           90           90     102002.7    239.74426 
  509000       508500   -10826.455    894.71014   -11721.165    4166.8899   -15888.055    90.929025    671.71617    731.30821    681.64961    132.70401    157.07076    273.26761      46.7237      46.7237      46.7237           90           90           90     102002.7    694.89133 
  510000       509500   -10806.888    896.66968   -11703.558    4169.6373   -15873.195    91.128173    513.52813    296.99705    142.41629    17.074141    -105.3692   -78.027018      46.7237      46.7237      46.7237           90           90           90     102002.7    317.64716 
  511000       510500   -10837.253    892.59837   -11729.851    4165.5175   -15895.369    90.714406    95.296112    146.26134    79.337263    43.661067   -131.72085   -163.09406      46.7237      46.7237      46.7237           90           90           90     102002.7     106.9649 
  512000       511500   -10812.639     906.4623   -11719.101    4146.9062   -15866.008    92.123392   -93.640923    214.92374    428.54283   -104.14996   -111.64091    74.154045      46.7237      46.7237      46.7237           90           90           90     102002.7    183.27522 
  513000       512500   -10819.531    903.79267   -11723.323    4157.9988   -15881.322    91.852078    330.43973    364.95387    783.47192   -111.01912    182.25422   -35.343601      46.7237      46.7237      46.7237           90           90           90     102002.7    492.95517 
  514000       513500   -10830.925    889.31604   -11720.241    4130.2548   -15850.496    90.380825    203.49118    517.30136    188.32991    -52.42012   -50.701006    183.28091      46.7237      46.7237      46.7237           90           90           90     102002.7    303.04082 
  515000       514500   -10810.891    902.91013   -11713.801    4170.2952   -15884.096    91.762387    86.841479    639.38341    119.08677    8.0631356    232.64869   -180.15243      46.7237      46.7237      46.7237           90           90           90     102002.7    281.77055 
  516000       515500   -10841.302    898.96318   -11740.266    4156.2067   -15896.472    91.361259    773.55707   -47.389917   -510.62679    188.82365    70.233738   -17.564633      46.7237      46.7237      46.7237           90           90           90     102002.7    71.846788 
  517000       516500   -10829.471    890.38142   -11719.852    4169.9771   -15889.829    90.489099    278.62997   -126.62264    111.97547    159.05102   -21.357328    50.711701      46.7237      46.7237      46.7237           90           90           90     102002.7    87.994265 
  518000       517500    -10831.96    890.01383   -11721.974    4152.5967    -15874.57     90.45174    1028.7825    261.76552    129.20567    1.3176186    65.386827    42.125908      46.7237      46.7237      46.7237           90           90           90     102002.7    473.25122 
  519000       518500   -10822.637    885.85499   -11708.492    4156.3258   -15864.818     90.02908    291.87661    255.21806   -204.13631   -92.964002    115.41883   -67.204574      46.7237      46.7237      46.7237           90           90           90     102002.7    114.31946 
  520000       519500   -10871.848     869.8617    -11741.71    4143.5092   -15885.219    88.403688    193.43919    154.90766    412.20804    -40.50597   -58.343296     71.23338      46.7237      46.7237      46.7237           90           90           90     102002.7     253.5183 
  521000       520500    -10830.58    906.69716   -11737.277    4140.7023   -15877.979     92.14726    292.09994   -45.864453    235.14299    150.63817   -43.562512   -246.70103      46.7237      46.7237      46.7237           90           90           90     102002.7    160.45949 
  522000       521500   -10823.512      908.096   -11731.608    4171.0159   -15902.624    92.289424    52.627559    362.94438    50.855632   -52.972826    263.96677    404.02417      46.7237      46.7237      46.7237           90           90           90     102002.7    155.47586 
  523000       522500   -10814.357    897.97372   -11712.331    4159.3207   -15871.652    91.260701    613.24393    434.04203    233.45294   -156.67139    51.713873    50.409387      46.7237      46.7237      46.7237           90           90           90     102002.7    426.91297 
  524000       523500   -10804.594    904.59943   -11709.194    4169.5817   -15878.775    91.934069    213.15558    813.35859    134.42517   -173.86334    212.48841    -302.8536      46.7237      46.7237      46.7237           90           90           90     102002.7    386.97978 
  525000       524500   -10826.655    876.38797   -11703.043    4183.6004   -15886.644     89.06695    222.30041    228.72061    334.89126   -145.63609     161.9463   -172.11447      46.7237      46.7237      46.7237           90           90           90     102002.7    261.97076 
  526000       525500    -10822.68    902.78698   -11725.467    4142.6109   -15868.078    91.749871    287.54804    623.59274    321.45295   -4.1759351   -10.447322    138.28409      46.7237      46.7237      46.7237           90           90           90     102002.7    410.86458 
  527000       526500   -10843.431    886.18895    -11729.62    4137.8818   -15867.501     90.06302    359.73042     639.4435   -72.199039    1.7271704   -183.63945     54.44008      46.7237      46.7237      46.7237           90           90           90     102002.7    308.99162 
  528000       527500   -10844.214     887.9422   -11732.157    4155.9953   -15888.152    90.241202    400.04722     385.8483    339.15005   -136.64986    238.84352    22.489024      46.7237      46.7237      46.7237           90           90           90     102002.7    375.01519 
  529000       528500   -10822.852    907.40362   -11730.256    4155.8721   -15886.128    92.219058    125.36791    658.07473    470.10751   -14.742896     45.91953    210.82732      46.7237      46.7237      46.7237           90           90           90     102002.7    417.85005 
  530000       529500   -10804.898     914.5346   -11719.432     4149.059   -15868.491    92.943776    107.73746     258.0408    606.29853   -25.358731    175.73439   -30.813037      46.7237      46.7237      46.7237           90           90           90     102002.7    324.02559 
  531000       530500   -10832.094    908.23651   -11740.331    4151.7778   -15892.108    92.303704    443.86286    338.26812    331.77916    77.133428   -21.523923    -136.0776      46.7237      46.7237      46.7237           90           90           90     102002.7    371.30338 
  532000       531500   -10881.827    874.16867   -11755.996    4126.6075   -15882.603    88.841403   -178.34159     382.7219    452.77411   -283.47291    95.798555    -82.64093      46.7237      46.7237      46.7237           90           90           90     102002.7    219.05147 
  533000       532500   -10814.486    878.27549   -11692.762    4152.0359   -15844.797    89.258778    507.51607    559.96293    359.64232    -151.1085   -85.034859    -155.9114      46.7237      46.7237      46.7237           90           90           90     102002.7    475.70711 
  534000       533500   -10852.713    884.09553   -11736.809    4145.9226   -15882.732    89.850266    437.44654    307.13275    590.02913    46.755528   -24.459833    63.155979      46.7237      46.7237      46.7237           90           90           90     102002.7    444.86947 
  535000       534500   -10793.779    900.93305   -11694.712    4151.3001   -15846.012    91.561456   -9.7030675    553.06941    57.806744   -179.29161   -231.97418    16.737991      46.7237      46.7237      46.7237           90           90           90     102002.7    200.39103 
  536000       535500   -10827.066    889.71895   -11716.785     4147.666   -15864.451    90.421772    154.44396    463.64288    220.88645   -54.064888    85.298147     127.6844      46.7237      46.7237      46.7237           90           90           90     102002.7    279.65776 
  537000       536500   -10768.931    930.65271   -11699.584    4169.1061    -15868.69    94.581853    176.67741    545.94457    484.02748    106.42524    129.47669   -67.774296      46.7237      46.7237      46.7237           90           90           90     102002.7    402.21649 
  538000       537500    -10860.75    863.14538   -11723.895    4148.1272   -15872.022    87.721111   -92.478563    422.47907    143.98626   -71.136202    396.25429    20.302037      46.7237      46.7237      46.7237           90           90           90     102002.7    157.99559 
  539000       538500   -10827.428    889.23532   -11716.663    4162.8517   -15879.515    90.372621      247.517    659.53714    630.42064   -24.208277    159.15706    96.627329      46.7237      46.7237      46.7237           90           90           90     102002.7     512.4916 
  540000       539500   -10806.718    904.10568   -11710.823    4156.3787   -15867.202     91.88389    544.23673    452.10004    385.55178   -38.111674    87.481198   -186.03501      46.7237      46.7237      46.7237           90           90           90     102002.7    460.62952 
  541000       540500   -10866.065    878.50926   -11744.574    4143.3216   -15887.896    89.282536    434.09384    684.99679    233.40824  -0.70302381    70.821527     86.67007      46.7237      46.7237      46.7237           90           90           90     102002.7    450.83295 
  542000       541500   -10828.742    885.77919   -11714.521    4152.1424   -15866.663    90.021376    404.98022    542.29961     438.8792   -140.42176     33.59897    136.03484      46.7237      46.7237      46.7237           90           90           90     102002.7    462.05301 
  543000       542500   -10795.348    917.59638   -11712.945    4149.5968   -15862.542    93.254944     787.8501    182.73074     509.9277    58.466725    109.75301   -15.786737      46.7237      46.7237      46.7237           90           90           90     102002.7    493.50285 
  544000       543500   -10836.952    893.32088   -11730.273    4167.6341   -15897.907    90.787835    -7.424815    159.12845    162.03733   -20.582055  -0.43636326     69.02624      46.7237      46.7237      46.7237           90           90           90     102002.7    104.58032 
  545000       544500   -10831.291    892.26161   -11723.552    4151.3554   -15874.908    90.680182    115.43864    411.74951    44.323898    54.907024   0.82765919    186.32477      46.7237      46.7237      46.7237           90           90           90     102002.7    190.50402 
  546000       545500    -10802.35    920.99415   -11723.344    4135.9492   -15859.294    93.600258    809.74996   -53.111621    400.85431    -37.61999   -52.135764    -23.13919      46.7237      46.7237      46.7237           90           90           90     102002.7    385.83088 
  547000       546500    -10838.18    881.34167   -11719.521    4155.0617   -15874.583    89.570392    291.58638    21.852869    141.13976   -78.335977   -206.30777   -151.42727      46.7237      46.7237      46.7237           90           90           90     102002.7    151.52634 
  548000       547500   -10796.784    912.89303   -11709.677    4155.4538   -15865.131    92.776944   -160.80001    373.00938     491.6633    135.32553    9.0503081   -231.81347      46.7237      46.7237      46.7237           90           90           90     102002.7    234.62422 
  549000       548500    -10834.85    890.05093   -11724.901    4163.6808   -15888.581    90.455511    592.17151   -19.451999    468.31561    9.7443931   -40.063821   -161.90979      46.7237      46.7237      46.7237           90           90           90     102002.7    347.01171 
  550000       549500   -10802.659    889.55644   -11692.216    4158.8732   -15851.089    90.405256    98.303031     689.5583    802.88299    34.931394    106.01083     144.2188      46.7237      46.7237      46.7237           90           90           90     102002.7    530.24811 
  551000       550500   -10828.127    885.12141   -11713.249    4152.8704   -15866.119    89.954526    824.82113    36.243593    853.36208    50.749364    144.11377    96.419697      46.7237      46.7237      46.7237           90           90           90     102002.7     571.4756 
  552000       551500   -10786.378    931.40804   -11717.786    4164.5707   -15882.357    94.658617     130.4271    331.14875    55.349043     39.99923    128.00603    110.57733      46.7237      46.7237      46.7237           90           90           90     102002.7     172.3083 
  553000       552500   -10840.148    893.91432   -11734.062    4150.7584    -15884.82    90.848146    575.77038    197.41261    487.22001    11.548091     314.5456   -7.5581513      46.7237      46.7237      46.7237           90           90           90     102002.7    420.13433 
  554000       553500   -10828.858    883.62542   -11712.483    4176.2875   -15888.771    89.802489    292.73478    739.15799    435.18123   -166.22636   -35.542291    5.6750066      46.7237      46.7237      46.7237           90           90           90     102002.7    489.02467 
  555000       554500   -10798.801    889.54091   -11688.342    4181.9026   -15870.245    90.403678    382.27546    668.35217     218.4669    -174.4622    147.54974   -11.771661      46.7237      46.7237      46.7237           90           90           90     102002.7    423.03151 
[...]
  936000       935500    -10839.88    877.46074    -11717.34    4143.6271   -15860.968    89.175976    32.406694     217.7362    31.671985    -86.39761   -180.43621   -151.14858      46.7237      46.7237      46.7237           90           90           90     102002.7    93.938292 
  937000       936500   -10822.793      884.536   -11707.329    4165.9036   -15873.233    89.895031    113.45331    292.47447    740.57184    60.548501    298.40325    9.8159512      46.7237      46.7237      46.7237           90           90           90     102002.7    382.16654 
  938000       937500   -10814.686    904.50782   -11719.194    4149.7659    -15868.96    91.924759    359.44296    730.30747    523.85737   -171.99946   -158.26901     18.37996      46.7237      46.7237      46.7237           90           90           90     102002.7    537.86927 
  939000       938500   -10804.258    909.52356   -11713.782    4159.5048   -15873.287    92.434506     521.9009   -85.714639    396.68359    198.41995    310.32964    278.61493      46.7237      46.7237      46.7237           90           90           90     102002.7    277.62328 
  940000       939500   -10801.779    909.67827   -11711.457    4179.8738   -15891.331     92.45023    166.24603    864.67288    158.30348    49.459434    158.92628    146.28688      46.7237      46.7237      46.7237           90           90           90     102002.7    396.40746 
  941000       940500   -10829.852    900.73871   -11730.591    4149.7572   -15880.348    91.541705    197.14433    771.12461    398.60922   -169.70726    151.13656   -53.451514      46.7237      46.7237      46.7237           90           90           90     102002.7    455.62605 
  942000       941500   -10842.216    893.97791   -11736.194    4150.2425   -15886.437    90.854609     204.1091    61.527861    196.58089    84.712638    128.34645   -107.21686      46.7237      46.7237      46.7237           90           90           90     102002.7    154.07262 
  943000       942500   -10837.734    893.87391   -11731.607    4157.8985   -15889.506    90.844039   -41.046036    288.27255    53.131539   -85.085139    82.906691    61.113833      46.7237      46.7237      46.7237           90           90           90     102002.7    100.11935 
  944000       943500   -10851.532     883.9939   -11735.526    4139.7007   -15875.226    89.839938   -50.062711    149.62582    108.18502    99.002461     55.09908   -18.856886      46.7237      46.7237      46.7237           90           90           90     102002.7    69.249378 
  945000       944500   -10830.882    900.71604   -11731.599    4146.7232   -15878.322    91.539402    66.116283    212.51628    273.85619   -134.24878   -61.160214    106.81007      46.7237      46.7237      46.7237           90           90           90     102002.7    184.16292 
  946000       945500   -10823.445    904.90335   -11728.348    4155.5436   -15883.892    91.964957    748.26345    142.47033    69.534966   -65.278331    153.55345    7.0098682      46.7237      46.7237      46.7237           90           90           90     102002.7    320.08958 
  947000       946500   -10859.141    885.39329   -11744.534    4141.4386   -15885.973    89.982157    314.05557   -194.31995    9.1411021     17.00034   -49.917004   -61.182054      46.7237      46.7237      46.7237           90           90           90     102002.7     42.95891 
  948000       947500   -10817.858    889.71451   -11707.573    4142.1142   -15849.687    90.421321   -236.68511  -0.50257005    478.31845   -87.670047   -98.430359   -145.55835      46.7237      46.7237      46.7237           90           90           90     102002.7    80.376924 
  949000       948500   -10819.492    899.41363   -11718.905     4152.029   -15870.934    91.407039    254.86103    293.90473    268.40691    173.64881    199.87624   -209.23727      46.7237      46.7237      46.7237           90           90           90     102002.7    272.39089 
  950000       949500   -10854.286    868.99329   -11723.279    4155.3009    -15878.58    88.315432    184.62759    216.04045    226.52433   -107.14527    20.529631   -67.015411      46.7237      46.7237      46.7237           90           90           90     102002.7    209.06412 
  951000       950500    -10839.71    883.01799   -11722.728    4156.7241   -15879.452    89.740756   -265.94512    76.103459    643.80604   -152.93572    53.910688    76.854664      46.7237      46.7237      46.7237           90           90           90     102002.7    151.32146 
  952000       951500   -10790.644    922.32921   -11712.973    4153.4048   -15866.378     93.73594    485.87134     409.6962    636.72936   -157.18459    72.931522   -65.117269      46.7237      46.7237      46.7237           90           90           90     102002.7    510.76563 
  953000       952500    -10832.14    888.44872   -11720.589    4145.9733   -15866.562    90.292679     420.0977    274.63524    470.42315   -84.021661    154.39147    222.23964      46.7237      46.7237      46.7237           90           90           90     102002.7    388.38536 
  954000       953500   -10816.355    886.41706   -11702.772    4173.3717   -15876.143    90.086202    229.47364    295.10236    336.05278    37.967606    61.634461   -205.83004      46.7237      46.7237      46.7237           90           90           90     102002.7    286.87626 
  955000       954500   -10820.471    887.35456   -11707.825    4176.8884   -15884.714     90.18148    312.72053   -265.95497     202.8431    24.198052    235.81694   -18.379767      46.7237      46.7237      46.7237           90           90           90     102002.7     83.20289 
  956000       955500   -10826.195    906.66153   -11732.856    4149.6216   -15882.478    92.143639    310.02723    246.59784     305.7456   -38.564121    -100.3517    29.251273      46.7237      46.7237      46.7237           90           90           90     102002.7    287.45689 
  957000       956500   -10832.782    889.72408   -11722.506    4169.3472   -15891.853    90.422293    30.024758    335.95347    276.45971     123.7719    -144.4608    45.191594      46.7237      46.7237      46.7237           90           90           90     102002.7    214.14598 
  958000       957500   -10825.055     896.5469   -11721.602    4150.8845   -15872.487    91.115694    200.67878    331.88607     103.0629    194.05517    134.48011   -290.12631      46.7237      46.7237      46.7237           90           90           90     102002.7    211.87592 
  959000       958500   -10824.296    888.66682   -11712.963    4171.0757   -15884.039    90.314845    107.27189    635.12521    496.02867    163.01811    46.441204   -46.875904      46.7237      46.7237      46.7237           90           90           90     102002.7    412.80859 
  960000       959500    -10806.05     912.1235   -11718.173    4148.5173   -15866.691    92.698738    125.90193     377.9081      432.097   -187.02867   -38.942392   -201.54497      46.7237      46.7237      46.7237           90           90           90     102002.7    311.96901 
  961000       960500   -10836.014    871.60703   -11707.621    4181.6074   -15889.229    88.581065    298.21373    534.77882    573.45892   -160.66734    188.87639    192.54064      46.7237      46.7237      46.7237           90           90           90     102002.7    468.81716 
  962000       961500   -10826.023     890.6448   -11716.668    4157.0807   -15873.749    90.515866    110.87106    435.88079    516.44418    127.96224    151.19226   -105.83008      46.7237      46.7237      46.7237           90           90           90     102002.7    354.39868 
  963000       962500    -10801.73    902.12954    -11703.86    4172.2458   -15876.106    91.683056    310.12486    58.638203    316.42149    125.62039    67.167177   -254.36037      46.7237      46.7237      46.7237           90           90           90     102002.7    228.39485 
  964000       963500     -10845.6    894.72059   -11740.321    4156.3835   -15896.705    90.930087    239.17444    669.71191    524.53828    56.382111   -123.96676    -80.43211      46.7237      46.7237      46.7237           90           90           90     102002.7    477.80821 
  965000       964500   -10802.829     904.4911    -11707.32    4179.1344   -15886.455     91.92306    183.67009   -130.46275    480.74671   -77.187302   -57.342768   -130.42588      46.7237      46.7237      46.7237           90           90           90     102002.7    177.98468 
  966000       965500   -10852.841     855.6796   -11708.521     4183.124   -15891.645    86.962367    -24.04682    547.58006    19.101312   -277.37078   -65.783809    124.10771      46.7237      46.7237      46.7237           90           90           90     102002.7    180.87818 
  967000       966500   -10820.814    891.20665   -11712.021    4174.6166   -15886.637    90.572966    559.18892    399.46052    715.54287    6.8070222   -24.312003   -80.017246      46.7237      46.7237      46.7237           90           90           90     102002.7     558.0641 
  968000       967500   -10800.882    921.97452   -11722.856    4139.7877   -15862.644    93.699893     366.5909   -60.081758     473.3346    115.80949   -30.779021     35.60364      46.7237      46.7237      46.7237           90           90           90     102002.7    259.94791 
  969000       968500   -10833.823    879.27693     -11713.1     4148.422   -15861.522    89.360554    274.52353    624.20826   -3.9020056    87.042894   -33.003435   -44.943539      46.7237      46.7237      46.7237           90           90           90     102002.7     298.2766 
  970000       969500    -10827.97    896.44967    -11724.42    4151.3411   -15875.761    91.105813    135.86012    586.26087    463.48371    127.56445    184.52377    74.158428      46.7237      46.7237      46.7237           90           90           90     102002.7    395.20157 
  971000       970500   -10858.865    888.82936   -11747.694    4142.7705   -15890.464    90.331363     89.11531    39.583077    271.81192   -86.892791    132.28335    132.27378      46.7237      46.7237      46.7237           90           90           90     102002.7    133.50344 
  972000       971500   -10837.181    895.77528   -11732.956    4148.9734   -15881.929    91.037274    162.95761    251.55522     422.4605   -57.031134   -121.64762   -111.75813      46.7237      46.7237      46.7237           90           90           90     102002.7    278.99111 
  973000       972500    -10805.19    913.40286   -11718.593    4157.3571    -15875.95    92.828759    426.20644    73.008868    420.77498   -134.53175    281.05777    20.224825      46.7237      46.7237      46.7237           90           90           90     102002.7    306.66343 
  974000       973500   -10810.369    907.55747   -11717.927    4152.4285   -15870.355    92.234694    578.35484    656.38766    281.65883    53.084735   -15.414622    46.960474      46.7237      46.7237      46.7237           90           90           90     102002.7    505.46711 
  975000       974500   -10809.135    896.48944   -11705.625    4178.1785   -15883.803    91.109854    335.32624    309.63269    27.696085    5.8441466    -6.706003    161.41319      46.7237      46.7237      46.7237           90           90           90     102002.7    224.21834 
  976000       975500   -10820.076    899.53329    -11719.61    4160.2306    -15879.84      91.4192    198.87177    209.40617    80.668979   -116.35456   -160.56713    89.079235      46.7237      46.7237      46.7237           90           90           90     102002.7    162.98231 
  977000       976500    -10846.54    896.34037    -11742.88    4149.6136   -15892.493    91.094705    263.59269    354.28757     281.0131   -167.00947    43.040099    -281.2363      46.7237      46.7237      46.7237           90           90           90     102002.7    299.63112 
  978000       977500   -10819.558    907.98651   -11727.544     4169.676    -15897.22    92.278297    401.43091   -60.649556  -0.14687681   -77.399032    123.02157      305.678      46.7237      46.7237      46.7237           90           90           90     102002.7    113.54483 
  979000       978500   -10835.875    895.97835   -11731.854    4166.8232   -15898.677    91.057912    93.506062    328.39308    534.17117   -94.392929   -102.43843   -185.48933      46.7237      46.7237      46.7237           90           90           90     102002.7     318.6901 
  980000       979500   -10793.519    901.13607   -11694.655    4175.7062   -15870.361     91.58209    543.08274    404.35499    86.925376    -53.66766    6.5133378    66.771059      46.7237      46.7237      46.7237           90           90           90     102002.7     344.7877 
  981000       980500   -10835.707    879.49008   -11715.197    4153.3313   -15868.528    89.382216    621.69988    475.13022    118.35365    63.039864   -71.456126    203.73058      46.7237      46.7237      46.7237           90           90           90     102002.7    405.06125 
  982000       981500   -10824.661    878.83996   -11703.501     4159.045   -15862.546    89.316145    395.56904    834.10306    439.87139    24.146399   -5.3823698   -12.325937      46.7237      46.7237      46.7237           90           90           90     102002.7     556.5145 
  983000       982500   -10826.437    901.23959   -11727.676    4136.9197   -15864.596     91.59261    748.72268    176.76874    483.69115   -186.24621   -156.39875   -52.366316      46.7237      46.7237      46.7237           90           90           90     102002.7    469.72752 
  984000       983500   -10830.548    890.96423   -11721.512    4157.1827   -15878.695     90.54833    350.60417     496.0701    473.23689   0.73602244    198.84563   -4.9619574      46.7237      46.7237      46.7237           90           90           90     102002.7    439.97039 
  985000       984500   -10838.855    878.63266   -11717.488    4171.5294   -15889.017    89.295077     522.4863    393.28274    205.26263   -114.65933    93.791799    14.526263      46.7237      46.7237      46.7237           90           90           90     102002.7    373.67722 
  986000       985500   -10840.837    883.94568   -11724.783    4155.5401   -15880.323    89.835037    198.55448    261.09389    522.85366   -3.9502811    22.707874    120.43964      46.7237      46.7237      46.7237           90           90           90     102002.7    327.50068 
  987000       986500   -10833.807    897.60738   -11731.414    4144.4242   -15875.838     91.22347    118.65028     43.60698     695.2166    109.98214    194.60229     61.03336      46.7237      46.7237      46.7237           90           90           90     102002.7    285.82462 
  988000       987500   -10856.397    880.67026   -11737.067    4156.0905   -15893.158    89.502158    282.49135    475.51543    141.15036    60.893275   -118.82529    3.5585551      46.7237      46.7237      46.7237           90           90           90     102002.7    299.71905 
  989000       988500   -10835.049     873.2656   -11708.315    4176.8121   -15885.127    88.749625    53.067018    541.24771       596.75   -205.54761   -10.066438   -153.39356      46.7237      46.7237      46.7237           90           90           90     102002.7    397.02158 
  990000       989500   -10833.643    885.75107   -11719.394     4145.152   -15864.546    90.018518    159.09506    173.96946    268.14538    54.949251   -73.833599   -39.506454      46.7237      46.7237      46.7237           90           90           90     102002.7     200.4033 
  991000       990500   -10823.049    887.77086    -11710.82    4176.3519   -15887.172    90.223788    309.82011    294.44345    237.42984    206.47948    48.446549    76.194996      46.7237      46.7237      46.7237           90           90           90     102002.7    280.56447 
  992000       991500   -10837.197    880.03093   -11717.228    4135.7967   -15853.024    89.437183    314.53802    263.82797    492.86926    306.95233   -29.618671    106.69238      46.7237      46.7237      46.7237           90           90           90     102002.7    357.07841 
  993000       992500   -10844.157    876.44025   -11720.597    4143.1485   -15863.746    89.072263    444.62873    177.23479    362.76227   -201.32499   -149.60189     38.05544      46.7237      46.7237      46.7237           90           90           90     102002.7     328.2086 
  994000       993500   -10819.384    891.98286   -11711.367    4158.1496   -15869.516    90.651852    210.85034     443.4083    555.14407    31.933381     -28.7367    33.816413      46.7237      46.7237      46.7237           90           90           90     102002.7    403.13424 
  995000       994500   -10834.626    875.50209   -11710.128    4163.8703   -15873.998    88.976919    474.88748    179.29957    48.389426    93.934429    127.74219    49.317374      46.7237      46.7237      46.7237           90           90           90     102002.7    234.19216 
  996000       995500   -10796.131    907.97893    -11704.11    4157.4174   -15861.527    92.277527    218.70411    580.27851    234.56004    95.791952    409.07382   -134.65237      46.7237      46.7237      46.7237           90           90           90     102002.7    344.51422 
  997000       996500   -10827.926    877.76463   -11705.691    4162.7134   -15868.404    89.206859    765.48495    258.18688    580.54295   -1.0766319    -105.5091     36.45896      46.7237      46.7237      46.7237           90           90           90     102002.7    534.73826 
  998000       997500   -10812.998    899.19958   -11712.198    4152.7417    -15864.94    91.385285    650.66191    340.84257    750.79369    71.929189    28.229324   -179.91389      46.7237      46.7237      46.7237           90           90           90     102002.7    580.76606 
  999000       998500   -10814.581    917.67923    -11732.26    4146.2462   -15878.506    93.263364    206.36147    549.37415    214.87166   -82.583764    -41.06864   -517.63889      46.7237      46.7237      46.7237           90           90           90     102002.7    323.53576 
 1000000       999500   -10806.759    912.45158   -11719.211    4160.9997    -15880.21     92.73208    390.07001    390.48011    229.19769    91.954291   -124.06465    154.10548      46.7237      46.7237      46.7237           90           90           90     102002.7    336.58261 
 1000500      1000000   -10801.686    902.97695   -11704.663    4162.0625   -15866.725    91.769177    604.89604    552.99115    441.42183   -57.772704    136.95665   -40.497535      46.7237      46.7237      46.7237           90           90           90     102002.7    533.10301 
Loop time of 2245.53 on 16 procs for 500000 steps with 3302 atoms

Performance: 19.238 ns/day, 1.248 hours/ns, 222.664 timesteps/s
99.9% CPU use with 16 MPI tasks x no OpenMP threads

MPI task timing breakdown:
Section |  min time  |  avg time  |  max time  |%varavg| %total
---------------------------------------------------------------
Pair    | 1305.7     | 1529.1     | 1788.7     | 365.7 | 68.10
Bond    | 148.73     | 184.11     | 221.42     | 167.4 |  8.20
Neigh   | 14.602     | 14.665     | 14.714     |   1.0 |  0.65
Comm    | 225.1      | 485.08     | 700.17     | 673.5 | 21.60
Output  | 0.13605    | 0.14203    | 0.14321    |   0.4 |  0.01
Modify  | 23.619     | 25.366     | 26.447     |  20.6 |  1.13
Other   |            | 7.027      |            |       |  0.31

Nlocal:    206.375 ave 235 max 173 min
Histogram: 1 1 1 3 1 2 1 3 2 1
Nghost:    4151.19 ave 4186 max 4118 min
Histogram: 1 1 2 3 1 3 0 4 0 1
Neighs:    11463.2 ave 16476 max 8350 min
Histogram: 3 1 2 4 2 2 0 1 0 1

Total # of neighbors = 183411
Ave neighs/atom = 55.5454
Ave special neighs/atom = 3.48879
Neighbor list builds = 4089
Dangerous builds = 0
Total wall time: 1:09:11
