LAMMPS (30 Mar 2018)
Reading data file ...
  orthogonal box = (0 0 0) to (46.7237 46.7237 46.7237)
  2 by 3 by 4 MPI processor grid
  reading atoms ...
  2072 atoms
  scanning bonds ...
  5 = max bonds/atom
  scanning angles ...
  10 = max angles/atom
  scanning dihedrals ...
  32 = max dihedrals/atom
  scanning impropers ...
  3 = max impropers/atom
  reading bonds ...
  2064 bonds
  reading angles ...
  3696 angles
  reading dihedrals ...
  6240 dihedrals
  reading impropers ...
  1008 impropers
Finding 1-2 1-3 1-4 neighbors ...
  special bond factors lj:   0          0          0         
  special bond factors coul: 0          0          0         
  5 = max # of 1-2 neighbors
  8 = max # of 1-3 neighbors
  20 = max # of 1-4 neighbors
  19 = max # of special neighbors
Finding 1-2 1-3 1-4 neighbors ...
  special bond factors lj:   0          0          1         
  special bond factors coul: 1          1          1         
  5 = max # of 1-2 neighbors
  8 = max # of 1-3 neighbors
  19 = max # of special neighbors
WARNING: Using 'neigh_modify every 1 delay 0 check yes' setting during minimization (../min.cpp:168)
Neighbor list info ...
  update every 1 steps, delay 0 steps, check yes
  max neighbors/atom: 2000, page size: 100000
  master list distance cutoff = 16
  ghost atom cutoff = 16
  binsize = 8, bins = 6 6 6
  3 neighbor lists, perpetual/occasional/extra = 3 0 0
  (1) pair buck6d/coul/gauss/dsf, perpetual, skip from (3)
      attributes: half, newton on
      pair build: skip
      stencil: none
      bin: none
  (2) pair lj/cut, perpetual, skip from (3)
      attributes: half, newton on
      pair build: skip
      stencil: none
      bin: none
  (3) neighbor class addition, perpetual
      attributes: half, newton on
      pair build: half/bin/newton
      stencil: half/bin/3d/newton
      bin: standard
Setting up cg style minimization ...
  Unit style    : real
  Current step  : 0
WARNING: Inconsistent image flags (../domain.cpp:786)
Per MPI rank memory allocation (min/avg/max) = 22.89 | 23.33 | 24.44 Mbytes
Step Temp E_pair E_mol TotEng Press 
       0            0    -12568.12    6482.8914   -6085.2285    6136.4923 
     500            0   -12708.039    3734.4657   -8973.5732   -681.93476 
Loop time of 1.31623 on 24 procs for 500 steps with 2072 atoms

99.5% CPU use with 24 MPI tasks x no OpenMP threads

Minimization stats:
  Stopping criterion = max force evaluations
  Energy initial, next-to-last, final = 
        -6085.22845627     -8973.52326823     -8973.57324589
  Force two-norm initial, final = 2574.84 10.3459
  Force max component initial, final = 152.026 1.78219
  Final line search alpha, max atom move = 0.00357807 0.0063768
  Iterations, force evaluations = 500 1000

MPI task timing breakdown:
Section |  min time  |  avg time  |  max time  |%varavg| %total
---------------------------------------------------------------
Pair    | 0.46049    | 0.70721    | 0.88252    |  13.2 | 53.73
Bond    | 0.12889    | 0.15739    | 0.1935     |   4.2 | 11.96
Neigh   | 0.010713   | 0.011661   | 0.012547   |   0.6 |  0.89
Comm    | 0.22332    | 0.41727    | 0.66607    |  17.1 | 31.70
Output  | 0          | 0          | 0          |   0.0 |  0.00
Modify  | 0          | 0          | 0          |   0.0 |  0.00
Other   |            | 0.02269    |            |       |  1.72

Nlocal:    86.3333 ave 103 max 71 min
Histogram: 2 3 1 3 3 4 4 1 2 1
Nghost:    2302.83 ave 2474 max 2209 min
Histogram: 15 1 0 0 0 0 0 0 0 8
Neighs:    7636.17 ave 10523 max 4047 min
Histogram: 2 0 4 2 2 4 1 3 2 4

Total # of neighbors = 183268
Ave neighs/atom = 88.4498
Ave special neighs/atom = 5.55985
Neighbor list builds = 14
Dangerous builds = 0
Neighbor list info ...
  update every 1 steps, delay 10 steps, check yes
  max neighbors/atom: 2000, page size: 100000
  master list distance cutoff = 16
  ghost atom cutoff = 16
  binsize = 8, bins = 6 6 6
  3 neighbor lists, perpetual/occasional/extra = 3 0 0
  (1) pair buck6d/coul/gauss/dsf, perpetual, skip from (3)
      attributes: half, newton on
      pair build: skip
      stencil: none
      bin: none
  (2) pair lj/cut, perpetual, skip from (3)
      attributes: half, newton on
      pair build: skip
      stencil: none
      bin: none
  (3) neighbor class addition, perpetual
      attributes: half, newton on
      pair build: half/bin/newton
      stencil: half/bin/3d/newton
      bin: standard
Setting up Verlet run ...
  Unit style    : real
  Current step  : 500
  Time step     : 1
WARNING: Inconsistent image flags (../domain.cpp:786)
Per MPI rank memory allocation (min/avg/max) = 22.54 | 22.72 | 23.32 Mbytes
Step Temp PotEng TotEng Press Volume Lx Ly Lz 
     500          110   -8973.5732   -8294.5149   -377.61633     102002.7      46.7237      46.7237      46.7237 
    1000    92.509485   -8358.4589    -7787.374   -580.16271     102002.7      46.7237      46.7237      46.7237 
    2000    117.28782   -8285.8121   -7561.7641   -598.03138     102002.7      46.7237      46.7237      46.7237 
    3000    110.56716   -8273.9301   -7591.3706   -709.53353     102002.7      46.7237      46.7237      46.7237 
    4000    107.73278   -8267.7249   -7602.6627   -286.07475     102002.7      46.7237      46.7237      46.7237 
    5000    109.53702   -8274.2755   -7598.0752   -606.97642     102002.7      46.7237      46.7237      46.7237 
    6000    110.82578    -8222.232   -7538.0759     -432.248     102002.7      46.7237      46.7237      46.7237 
    7000    108.06685   -8262.4942   -7595.3697     -289.195     102002.7      46.7237      46.7237      46.7237 
    8000    113.14394   -8275.9679   -7577.5012   -849.80362     102002.7      46.7237      46.7237      46.7237 
    9000    108.47021   -8238.7963   -7569.1817   -617.25157     102002.7      46.7237      46.7237      46.7237 
   10000    111.34557   -8268.5542   -7581.1893    -523.3154     102002.7      46.7237      46.7237      46.7237 
   11000    110.40863   -8270.6303   -7589.0495   -546.58997     102002.7      46.7237      46.7237      46.7237 
   12000    111.40711   -8248.3929   -7560.6481   -529.50177     102002.7      46.7237      46.7237      46.7237 
   13000    112.42591   -8260.9316   -7566.8975   -611.38339     102002.7      46.7237      46.7237      46.7237 
   14000     107.3995   -8271.2545   -7608.2497   -494.77117     102002.7      46.7237      46.7237      46.7237 
   15000     111.0167   -8255.7375   -7570.4028   -767.74095     102002.7      46.7237      46.7237      46.7237 
   16000    111.21412   -8273.6763   -7587.1229   -735.61215     102002.7      46.7237      46.7237      46.7237 
   17000    109.40298   -8262.6414   -7587.2687   -818.34761     102002.7      46.7237      46.7237      46.7237 
   18000    108.92305   -8241.7649   -7569.3548    -500.7057     102002.7      46.7237      46.7237      46.7237 
   19000    106.87889   -8246.6003   -7586.8094   -652.00216     102002.7      46.7237      46.7237      46.7237 
   20000    110.01152   -8273.5555   -7594.4261   -899.54372     102002.7      46.7237      46.7237      46.7237 
   21000    110.94747   -8265.1488   -7580.2415   -749.40487     102002.7      46.7237      46.7237      46.7237 
   22000    108.03112   -8275.1176   -7608.2137   -761.64977     102002.7      46.7237      46.7237      46.7237 
   23000     110.0607    -8266.546    -7587.113   -852.78492     102002.7      46.7237      46.7237      46.7237 
   24000    112.88626   -8259.9646   -7563.0887   -542.28012     102002.7      46.7237      46.7237      46.7237 
   25000    107.43045   -8246.2889   -7583.0931   -941.77131     102002.7      46.7237      46.7237      46.7237 
   26000     110.4728   -8266.6458   -7584.6688   -893.07047     102002.7      46.7237      46.7237      46.7237 
   27000    106.44457   -8247.9615   -7590.8517   -863.06381     102002.7      46.7237      46.7237      46.7237 
   28000    108.55041   -8250.6043   -7580.4946   -953.37953     102002.7      46.7237      46.7237      46.7237 
   29000    114.45782   -8265.1356    -7558.558   -738.49521     102002.7      46.7237      46.7237      46.7237 
   30000    107.05441   -8242.0268   -7581.1524   -866.04768     102002.7      46.7237      46.7237      46.7237 
   31000    109.25025   -8258.6585   -7584.2286   -828.09721     102002.7      46.7237      46.7237      46.7237 
   32000    106.93235   -8269.9939    -7609.873   -827.79727     102002.7      46.7237      46.7237      46.7237 
   33000     107.4465   -8252.5033   -7589.2084   -861.57326     102002.7      46.7237      46.7237      46.7237 
   34000    111.80321    -8246.041    -7555.851   -770.70303     102002.7      46.7237      46.7237      46.7237 
   35000    114.21028   -8260.4425    -7555.393   -945.36579     102002.7      46.7237      46.7237      46.7237 
   36000    112.80322   -8259.9817   -7563.6183   -1012.5427     102002.7      46.7237      46.7237      46.7237 
   37000    109.77879    -8257.116   -7579.4232   -732.90672     102002.7      46.7237      46.7237      46.7237 
   38000    110.81493   -8223.5551    -7539.466   -1029.1185     102002.7      46.7237      46.7237      46.7237 
   39000    109.05098   -8249.5482   -7576.3484   -890.75731     102002.7      46.7237      46.7237      46.7237 
   40000    108.46588   -8249.8436   -7580.2558   -680.08383     102002.7      46.7237      46.7237      46.7237 
   41000    111.85563   -8243.2248   -7552.7112   -723.54359     102002.7      46.7237      46.7237      46.7237 
   42000    111.69091   -8228.6493   -7539.1525   -1009.6264     102002.7      46.7237      46.7237      46.7237 
   43000    112.09955   -8252.1776   -7560.1582   -835.57933     102002.7      46.7237      46.7237      46.7237 
   44000    109.67516   -8239.9433   -7562.8903   -797.38418     102002.7      46.7237      46.7237      46.7237 
   45000    108.06693   -8254.9423   -7587.8173   -964.10946     102002.7      46.7237      46.7237      46.7237 
   46000    109.22537   -8253.2624    -7578.986   -1230.3013     102002.7      46.7237      46.7237      46.7237 
   47000    112.87512   -8241.9232    -7545.116   -1087.1468     102002.7      46.7237      46.7237      46.7237 
   48000    112.07782   -8262.4422    -7570.557   -861.09845     102002.7      46.7237      46.7237      46.7237 
   49000    107.52273   -8265.8369   -7602.0714   -1193.3597     102002.7      46.7237      46.7237      46.7237 
   50000    109.89011   -8265.5875   -7587.2075   -1019.2994     102002.7      46.7237      46.7237      46.7237 
   51000     110.8429   -8247.5199    -7563.258   -940.18126     102002.7      46.7237      46.7237      46.7237 
   52000    110.30919   -8266.4444   -7585.4774   -1092.8414     102002.7      46.7237      46.7237      46.7237 
   53000    110.28796   -8242.2593   -7561.4234   -644.00466     102002.7      46.7237      46.7237      46.7237 
   54000    113.92014   -8247.7477   -7544.4894   -895.55599     102002.7      46.7237      46.7237      46.7237 
   55000    112.26293   -8241.1018   -7548.0738   -904.08216     102002.7      46.7237      46.7237      46.7237 
   56000    108.95576   -8246.4565   -7573.8445   -858.96807     102002.7      46.7237      46.7237      46.7237 
   57000    112.75622    -8214.952   -7518.8788   -1105.7141     102002.7      46.7237      46.7237      46.7237 
   58000    108.64968   -8264.9127   -7594.1902    -879.8758     102002.7      46.7237      46.7237      46.7237 
   59000    108.49514    -8269.163   -7599.3945   -766.29672     102002.7      46.7237      46.7237      46.7237 
   60000    109.54063   -8274.1361   -7597.9136    -735.9013     102002.7      46.7237      46.7237      46.7237 
   61000    109.21119   -8253.1697   -7578.9809   -767.77963     102002.7      46.7237      46.7237      46.7237 
   62000    112.42107   -8251.8868   -7557.8826   -728.56719     102002.7      46.7237      46.7237      46.7237 
   63000     110.2491   -8261.1096   -7580.5136   -1039.7896     102002.7      46.7237      46.7237      46.7237 
   64000    109.96348   -8272.7882   -7593.9553   -789.86465     102002.7      46.7237      46.7237      46.7237 
   65000    109.43589   -8250.3734   -7574.7974   -670.70275     102002.7      46.7237      46.7237      46.7237 
   66000    112.74871   -8250.9796   -7554.9527   -1047.5042     102002.7      46.7237      46.7237      46.7237 
   67000    110.41125   -8274.8405   -7593.2434   -709.62308     102002.7      46.7237      46.7237      46.7237 
   68000     110.4301   -8230.2773   -7548.5639   -801.98675     102002.7      46.7237      46.7237      46.7237 
   69000    108.95069   -8263.1182   -7590.5375   -794.78184     102002.7      46.7237      46.7237      46.7237 
   70000    111.14396   -8252.3905   -7566.2702   -750.30196     102002.7      46.7237      46.7237      46.7237 
   71000    108.43139   -8251.7243   -7582.3493   -1046.0461     102002.7      46.7237      46.7237      46.7237 
   72000     112.7937   -8255.4836    -7559.179   -842.73612     102002.7      46.7237      46.7237      46.7237 
   73000    108.46705   -8242.8597   -7573.2646   -833.99024     102002.7      46.7237      46.7237      46.7237 
   74000    110.22671    -8262.854   -7582.3961   -869.21778     102002.7      46.7237      46.7237      46.7237 
   75000    111.23429   -8232.3791   -7545.7012   -754.24358     102002.7      46.7237      46.7237      46.7237 
   76000    108.15439   -8256.5647   -7588.8998   -773.30506     102002.7      46.7237      46.7237      46.7237 
   77000    108.49529   -8254.3916   -7584.6222   -569.48095     102002.7      46.7237      46.7237      46.7237 
   78000     108.2082   -8247.7103   -7579.7132   -529.47497     102002.7      46.7237      46.7237      46.7237 
   79000    108.99032   -8254.6699   -7581.8445   -578.87043     102002.7      46.7237      46.7237      46.7237 
   80000    109.77501   -8264.4039   -7586.7344   -713.31173     102002.7      46.7237      46.7237      46.7237 
   81000    107.32967   -8216.1797    -7553.606    -623.6834     102002.7      46.7237      46.7237      46.7237 
   82000    111.28829   -8243.5133   -7556.5021   -884.40797     102002.7      46.7237      46.7237      46.7237 
   83000    107.62307    -8242.971    -7578.586   -1302.9559     102002.7      46.7237      46.7237      46.7237 
   84000    108.88649   -8272.4998   -7600.3154   -903.45976     102002.7      46.7237      46.7237      46.7237 
   85000    112.08737   -8229.7967   -7537.8525   -1009.9752     102002.7      46.7237      46.7237      46.7237 
   86000    109.62187   -8261.1611   -7584.4371   -864.17432     102002.7      46.7237      46.7237      46.7237 
   87000    109.19673   -8249.2172   -7575.1176   -1029.3955     102002.7      46.7237      46.7237      46.7237 
   88000    114.81877   -8243.3211   -7534.5152   -1160.3262     102002.7      46.7237      46.7237      46.7237 
   89000    109.67603   -8239.7682   -7562.7098   -872.56219     102002.7      46.7237      46.7237      46.7237 
   90000    112.87549   -8263.7032   -7566.8937    -1071.401     102002.7      46.7237      46.7237      46.7237 
   91000    108.93197   -8262.0083   -7589.5431   -851.96479     102002.7      46.7237      46.7237      46.7237 
   92000    107.21356   -8242.1849    -7580.328   -1067.9769     102002.7      46.7237      46.7237      46.7237 
   93000    109.43498   -8244.0769   -7568.5066   -1136.5492     102002.7      46.7237      46.7237      46.7237 
   94000    109.77193   -8246.3703   -7568.7199   -668.20339     102002.7      46.7237      46.7237      46.7237 
   95000    112.01308   -8248.5687   -7557.0831   -1246.7853     102002.7      46.7237      46.7237      46.7237 
   96000    112.20239   -8254.2129   -7561.5586   -974.10534     102002.7      46.7237      46.7237      46.7237 
   97000    102.75599   -8244.4931   -7610.1538    -773.5955     102002.7      46.7237      46.7237      46.7237 
   98000    109.64481   -8254.1164   -7577.2508   -1085.8709     102002.7      46.7237      46.7237      46.7237 
   99000    111.43182   -8256.3387   -7568.4414   -770.33741     102002.7      46.7237      46.7237      46.7237 
  100000    112.82354   -8223.7691   -7527.2803   -944.31882     102002.7      46.7237      46.7237      46.7237 
  101000    109.66868   -8249.7997   -7572.7866   -892.52657     102002.7      46.7237      46.7237      46.7237 
  102000    108.32788   -8256.6834   -7587.9475   -865.51925     102002.7      46.7237      46.7237      46.7237 
  103000    112.34603   -8254.1981   -7560.6571    -949.1525     102002.7      46.7237      46.7237      46.7237 
  104000    111.60796   -8235.7928   -7546.8081   -828.49827     102002.7      46.7237      46.7237      46.7237 
  105000    108.53862   -8255.8559   -7585.8191   -944.47808     102002.7      46.7237      46.7237      46.7237 
  106000    111.78616   -8248.7176   -7558.6329   -678.50295     102002.7      46.7237      46.7237      46.7237 
  107000    110.90714   -8245.4649   -7560.8066   -869.81918     102002.7      46.7237      46.7237      46.7237 
  108000     107.4056   -8247.9525     -7584.91   -783.73924     102002.7      46.7237      46.7237      46.7237 
  109000    110.37519   -8240.4813   -7559.1068   -748.88343     102002.7      46.7237      46.7237      46.7237 
  110000    107.18892   -8244.3877   -7582.6829   -1127.0333     102002.7      46.7237      46.7237      46.7237 
  111000     111.6401   -8234.9204   -7545.7372   -777.95313     102002.7      46.7237      46.7237      46.7237 
  112000    109.05288   -8247.3582   -7574.1467   -764.18396     102002.7      46.7237      46.7237      46.7237 
  113000    109.31805    -8243.361   -7568.5126   -904.62084     102002.7      46.7237      46.7237      46.7237 
  114000    112.87577   -8249.2675   -7552.4563   -874.90837     102002.7      46.7237      46.7237      46.7237 
  115000    107.62872   -8233.3114   -7568.8915   -450.48467     102002.7      46.7237      46.7237      46.7237 
  116000    108.00862   -8260.8475   -7594.0824   -499.09817     102002.7      46.7237      46.7237      46.7237 
  117000    111.93541   -8247.8826   -7556.8765   -731.55053     102002.7      46.7237      46.7237      46.7237 
  118000    111.19583   -8253.6306     -7567.19   -547.49483     102002.7      46.7237      46.7237      46.7237 
  119000    111.13997    -8258.263   -7572.1673    -844.1803     102002.7      46.7237      46.7237      46.7237 
  120000    112.08761   -8239.9097   -7547.9639   -672.63278     102002.7      46.7237      46.7237      46.7237 
  121000    114.70917    -8243.648   -7535.5188   -543.44412     102002.7      46.7237      46.7237      46.7237 
  122000    107.83452   -8251.7382   -7586.0479   -618.75334     102002.7      46.7237      46.7237      46.7237 
  123000    110.66283   -8237.9699   -7554.8197    -489.8706     102002.7      46.7237      46.7237      46.7237 
  124000    111.40274   -8262.5456   -7574.8278   -1030.4823     102002.7      46.7237      46.7237      46.7237 
  125000    111.05717   -8242.8918   -7557.3073   -689.35045     102002.7      46.7237      46.7237      46.7237 
  126000    108.73814   -8256.1879   -7584.9194   -672.97842     102002.7      46.7237      46.7237      46.7237 
  127000    111.81641   -8227.0185   -7536.7469   -685.02374     102002.7      46.7237      46.7237      46.7237 
  128000    109.53776   -8251.0275   -7574.8227   -709.32454     102002.7      46.7237      46.7237      46.7237 
  129000    108.85996   -8211.1085   -7539.0879   -754.10289     102002.7      46.7237      46.7237      46.7237 
  130000    110.60064    -8244.388   -7561.6217   -803.71359     102002.7      46.7237      46.7237      46.7237 
  131000    109.00166   -8254.3429   -7581.4476    -532.0375     102002.7      46.7237      46.7237      46.7237 
  132000     106.6326   -8259.5655    -7601.295   -601.01671     102002.7      46.7237      46.7237      46.7237 
  133000    111.48091   -8234.8384    -7546.638   -672.77638     102002.7      46.7237      46.7237      46.7237 
  134000    110.93685   -8253.9934   -7569.1516   -779.03875     102002.7      46.7237      46.7237      46.7237 
  135000    108.88422   -8265.7296   -7593.5593   -792.15995     102002.7      46.7237      46.7237      46.7237 
  136000    108.30291   -8264.6767    -7596.095   -796.61176     102002.7      46.7237      46.7237      46.7237 
  137000    110.26628   -8256.2587   -7575.5565   -654.17204     102002.7      46.7237      46.7237      46.7237 
  138000    112.25298   -8236.8739   -7543.9073   -617.80758     102002.7      46.7237      46.7237      46.7237 
  139000    107.86289   -8254.5651   -7588.6997   -839.22364     102002.7      46.7237      46.7237      46.7237 
  140000    110.39328   -8250.6217   -7569.1355   -464.82683     102002.7      46.7237      46.7237      46.7237 
  141000    107.90759   -8254.4561   -7588.3147   -796.44333     102002.7      46.7237      46.7237      46.7237 
  142000    110.49256   -8242.1599   -7560.0608   -740.32755     102002.7      46.7237      46.7237      46.7237 
  143000    110.92882   -8237.0661    -7552.274   -415.51267     102002.7      46.7237      46.7237      46.7237 
  144000    109.27312   -8259.9016   -7585.3305   -590.43305     102002.7      46.7237      46.7237      46.7237 
  145000     112.5389    -8248.779   -7554.0474   -817.81592     102002.7      46.7237      46.7237      46.7237 
  146000    109.04361    -8260.699   -7587.5447   -353.93622     102002.7      46.7237      46.7237      46.7237 
  147000    111.91791   -8238.6501    -7547.752   -826.73948     102002.7      46.7237      46.7237      46.7237 
  148000    110.64449   -8258.4428   -7575.4058   -780.04726     102002.7      46.7237      46.7237      46.7237 
  149000    112.59176   -8254.6923   -7559.6344   -481.97761     102002.7      46.7237      46.7237      46.7237 
  150000    109.08504   -8255.9256   -7582.5155   -576.08955     102002.7      46.7237      46.7237      46.7237 
  151000    106.93628   -8266.6431   -7606.4979    -471.4489     102002.7      46.7237      46.7237      46.7237 
  152000    109.57422   -8253.0898     -7576.66   -790.12767     102002.7      46.7237      46.7237      46.7237 
  153000    110.10644   -8255.7869   -7576.0714    -748.2875     102002.7      46.7237      46.7237      46.7237 
  154000    111.15258   -8253.2553   -7567.0818    -942.2704     102002.7      46.7237      46.7237      46.7237 
  155000    110.76652    -8260.529   -7576.7388   -1144.4798     102002.7      46.7237      46.7237      46.7237 
  156000     109.1029   -8255.0471   -7581.5268   -912.92499     102002.7      46.7237      46.7237      46.7237 
  157000    107.76855   -8258.3209   -7593.0379   -1020.6592     102002.7      46.7237      46.7237      46.7237 
  158000    112.80641    -8247.259    -7550.876   -800.07106     102002.7      46.7237      46.7237      46.7237 
  159000    110.96571   -8269.7023   -7584.6824   -703.76502     102002.7      46.7237      46.7237      46.7237 
  160000    108.27941   -8257.3236    -7588.887   -1142.1883     102002.7      46.7237      46.7237      46.7237 
  161000    112.80778   -8245.7766   -7549.3851   -724.13197     102002.7      46.7237      46.7237      46.7237 
  162000    107.91205   -8256.3592   -7590.1904    -1018.803     102002.7      46.7237      46.7237      46.7237 
  163000    111.69104   -8287.9347   -7598.4372   -1022.6838     102002.7      46.7237      46.7237      46.7237 
  164000    109.54371   -8235.9902   -7559.7486   -700.42106     102002.7      46.7237      46.7237      46.7237 
  165000    111.10051   -8249.4306   -7563.5785   -1036.9634     102002.7      46.7237      46.7237      46.7237 
  166000    112.80844   -8268.3381   -7571.9425   -553.41911     102002.7      46.7237      46.7237      46.7237 
  167000    111.00324   -8286.4719   -7601.2203   -937.91453     102002.7      46.7237      46.7237      46.7237 
  168000    110.87275   -8236.9127   -7552.4666   -849.22746     102002.7      46.7237      46.7237      46.7237 
  169000    108.55191   -8260.7255   -7590.6066   -496.66449     102002.7      46.7237      46.7237      46.7237 
  170000    109.25278   -8259.4508   -7585.0052   -925.28725     102002.7      46.7237      46.7237      46.7237 
  171000    114.09239   -8246.2726   -7541.9509   -398.39341     102002.7      46.7237      46.7237      46.7237 
  172000    108.05435   -8240.7356   -7573.6882   -644.18778     102002.7      46.7237      46.7237      46.7237 
  173000    110.86571   -8259.6862   -7575.2836   -865.92578     102002.7      46.7237      46.7237      46.7237 
  174000    109.71027   -8256.6782   -7579.4085   -487.44679     102002.7      46.7237      46.7237      46.7237 
  175000    111.88335   -8226.0502   -7535.3654   -933.08215     102002.7      46.7237      46.7237      46.7237 
  176000    111.40755   -8238.9709   -7551.2234   -846.09981     102002.7      46.7237      46.7237      46.7237 
  177000    108.63653   -8261.8363    -7591.195   -948.18333     102002.7      46.7237      46.7237      46.7237 
  178000    110.81616   -8254.6924   -7570.5956   -482.11345     102002.7      46.7237      46.7237      46.7237 
  179000    111.64532   -8246.1037   -7556.8884   -482.47084     102002.7      46.7237      46.7237      46.7237 
  180000    110.06365   -8250.9584   -7571.5072   -972.29632     102002.7      46.7237      46.7237      46.7237 
  181000    109.80852   -8238.0116   -7560.1353   -599.48087     102002.7      46.7237      46.7237      46.7237 
  182000    109.65873   -8253.9979   -7577.0463   -614.92233     102002.7      46.7237      46.7237      46.7237 
  183000    108.35362   -8256.8581   -7587.9633   -1128.2709     102002.7      46.7237      46.7237      46.7237 
  184000    110.40172   -8230.6031   -7549.0648   -680.30473     102002.7      46.7237      46.7237      46.7237 
  185000    106.94329    -8245.764   -7585.5755   -1059.6797     102002.7      46.7237      46.7237      46.7237 
  186000    110.73041   -8259.3433   -7575.7759   -773.16469     102002.7      46.7237      46.7237      46.7237 
  187000    112.44885   -8250.4468   -7556.2711   -667.18212     102002.7      46.7237      46.7237      46.7237 
  188000    108.49895   -8264.3407   -7594.5487   -836.87115     102002.7      46.7237      46.7237      46.7237 
  189000    110.27148   -8238.5426   -7557.8083   -833.37868     102002.7      46.7237      46.7237      46.7237 
  190000    111.74103   -8264.1416   -7574.3354   -704.84369     102002.7      46.7237      46.7237      46.7237 
  191000    110.40917   -8243.5828   -7561.9985   -874.86858     102002.7      46.7237      46.7237      46.7237 
  192000    113.44457    -8271.865   -7571.5425    -1024.633     102002.7      46.7237      46.7237      46.7237 
  193000    109.30782   -8254.4086   -7579.6232   -710.65843     102002.7      46.7237      46.7237      46.7237 
  194000    111.86738   -8247.3143   -7556.7282   -690.15154     102002.7      46.7237      46.7237      46.7237 
  195000    113.25198    -8272.227   -7573.0933   -730.74281     102002.7      46.7237      46.7237      46.7237 
  196000    110.59537   -8257.1191   -7574.3854   -444.15994     102002.7      46.7237      46.7237      46.7237 
  197000    112.84673   -8237.2364   -7540.6045   -618.21514     102002.7      46.7237      46.7237      46.7237 
  198000    109.64084   -8247.3622   -7570.5211   -840.82712     102002.7      46.7237      46.7237      46.7237 
  199000    110.38778   -8236.2712    -7554.819   -697.17035     102002.7      46.7237      46.7237      46.7237 
  200000    111.24246   -8263.0671   -7576.3387   -735.72636     102002.7      46.7237      46.7237      46.7237 
  201000    111.31181   -8249.4231   -7562.2666    -705.2643     102002.7      46.7237      46.7237      46.7237 
  202000    112.35599    -8256.355   -7562.7525   -885.03726     102002.7      46.7237      46.7237      46.7237 
  203000    113.03784   -8225.9707    -7528.159    -1074.574     102002.7      46.7237      46.7237      46.7237 
  204000    110.40204    -8243.931   -7562.3907   -706.04879     102002.7      46.7237      46.7237      46.7237 
  205000    108.31519   -8242.1485   -7573.4909   -980.08856     102002.7      46.7237      46.7237      46.7237 
  206000    109.83674   -8253.0644   -7575.0139   -849.02269     102002.7      46.7237      46.7237      46.7237 
  207000    108.86124   -8225.0836   -7553.0551    -931.2062     102002.7      46.7237      46.7237      46.7237 
  208000     110.0068   -8265.9491   -7586.8488   -882.40348     102002.7      46.7237      46.7237      46.7237 
  209000    110.31631   -8234.1174   -7553.1064   -1018.8555     102002.7      46.7237      46.7237      46.7237 
  210000    111.80572   -8229.4947   -7539.2892    -1016.685     102002.7      46.7237      46.7237      46.7237 
  211000    111.63978   -8230.0371   -7540.8559   -1043.0495     102002.7      46.7237      46.7237      46.7237 
  212000    111.06374   -8251.1082   -7565.4831   -867.65291     102002.7      46.7237      46.7237      46.7237 
  213000    111.49945    -8230.188   -7541.8732   -718.31617     102002.7      46.7237      46.7237      46.7237 
  214000    108.19136   -8241.7895   -7573.8964   -1105.2573     102002.7      46.7237      46.7237      46.7237 
  215000    109.40077   -8239.1392   -7563.7801   -957.94114     102002.7      46.7237      46.7237      46.7237 
  216000    110.08553    -8237.825   -7558.2387    -738.5041     102002.7      46.7237      46.7237      46.7237 
  217000     111.0467   -8233.6688   -7548.1489   -794.21005     102002.7      46.7237      46.7237      46.7237 
  218000    107.43052   -8253.6987   -7590.5025   -677.74459     102002.7      46.7237      46.7237      46.7237 
  219000     107.4465   -8242.2475   -7578.9526   -614.22666     102002.7      46.7237      46.7237      46.7237 
  220000    113.06597   -8241.2589   -7543.2736   -554.75775     102002.7      46.7237      46.7237      46.7237 
  221000    111.16378   -8215.4172   -7529.1746   -675.54172     102002.7      46.7237      46.7237      46.7237 
  222000    110.14132   -8234.1234   -7554.1927   -617.73842     102002.7      46.7237      46.7237      46.7237 
  223000    111.09935   -8231.8132   -7545.9683   -663.10083     102002.7      46.7237      46.7237      46.7237 
  224000    110.33778   -8235.5482   -7554.4047   -676.16975     102002.7      46.7237      46.7237      46.7237 
  225000    107.93912   -8257.4128   -7591.0768   -868.36616     102002.7      46.7237      46.7237      46.7237 
  226000     108.7192   -8252.7284   -7581.5768   -642.95699     102002.7      46.7237      46.7237      46.7237 
  227000    109.33349   -8241.7484   -7566.8046    -550.6278     102002.7      46.7237      46.7237      46.7237 
  228000    109.60956   -8226.0421    -7549.394   -541.99463     102002.7      46.7237      46.7237      46.7237 
  229000    111.23529   -8226.0526   -7539.3685   -470.46987     102002.7      46.7237      46.7237      46.7237 
  230000    108.14543   -8243.1278   -7575.5181   -692.61083     102002.7      46.7237      46.7237      46.7237 
  231000    109.37594   -8249.0569   -7573.8511    -911.7365     102002.7      46.7237      46.7237      46.7237 
  232000    112.34042   -8279.3338   -7585.8275   -608.61077     102002.7      46.7237      46.7237      46.7237 
  233000    110.61519   -8226.4733   -7543.6173   -869.78364     102002.7      46.7237      46.7237      46.7237 
  234000     109.5104   -8218.9969    -7542.961   -851.90487     102002.7      46.7237      46.7237      46.7237 
  235000    107.40637   -8231.0673   -7568.0201   -913.10808     102002.7      46.7237      46.7237      46.7237 
  236000     108.7425   -8242.5641   -7571.2686   -718.68971     102002.7      46.7237      46.7237      46.7237 
  237000    109.93082   -8254.0821   -7575.4509   -834.15611     102002.7      46.7237      46.7237      46.7237 
  238000    108.21217   -8236.2172   -7568.1956   -680.94401     102002.7      46.7237      46.7237      46.7237 
  239000    110.06252   -8245.3155   -7565.8712   -863.44866     102002.7      46.7237      46.7237      46.7237 
  240000    111.24986    -8245.902    -7559.128    -830.4519     102002.7      46.7237      46.7237      46.7237 
  241000    112.20844   -8240.9391   -7548.2475   -830.61618     102002.7      46.7237      46.7237      46.7237 
  242000    110.09598   -8222.9827   -7543.3318   -741.26242     102002.7      46.7237      46.7237      46.7237 
  243000    112.09307   -8243.8364    -7551.857    -952.3524     102002.7      46.7237      46.7237      46.7237 
  244000     105.5874   -8223.3522    -7571.534   -1017.8731     102002.7      46.7237      46.7237      46.7237 
  245000    111.11058   -8250.4568   -7564.5426   -875.93066     102002.7      46.7237      46.7237      46.7237 
  246000    110.67423   -8253.8465   -7570.6259   -949.51152     102002.7      46.7237      46.7237      46.7237 
  247000    110.47405   -8270.2525   -7588.2678   -1065.7937     102002.7      46.7237      46.7237      46.7237 
  248000    113.54878   -8253.7196   -7552.7538   -923.21458     102002.7      46.7237      46.7237      46.7237 
  249000    111.93862   -8234.7848   -7543.7589   -915.69047     102002.7      46.7237      46.7237      46.7237 
  250000    108.14364   -8236.3451   -7568.7466   -846.35561     102002.7      46.7237      46.7237      46.7237 
  251000    109.17812   -8260.5631   -7586.5784   -752.88455     102002.7      46.7237      46.7237      46.7237 
  252000    112.70011   -8234.8723   -7539.1455   -918.84807     102002.7      46.7237      46.7237      46.7237 
  253000    109.33317   -8240.9123   -7565.9705   -849.19915     102002.7      46.7237      46.7237      46.7237 
  254000     109.7137   -8248.1995   -7570.9085    -769.6634     102002.7      46.7237      46.7237      46.7237 
  255000    110.22716    -8239.699   -7559.2383   -691.77425     102002.7      46.7237      46.7237      46.7237 
  256000    109.56759   -8254.1099    -7577.721   -825.90945     102002.7      46.7237      46.7237      46.7237 
  257000    108.23654   -8243.1103   -7574.9382   -1008.5843     102002.7      46.7237      46.7237      46.7237 
  258000    107.24388   -8251.1566   -7589.1125   -746.04225     102002.7      46.7237      46.7237      46.7237 
  259000    110.24784   -8242.9842   -7562.3958   -666.71105     102002.7      46.7237      46.7237      46.7237 
  260000    112.34569   -8236.9789     -7543.44    -636.8237     102002.7      46.7237      46.7237      46.7237 
  261000    110.58148   -8262.8987   -7580.2507   -616.51206     102002.7      46.7237      46.7237      46.7237 
  262000    110.17859   -8234.5627   -7554.4019   -584.81694     102002.7      46.7237      46.7237      46.7237 
  263000    110.99891   -8216.2684   -7531.0435   -763.13058     102002.7      46.7237      46.7237      46.7237 
  264000    105.97915   -8246.8456    -7592.609   -1092.7369     102002.7      46.7237      46.7237      46.7237 
  265000    108.31464   -8229.0621   -7560.4079   -755.39888     102002.7      46.7237      46.7237      46.7237 
  266000    110.37335   -8237.5009   -7556.1378   -726.45419     102002.7      46.7237      46.7237      46.7237 
  267000     111.9731   -8227.5055   -7536.2667   -667.73976     102002.7      46.7237      46.7237      46.7237 
  268000    107.89019   -8243.0783   -7577.0444   -753.51866     102002.7      46.7237      46.7237      46.7237 
  269000    110.18548   -8230.1912   -7549.9879   -656.08087     102002.7      46.7237      46.7237      46.7237 
  270000    109.43395   -8243.8756   -7568.3116   -571.38583     102002.7      46.7237      46.7237      46.7237 
  271000    110.32519   -8239.2003   -7558.1345   -928.44893     102002.7      46.7237      46.7237      46.7237 
  272000    107.27402   -8228.3475   -7566.1174   -413.80194     102002.7      46.7237      46.7237      46.7237 
  273000    109.55513   -8251.5373   -7575.2252   -577.01099     102002.7      46.7237      46.7237      46.7237 
  274000    116.09178   -8224.9045     -7508.24   -467.44955     102002.7      46.7237      46.7237      46.7237 
  275000    108.08223   -8235.0681   -7567.8486   -597.88535     102002.7      46.7237      46.7237      46.7237 
  276000    107.34732   -8248.5257   -7585.8431   -604.40202     102002.7      46.7237      46.7237      46.7237 
  277000    110.17028   -8252.7902   -7572.6807    -386.7412     102002.7      46.7237      46.7237      46.7237 
  278000    110.46608   -8226.7183   -7544.7827   -683.81682     102002.7      46.7237      46.7237      46.7237 
  279000    109.05379   -8240.4264   -7567.2092   -514.98014     102002.7      46.7237      46.7237      46.7237 
  280000    110.60298      -8265.2   -7582.4193   -493.58074     102002.7      46.7237      46.7237      46.7237 
  281000    108.64472   -8240.8915   -7570.1996   -563.47456     102002.7      46.7237      46.7237      46.7237 
  282000    109.00069   -8239.7507   -7566.8614   -543.74802     102002.7      46.7237      46.7237      46.7237 
  283000    110.29022   -8231.0803   -7550.2303   -643.61064     102002.7      46.7237      46.7237      46.7237 
  284000    111.83592    -8232.736   -7542.3441    -741.2321     102002.7      46.7237      46.7237      46.7237 
  285000    109.85762    -8242.796   -7564.6166   -668.40522     102002.7      46.7237      46.7237      46.7237 
  286000    111.55524    -8228.987   -7540.3277   -823.97359     102002.7      46.7237      46.7237      46.7237 
  287000     113.2782   -8251.3411   -7552.0456   -986.81543     102002.7      46.7237      46.7237      46.7237 
  288000    109.35391   -8233.2169    -7558.147    -1076.786     102002.7      46.7237      46.7237      46.7237 
  289000    112.20023   -8242.3833   -7549.7423   -1231.6044     102002.7      46.7237      46.7237      46.7237 
  290000     109.4903   -8226.6794   -7550.7676   -912.90579     102002.7      46.7237      46.7237      46.7237 
  291000    112.71058   -8243.6697   -7547.8782   -552.29191     102002.7      46.7237      46.7237      46.7237 
  292000     108.1042   -8242.7854   -7575.4303   -742.56637     102002.7      46.7237      46.7237      46.7237 
  293000    112.83532   -8238.1615      -7541.6   -764.89311     102002.7      46.7237      46.7237      46.7237 
  294000    113.98697    -8250.348    -7546.677   -856.84765     102002.7      46.7237      46.7237      46.7237 
  295000    109.14381    -8229.275   -7555.5021   -802.27344     102002.7      46.7237      46.7237      46.7237 
  296000    109.16729    -8237.752   -7563.8342   -978.85208     102002.7      46.7237      46.7237      46.7237 
  297000    112.27241   -8227.1543   -7534.0678   -1030.2637     102002.7      46.7237      46.7237      46.7237 
  298000    110.14047   -8238.5504   -7558.6249   -1017.8401     102002.7      46.7237      46.7237      46.7237 
  299000    110.61501   -8258.3229    -7575.468   -873.97853     102002.7      46.7237      46.7237      46.7237 
  300000    107.75272   -8260.8824   -7595.6971   -847.24634     102002.7      46.7237      46.7237      46.7237 
  301000    111.29049   -8240.4563   -7553.4314   -622.59769     102002.7      46.7237      46.7237      46.7237 
  302000    107.98695   -8239.4413   -7572.8101   -610.29367     102002.7      46.7237      46.7237      46.7237 
  303000    114.43436   -8229.0233   -7522.5905   -896.91867     102002.7      46.7237      46.7237      46.7237 
  304000    109.95762   -8284.0333   -7605.2366   -619.83256     102002.7      46.7237      46.7237      46.7237 
  305000    111.12373   -8248.4631   -7562.4677    -828.4235     102002.7      46.7237      46.7237      46.7237 
  306000    107.04071   -8246.0929    -7585.303   -726.56988     102002.7      46.7237      46.7237      46.7237 
  307000    110.45398   -8276.8366   -7594.9757   -893.77469     102002.7      46.7237      46.7237      46.7237 
  308000    109.67332   -8237.1276   -7560.0859   -699.56607     102002.7      46.7237      46.7237      46.7237 
  309000     109.8822   -8265.9994   -7587.6683   -525.30891     102002.7      46.7237      46.7237      46.7237 
  310000    107.93706   -8236.5928   -7570.2696    -963.3534     102002.7      46.7237      46.7237      46.7237 
  311000    107.41563   -8258.4104    -7595.306   -681.41546     102002.7      46.7237      46.7237      46.7237 
  312000    111.48908   -8226.9421   -7538.6912    -761.3362     102002.7      46.7237      46.7237      46.7237 
  313000    112.52892   -8245.5458   -7550.8758   -823.71722     102002.7      46.7237      46.7237      46.7237 
  314000    113.03144   -8225.0944   -7527.3222   -755.97739     102002.7      46.7237      46.7237      46.7237 
  315000    110.63567   -8242.8607   -7559.8783   -578.18334     102002.7      46.7237      46.7237      46.7237 
  316000    109.93899    -8243.374   -7564.6923   -1086.9968     102002.7      46.7237      46.7237      46.7237 
  317000    111.10234   -8232.1009   -7546.2375   -621.12813     102002.7      46.7237      46.7237      46.7237 
  318000    109.50081   -8259.1123   -7583.1356   -779.18427     102002.7      46.7237      46.7237      46.7237 
  319000    111.05653   -8240.3925    -7554.812   -946.53974     102002.7      46.7237      46.7237      46.7237 
  320000    111.32756   -8257.3963   -7570.1426   -560.53709     102002.7      46.7237      46.7237      46.7237 
  321000     106.9288   -8245.2945   -7585.1955   -924.44164     102002.7      46.7237      46.7237      46.7237 
  322000    110.27927   -8239.2033    -7558.421    -959.3417     102002.7      46.7237      46.7237      46.7237 
  323000    108.49796   -8254.9898   -7585.2039   -908.32097     102002.7      46.7237      46.7237      46.7237 
  324000    110.11365   -8243.4013   -7563.6414   -922.31331     102002.7      46.7237      46.7237      46.7237 
  325000    114.89204   -8259.8497   -7550.5915   -405.29429     102002.7      46.7237      46.7237      46.7237 
  326000    109.63393     -8235.27   -7558.4715   -646.71351     102002.7      46.7237      46.7237      46.7237 
  327000    110.43664   -8235.2654   -7553.5116   -936.95559     102002.7      46.7237      46.7237      46.7237 
  328000    105.93022   -8258.6774   -7604.7429   -650.50717     102002.7      46.7237      46.7237      46.7237 
  329000    110.19677   -8233.5453   -7553.2722   -881.43251     102002.7      46.7237      46.7237      46.7237 
  330000    109.95405   -8265.1427    -7586.368   -903.75579     102002.7      46.7237      46.7237      46.7237 
  331000    108.23696   -8242.0762   -7573.9016   -817.02755     102002.7      46.7237      46.7237      46.7237 
  332000    108.45138   -8249.4376   -7579.9393   -849.06929     102002.7      46.7237      46.7237      46.7237 
  333000    112.80211   -8248.0438   -7551.6874   -775.31427     102002.7      46.7237      46.7237      46.7237 
  334000    110.12771   -8282.5385   -7602.6918   -616.82035     102002.7      46.7237      46.7237      46.7237 
  335000    111.85857   -8265.2943   -7574.7625   -912.94824     102002.7      46.7237      46.7237      46.7237 
  336000    105.16921   -8260.5598   -7611.3231   -799.60423     102002.7      46.7237      46.7237      46.7237 
  337000    109.48753   -8245.0553   -7569.1606   -845.63119     102002.7      46.7237      46.7237      46.7237 
  338000    108.34018   -8252.4423   -7583.6304   -815.99386     102002.7      46.7237      46.7237      46.7237 
  339000    111.49034   -8255.1109   -7566.8523   -882.46514     102002.7      46.7237      46.7237      46.7237 
  340000    110.29537   -8248.8872   -7568.0054   -605.94922     102002.7      46.7237      46.7237      46.7237 
  341000    106.76701   -8214.1672    -7555.067   -638.37036     102002.7      46.7237      46.7237      46.7237 
  342000    109.78993   -8246.0585   -7568.2969   -750.39172     102002.7      46.7237      46.7237      46.7237 
  343000    113.52482   -8232.6275   -7531.8096   -776.85399     102002.7      46.7237      46.7237      46.7237 
  344000    112.28323   -8246.1425   -7552.9892   -726.10998     102002.7      46.7237      46.7237      46.7237 
  345000     112.4902    -8237.575    -7543.144   -508.88826     102002.7      46.7237      46.7237      46.7237 
  346000    108.53771   -8234.9883    -7564.957   -513.60662     102002.7      46.7237      46.7237      46.7237 
  347000     110.1915   -8265.2042   -7584.9637   -818.30228     102002.7      46.7237      46.7237      46.7237 
  348000    109.05858   -8237.2093   -7563.9626   -890.12984     102002.7      46.7237      46.7237      46.7237 
  349000    109.29787   -8260.2242   -7585.5003   -686.09024     102002.7      46.7237      46.7237      46.7237 
  350000    110.95377   -8237.5862     -7552.64   -1148.1096     102002.7      46.7237      46.7237      46.7237 
  351000    107.60803   -8243.3045   -7579.0124   -710.42142     102002.7      46.7237      46.7237      46.7237 
  352000    109.34208   -8278.0361   -7603.0393    -956.2351     102002.7      46.7237      46.7237      46.7237 
  353000    109.70936   -8227.1479   -7549.8838    -811.0991     102002.7      46.7237      46.7237      46.7237 
  354000    108.48748   -8252.8398   -7583.1187   -697.94612     102002.7      46.7237      46.7237      46.7237 
  355000     109.4293   -8232.2771   -7556.7418   -661.57814     102002.7      46.7237      46.7237      46.7237 
  356000    110.66828   -8228.7157   -7545.5319   -833.83316     102002.7      46.7237      46.7237      46.7237 
  357000    109.19834   -8247.4538   -7573.3443   -775.05014     102002.7      46.7237      46.7237      46.7237 
  358000    109.17406   -8248.7655   -7574.8059   -780.16849     102002.7      46.7237      46.7237      46.7237 
  359000    111.76572     -8270.64   -7580.6814   -829.79758     102002.7      46.7237      46.7237      46.7237 
  360000    108.62938   -8238.0513   -7567.4541   -616.34859     102002.7      46.7237      46.7237      46.7237 
  361000    105.04938   -8257.3166   -7608.8197   -1111.7566     102002.7      46.7237      46.7237      46.7237 
  362000    111.75895   -8239.0218   -7549.1049   -928.71516     102002.7      46.7237      46.7237      46.7237 
  363000    112.94454   -8251.9536   -7554.7179   -591.35468     102002.7      46.7237      46.7237      46.7237 
  364000    110.86328    -8219.317   -7534.9295     -966.363     102002.7      46.7237      46.7237      46.7237 
  365000     114.1917   -8259.2156   -7554.2808   -380.60249     102002.7      46.7237      46.7237      46.7237 
  366000    107.52101   -8234.5203   -7570.7654   -735.79644     102002.7      46.7237      46.7237      46.7237 
  367000      112.366   -8252.4485   -7558.7842    -847.7324     102002.7      46.7237      46.7237      46.7237 
  368000    110.75016   -8255.5519   -7571.8626   -606.70546     102002.7      46.7237      46.7237      46.7237 
  369000    109.44532   -8259.1217   -7583.4876   -690.02393     102002.7      46.7237      46.7237      46.7237 
  370000    112.86188   -8271.9873   -7575.2619   -548.95053     102002.7      46.7237      46.7237      46.7237 
  371000    107.53692   -8251.2263   -7587.3732   -571.46662     102002.7      46.7237      46.7237      46.7237 
  372000    109.00754   -8264.3965   -7591.4649   -613.03726     102002.7      46.7237      46.7237      46.7237 
  373000      109.882   -8269.9755   -7591.6455   -656.92457     102002.7      46.7237      46.7237      46.7237 
  374000    106.46111   -8254.6205   -7597.4087   -564.61604     102002.7      46.7237      46.7237      46.7237 
  375000    111.51613   -8246.1293   -7557.7115   -737.86229     102002.7      46.7237      46.7237      46.7237 
  376000    112.55102   -8248.8044    -7553.998   -550.54149     102002.7      46.7237      46.7237      46.7237 
  377000    107.39305   -8244.2155   -7581.2505   -804.31143     102002.7      46.7237      46.7237      46.7237 
  378000    108.99973   -8257.2737   -7584.3902   -746.98529     102002.7      46.7237      46.7237      46.7237 
  379000    110.60269   -8246.5574   -7563.7785   -519.37472     102002.7      46.7237      46.7237      46.7237 
  380000     114.2107   -8219.4413   -7514.3892   -735.35095     102002.7      46.7237      46.7237      46.7237 
  381000    108.77914   -8234.8957   -7563.3741   -858.93224     102002.7      46.7237      46.7237      46.7237 
  382000    108.36333   -8249.0486   -7580.0938   -1102.1369     102002.7      46.7237      46.7237      46.7237 
  383000     109.9234   -8271.4198   -7592.8343   -1001.8032     102002.7      46.7237      46.7237      46.7237 
  384000    110.95813    -8251.086   -7566.1129   -689.49613     102002.7      46.7237      46.7237      46.7237 
  385000    108.14756   -8264.6389   -7597.0162   -1021.4444     102002.7      46.7237      46.7237      46.7237 
  386000    109.79102   -8238.8162    -7561.048   -557.17377     102002.7      46.7237      46.7237      46.7237 
  387000    111.70052   -8245.4459   -7555.8898   -1084.5711     102002.7      46.7237      46.7237      46.7237 
  388000    107.06763   -8266.0006   -7605.0446   -800.42444     102002.7      46.7237      46.7237      46.7237 
  389000    109.55346   -8241.7415   -7565.4398   -802.01728     102002.7      46.7237      46.7237      46.7237 
  390000    108.94068   -8224.7698   -7552.2509   -985.55509     102002.7      46.7237      46.7237      46.7237 
  391000    111.36857   -8233.8563   -7546.3494   -941.79562     102002.7      46.7237      46.7237      46.7237 
  392000    109.06625   -8263.6185   -7590.3244   -841.49153     102002.7      46.7237      46.7237      46.7237 
  393000    110.49884   -8237.0121   -7554.8743   -722.17913     102002.7      46.7237      46.7237      46.7237 
  394000     112.4619   -8224.7198   -7530.4636   -890.21189     102002.7      46.7237      46.7237      46.7237 
  395000    111.76464   -8236.5411   -7546.5891    -757.8604     102002.7      46.7237      46.7237      46.7237 
  396000    109.65016   -8231.2455   -7554.3468   -986.10054     102002.7      46.7237      46.7237      46.7237 
  397000    110.69737   -8248.2282   -7564.8648   -790.57951     102002.7      46.7237      46.7237      46.7237 
  398000    110.44324    -8229.121   -7547.3265   -678.54775     102002.7      46.7237      46.7237      46.7237 
  399000     108.8539   -8227.3549   -7555.3717   -602.73108     102002.7      46.7237      46.7237      46.7237 
  400000    112.90091   -8236.1999   -7539.2336   -912.27861     102002.7      46.7237      46.7237      46.7237 
  401000    112.09688   -8248.9193   -7556.9164   -869.90461     102002.7      46.7237      46.7237      46.7237 
  402000    108.42203   -8243.5521    -7574.235   -940.80233     102002.7      46.7237      46.7237      46.7237 
  403000    111.18792   -8254.4177    -7568.026   -1113.1442     102002.7      46.7237      46.7237      46.7237 
  404000    110.55896   -8238.8142   -7556.3053    -705.1983     102002.7      46.7237      46.7237      46.7237 
  405000    109.27383   -8213.4862   -7538.9107    -990.2884     102002.7      46.7237      46.7237      46.7237 
  406000    111.73802   -8250.1633   -7560.3757   -1018.6264     102002.7      46.7237      46.7237      46.7237 
  407000    108.25907   -8234.5592   -7566.2481   -759.00236     102002.7      46.7237      46.7237      46.7237 
  408000    110.44279   -8247.4263   -7565.6345   -1063.5276     102002.7      46.7237      46.7237      46.7237 
  409000    108.77582   -8215.5269   -7544.0258   -864.81489     102002.7      46.7237      46.7237      46.7237 
  410000    110.03886   -8262.9217   -7583.6234   -575.22206     102002.7      46.7237      46.7237      46.7237 
  411000    112.74404   -8232.4095   -7536.4116   -824.91111     102002.7      46.7237      46.7237      46.7237 
  412000     113.9677    -8224.919    -7521.367   -1033.7227     102002.7      46.7237      46.7237      46.7237 
  413000    107.90002   -8220.5497   -7554.4551   -881.81339     102002.7      46.7237      46.7237      46.7237 
  414000    111.11126   -8240.0749   -7554.1564   -894.80162     102002.7      46.7237      46.7237      46.7237 
  415000    109.33004   -8246.9923   -7572.0698   -848.34922     102002.7      46.7237      46.7237      46.7237 
  416000    111.42303   -8254.6934   -7566.8504   -942.63475     102002.7      46.7237      46.7237      46.7237 
  417000    109.44056   -8236.4128    -7560.808   -565.16937     102002.7      46.7237      46.7237      46.7237 
  418000    112.58829    -8248.493   -7553.4564   -764.52567     102002.7      46.7237      46.7237      46.7237 
  419000    109.90591   -8245.3979   -7566.9204   -695.73402     102002.7      46.7237      46.7237      46.7237 
  420000    108.06094   -8214.7241   -7547.6361   -662.12524     102002.7      46.7237      46.7237      46.7237 
  421000    109.73875   -8232.8561   -7555.4105    -746.4486     102002.7      46.7237      46.7237      46.7237 
  422000    111.58302   -8248.6167    -7559.786   -693.58451     102002.7      46.7237      46.7237      46.7237 
  423000    111.07437   -8246.8785   -7561.1877   -693.47081     102002.7      46.7237      46.7237      46.7237 
  424000    109.54692   -8243.9131   -7567.6517   -1034.0113     102002.7      46.7237      46.7237      46.7237 
  425000    109.72663    -8240.302   -7562.9313   -770.01654     102002.7      46.7237      46.7237      46.7237 
  426000    110.53809   -8225.7153   -7543.3352   -959.48959     102002.7      46.7237      46.7237      46.7237 
  427000    109.23403   -8240.5466   -7566.2168   -971.66732     102002.7      46.7237      46.7237      46.7237 
  428000    108.39782    -8208.493   -7539.3253   -900.21942     102002.7      46.7237      46.7237      46.7237 
  429000    111.07533    -8231.206   -7545.5094   -884.03033     102002.7      46.7237      46.7237      46.7237 
  430000    112.36612   -8240.5422   -7546.8772   -659.41552     102002.7      46.7237      46.7237      46.7237 
  431000    110.05501   -8249.5621   -7570.1642   -873.34232     102002.7      46.7237      46.7237      46.7237 
  432000    105.01377   -8249.3384   -7601.0613   -811.94315     102002.7      46.7237      46.7237      46.7237 
  433000    111.60798   -8230.2334   -7541.2486   -781.34368     102002.7      46.7237      46.7237      46.7237 
  434000    107.56766   -8244.3635   -7580.3206    -788.1735     102002.7      46.7237      46.7237      46.7237 
  435000    108.16864    -8229.632   -7561.8791   -781.89086     102002.7      46.7237      46.7237      46.7237 
  436000    110.12023   -8220.2566    -7540.456   -828.80233     102002.7      46.7237      46.7237      46.7237 
  437000    108.63784   -8217.0546   -7546.4052    -649.0029     102002.7      46.7237      46.7237      46.7237 
  438000    107.61685   -8221.9992   -7557.6527   -794.42225     102002.7      46.7237      46.7237      46.7237 
  439000    111.05005   -8237.1692   -7551.6286   -959.86311     102002.7      46.7237      46.7237      46.7237 
  440000    114.17399   -8279.7466   -7574.9211   -899.36187     102002.7      46.7237      46.7237      46.7237 
  441000    109.62173   -8221.7251    -7545.002   -860.37828     102002.7      46.7237      46.7237      46.7237 
  442000     110.3188    -8250.273   -7569.2466    -857.4796     102002.7      46.7237      46.7237      46.7237 
  443000    106.69901   -8253.8322   -7595.1518   -705.76692     102002.7      46.7237      46.7237      46.7237 
  444000    110.65902   -8238.6713   -7555.5446   -846.14056     102002.7      46.7237      46.7237      46.7237 
  445000    112.01771    -8221.886   -7530.3718   -593.65767     102002.7      46.7237      46.7237      46.7237 
  446000    109.89149   -8260.2038   -7581.8153   -830.90317     102002.7      46.7237      46.7237      46.7237 
  447000     108.4515   -8242.6848   -7573.1858   -806.38206     102002.7      46.7237      46.7237      46.7237 
  448000    110.92529   -8245.0435   -7560.2731   -633.08969     102002.7      46.7237      46.7237      46.7237 
  449000    110.53475   -8261.1364   -7578.7769   -728.52089     102002.7      46.7237      46.7237      46.7237 
  450000     107.6086   -8252.0898   -7587.7942     -769.957     102002.7      46.7237      46.7237      46.7237 
  451000    111.23497   -8232.9023   -7546.2202   -1038.7205     102002.7      46.7237      46.7237      46.7237 
  452000    110.82551   -8266.7315   -7582.5771   -747.19897     102002.7      46.7237      46.7237      46.7237 
  453000    107.47348   -8205.6859   -7542.2245   -692.26968     102002.7      46.7237      46.7237      46.7237 
  454000    110.26154   -8236.9887   -7556.3158   -1272.7605     102002.7      46.7237      46.7237      46.7237 
  455000    111.05489   -8234.8241   -7549.2536   -959.50888     102002.7      46.7237      46.7237      46.7237 
  456000    111.40922   -8238.1971   -7550.4393   -800.95197     102002.7      46.7237      46.7237      46.7237 
  457000     108.3936   -8271.4538   -7602.3122   -473.03352     102002.7      46.7237      46.7237      46.7237 
  458000    110.95409   -8239.1745   -7554.2263   -1007.6641     102002.7      46.7237      46.7237      46.7237 
  459000    113.08385   -8240.8138    -7542.718   -696.98872     102002.7      46.7237      46.7237      46.7237 
  460000    110.47191   -8244.4694   -7562.4978   -666.67993     102002.7      46.7237      46.7237      46.7237 
  461000    109.99257   -8227.7189   -7548.7064   -699.02031     102002.7      46.7237      46.7237      46.7237 
  462000    112.44372   -8252.0983   -7557.9543    -602.7932     102002.7      46.7237      46.7237      46.7237 
  463000    113.81806   -8244.3879   -7541.7597   -807.39879     102002.7      46.7237      46.7237      46.7237 
  464000    110.15524   -8248.7177    -7568.701   -873.14796     102002.7      46.7237      46.7237      46.7237 
  465000    106.10868   -8238.9378   -7583.9016   -905.99206     102002.7      46.7237      46.7237      46.7237 
  466000    112.89692   -8257.3567   -7560.4149   -856.23537     102002.7      46.7237      46.7237      46.7237 
  467000    111.02109   -8254.2907   -7568.9289   -771.80844     102002.7      46.7237      46.7237      46.7237 
  468000    108.07072   -8225.1423   -7557.9939   -874.05495     102002.7      46.7237      46.7237      46.7237 
  469000    114.17333   -8233.4735   -7528.6522   -621.70851     102002.7      46.7237      46.7237      46.7237 
  470000     112.2083   -8259.7194   -7567.0287   -1010.5937     102002.7      46.7237      46.7237      46.7237 
  471000    109.68521   -8227.9995   -7550.8844   -1058.3833     102002.7      46.7237      46.7237      46.7237 
  472000    110.36483   -8233.2245    -7551.914   -1002.1088     102002.7      46.7237      46.7237      46.7237 
  473000    109.77276   -8235.3696   -7557.7141   -980.23195     102002.7      46.7237      46.7237      46.7237 
  474000    105.91062   -8257.8064   -7603.9929   -744.44019     102002.7      46.7237      46.7237      46.7237 
  475000     109.7175   -8253.9521   -7576.6378   -880.02676     102002.7      46.7237      46.7237      46.7237 
  476000    107.45144   -8243.4017   -7580.0762   -883.72238     102002.7      46.7237      46.7237      46.7237 
  477000    112.00264   -8245.9568   -7554.5356   -1041.6886     102002.7      46.7237      46.7237      46.7237 
  478000    110.49444   -8229.3959   -7547.2852    -1012.722     102002.7      46.7237      46.7237      46.7237 
  479000    111.72128   -8250.0156   -7560.3314   -730.60671     102002.7      46.7237      46.7237      46.7237 
  480000    109.56514   -8235.7518    -7559.378   -1039.6219     102002.7      46.7237      46.7237      46.7237 
  481000    107.40652   -8246.8752    -7583.827   -705.28551     102002.7      46.7237      46.7237      46.7237 
  482000    111.42419   -8231.4395   -7543.5892   -541.76269     102002.7      46.7237      46.7237      46.7237 
  483000     108.6002    -8230.081   -7559.6639   -635.76603     102002.7      46.7237      46.7237      46.7237 
  484000    108.36453   -8238.3835   -7569.4214   -770.50747     102002.7      46.7237      46.7237      46.7237 
  485000    110.71367   -8251.7134   -7568.2494   -701.65809     102002.7      46.7237      46.7237      46.7237 
  486000    109.64615   -8246.7514   -7569.8775   -738.99992     102002.7      46.7237      46.7237      46.7237 
  487000    113.22803   -8215.3466   -7516.3607   -518.36734     102002.7      46.7237      46.7237      46.7237 
  488000    108.72597   -8240.2605   -7569.0671   -466.97943     102002.7      46.7237      46.7237      46.7237 
  489000    109.84451   -8261.2245    -7583.126    -800.8607     102002.7      46.7237      46.7237      46.7237 
  490000    107.71232   -8241.2941   -7576.3581   -580.70777     102002.7      46.7237      46.7237      46.7237 
  491000    112.67548   -8240.7967    -7545.222   -696.07084     102002.7      46.7237      46.7237      46.7237 
  492000    112.84939   -8238.0219   -7541.3736    -775.3063     102002.7      46.7237      46.7237      46.7237 
  493000    109.49373   -8242.6316   -7566.6987   -769.21244     102002.7      46.7237      46.7237      46.7237 
  494000    107.78454   -8232.4472   -7567.0655   -679.65551     102002.7      46.7237      46.7237      46.7237 
  495000    110.19699   -8272.4175   -7592.1431    -752.3478     102002.7      46.7237      46.7237      46.7237 
  496000    113.05959   -8255.8022   -7557.8562   -687.43919     102002.7      46.7237      46.7237      46.7237 
  497000    108.81026   -8248.9195   -7577.2057   -725.63927     102002.7      46.7237      46.7237      46.7237 
  498000    110.44327   -8238.7393   -7556.9445   -789.69069     102002.7      46.7237      46.7237      46.7237 
  499000    113.51122   -8222.8293   -7522.0954   -808.55662     102002.7      46.7237      46.7237      46.7237 
  500000    109.58852   -8253.3971    -7576.879    -809.0909     102002.7      46.7237      46.7237      46.7237 
  500500    110.79047   -8249.1098   -7565.1717   -874.98077     102002.7      46.7237      46.7237      46.7237 
Loop time of 595.596 on 24 procs for 500000 steps with 2072 atoms

Performance: 72.532 ns/day, 0.331 hours/ns, 839.495 timesteps/s
99.4% CPU use with 24 MPI tasks x no OpenMP threads

MPI task timing breakdown:
Section |  min time  |  avg time  |  max time  |%varavg| %total
---------------------------------------------------------------
Pair    | 236.46     | 312.47     | 375.14     | 182.1 | 52.46
Bond    | 59.729     | 78.423     | 101.25     | 135.3 | 13.17
Neigh   | 3.2978     | 3.3217     | 3.3391     |   0.8 |  0.56
Comm    | 131.08     | 192.74     | 255.3      | 213.1 | 32.36
Output  | 0.38151    | 0.38188    | 0.38701    |   0.2 |  0.06
Modify  | 4.0051     | 4.2639     | 4.5335     |   7.7 |  0.72
Other   |            | 3.995      |            |       |  0.67

Nlocal:    86.3333 ave 114 max 68 min
Histogram: 3 3 6 3 2 0 2 1 2 2
Nghost:    2338.58 ave 2493 max 2240 min
Histogram: 5 11 0 0 0 0 0 0 2 6
Neighs:    7637.08 ave 13195 max 4264 min
Histogram: 3 0 3 9 5 2 0 0 1 1

Total # of neighbors = 183290
Ave neighs/atom = 88.4604
Ave special neighs/atom = 5.55985
Neighbor list builds = 4357
Dangerous builds = 0
Neighbor list info ...
  update every 1 steps, delay 10 steps, check yes
  max neighbors/atom: 2000, page size: 100000
  master list distance cutoff = 16
  ghost atom cutoff = 16
  binsize = 8, bins = 6 6 6
  3 neighbor lists, perpetual/occasional/extra = 3 0 0
  (1) pair buck6d/coul/gauss/dsf, perpetual, skip from (3)
      attributes: half, newton on
      pair build: skip
      stencil: none
      bin: none
  (2) pair lj/cut, perpetual, skip from (3)
      attributes: half, newton on
      pair build: skip
      stencil: none
      bin: none
  (3) neighbor class addition, perpetual
      attributes: half, newton on
      pair build: half/bin/newton
      stencil: half/bin/3d/newton
      bin: standard
Setting up Verlet run ...
  Unit style    : real
  Current step  : 500500
  Time step     : 1
WARNING: Inconsistent image flags (../domain.cpp:786)
Per MPI rank memory allocation (min/avg/max) = 23.94 | 24.46 | 24.58 Mbytes
Step Time TotEng KinEng PotEng E_mol E_pair Temp Pxx Pyy Pzz Pxy Pxz Pyz Cella Cellb Cellc CellAlpha CellBeta CellGamma Volume Press 
  500500       500000   -7565.1717    683.93811   -8249.1098    4307.5552   -12556.665    110.79047   -1027.3975   -917.41069   -680.13408   -192.01571   -112.22407    152.55202      46.7237      46.7237      46.7237           90           90           90     102002.7   -874.98077 
  501000       500500   -7539.4382    688.21228   -8227.6505    4299.2052   -12526.856    111.48284   -951.42267   -1057.6898   -531.34481   -189.74505    59.382231   -9.8146633      46.7237      46.7237      46.7237           90           90           90     102002.7   -846.81908 
  502000       501500   -7560.0353    675.94732   -8235.9826    4295.4328   -12531.415    109.49605    -1199.328   -1051.3199    -821.6458   -17.330245    -167.7321   -83.600099      46.7237      46.7237      46.7237           90           90           90     102002.7   -1024.0979 
  503000       502500   -7524.2846    680.94235   -8205.2269     4339.358   -12544.585    110.30519   -706.97331   -1223.7599    -690.0706    -49.13637   -78.434562    95.400115      46.7237      46.7237      46.7237           90           90           90     102002.7   -873.60126 
  504000       503500   -7543.9649    686.28344   -8230.2484    4299.9793   -12530.228    111.17039    -933.2395   -1007.5031   -1303.8989   -109.73966   -13.534721   -130.09876      46.7237      46.7237      46.7237           90           90           90     102002.7   -1081.5472 
  505000       504500   -7551.3183    677.81229   -8229.1306    4294.7118   -12523.842    109.79815    -1109.627   -745.31704   -1143.8802    152.03555    211.23885    113.93691      46.7237      46.7237      46.7237           90           90           90     102002.7   -999.60806 
  506000       505500   -7595.5784    661.51519   -8257.0936     4275.064   -12532.158     107.1582   -811.54952   -1048.8354   -367.54548   -146.01114  -0.34590858    136.11008      46.7237      46.7237      46.7237           90           90           90     102002.7   -742.64346 
  507000       506500   -7540.8225    665.10512   -8205.9276     4308.291   -12514.219    107.73973   -1101.1478    -799.7668   -1017.3876     31.08944   -39.391177   -99.859988      46.7237      46.7237      46.7237           90           90           90     102002.7   -972.76743 
  508000       507500   -7578.8898    688.66827    -8267.558    4253.8095   -12521.368     111.5567   -1309.7827    -602.8389   -820.33423    61.745808   -76.227838   -146.50001      46.7237      46.7237      46.7237           90           90           90     102002.7   -910.98529 
  509000       508500   -7593.1599    655.00346   -8248.1634    4308.9321   -12557.096    106.10337   -732.98895    -1105.984   -1331.5032    14.510343     -224.647   -233.55393      46.7237      46.7237      46.7237           90           90           90     102002.7   -1056.8254 
  510000       509500    -7544.269    680.39771   -8224.6667     4294.012   -12518.679    110.21696   -983.57729   -1015.3189     -734.876    48.962008    37.842248   -225.06225      46.7237      46.7237      46.7237           90           90           90     102002.7   -911.25739 
  511000       510500   -7557.4177     683.5238   -8240.9415    4293.4129   -12534.354    110.72336   -1123.4215   -759.91106   -921.86771   -55.693903    -50.83225    103.45436      46.7237      46.7237      46.7237           90           90           90     102002.7   -935.06677 
  512000       511500   -7534.2996    687.07767   -8221.3773    4307.4223     -12528.8    111.29904   -711.36191   -690.24901    -824.3454    38.691581    28.208595    124.62229      46.7237      46.7237      46.7237           90           90           90     102002.7   -741.98544 
  513000       512500   -7573.4029     695.6409   -8269.0438    4259.4225   -12528.466    112.68619   -428.48611   -208.37021   -615.67207   -45.401394    18.840751    -89.49701      46.7237      46.7237      46.7237           90           90           90     102002.7   -417.50946 
  514000       513500   -7555.5837    682.39026    -8237.974    4286.6402   -12524.614    110.53973   -612.93262   -583.87263   -1013.2783   -83.251338    136.43212   -6.0106393      46.7237      46.7237      46.7237           90           90           90     102002.7   -736.69453 
  515000       514500   -7588.1589    665.78645   -8253.9453    4272.7722   -12526.717     107.8501   -279.23686   -690.75239   -1183.5123    114.73076     97.51458    68.938799      46.7237      46.7237      46.7237           90           90           90     102002.7   -717.83384 
  516000       515500   -7563.1952    670.03587    -8233.231    4303.4951   -12536.726    108.53846   -987.91192   -822.67621    -1324.685    88.003987   -74.809667    11.880655      46.7237      46.7237      46.7237           90           90           90     102002.7    -1045.091 
  517000       516500   -7557.5601    675.03362   -8232.5937    4312.0337   -12544.627    109.34804    -946.7151   -1002.1077    -826.0689   -254.09843   -59.997861    74.698126      46.7237      46.7237      46.7237           90           90           90     102002.7   -924.96392 
  518000       517500   -7503.9694    698.09031   -8202.0597    4314.8726   -12516.932    113.08297   -437.10148   -1092.5735   -837.18071   -79.350226    141.44451    176.27025      46.7237      46.7237      46.7237           90           90           90     102002.7    -788.9519 
  519000       518500   -7565.0907    662.93639   -8228.0271    4302.3749   -12530.402    107.38842   -1315.7999   -349.33191   -612.88283   -49.702921    104.41653    114.30484      46.7237      46.7237      46.7237           90           90           90     102002.7    -759.3382 
  520000       519500   -7577.6996    660.24181   -8237.9414    4284.4664   -12522.408    106.95193    -727.1714   -317.56427    -545.9603   -103.40161   -268.32634   -20.368786      46.7237      46.7237      46.7237           90           90           90     102002.7   -530.23199 
  521000       520500   -7556.7143    689.56836   -8246.2826    4285.2908   -12531.573    111.70251   -460.39615   -473.69355   -815.50788   -194.88705   -215.84811    246.73321      46.7237      46.7237      46.7237           90           90           90     102002.7   -583.19919 
  522000       521500   -7560.3097    666.96226    -8227.272    4278.1398   -12505.412    108.04057   -467.98928   -860.89244   -1010.2616  -0.74181855   -43.960158    223.71757      46.7237      46.7237      46.7237           90           90           90     102002.7   -779.71445 
  523000       522500    -7541.063    681.19947   -8222.2625    4304.8244   -12527.087    110.34684   -816.10939    -1029.667    -766.7185    18.273881   -1.4190133   -4.8216629      46.7237      46.7237      46.7237           90           90           90     102002.7   -870.83163 
  524000       523500   -7546.7874    670.04165    -8216.829    4298.1677   -12514.997    108.53939   -583.17938   -120.29007   -593.10346     42.87182    31.056869   -305.63707      46.7237      46.7237      46.7237           90           90           90     102002.7   -432.19097 
  525000       524500   -7560.5564    687.21509   -8247.7715    4291.9475   -12539.719    111.32131   -1025.1771   -588.69823   -588.19767    202.30948    -68.30923     125.6678      46.7237      46.7237      46.7237           90           90           90     102002.7   -734.02432 
  526000       525500   -7598.3901    659.69899   -8258.0891    4273.0388   -12531.128      106.864   -403.01198   -839.66356   -688.75036    134.04168    9.3066261    188.64486      46.7237      46.7237      46.7237           90           90           90     102002.7   -643.80864 
  527000       526500   -7565.0077    690.94486   -8255.9526    4279.0824   -12535.035    111.92549   -482.84231   -879.48538   -667.89895   -159.64624   -14.227826    66.466715      46.7237      46.7237      46.7237           90           90           90     102002.7   -676.74222 
  528000       527500    -7586.824    667.32934   -8254.1533    4291.1445   -12545.298    108.10003   -993.03754   -642.91937   -949.60558    21.221068   -165.39522   -292.60708      46.7237      46.7237      46.7237           90           90           90     102002.7   -861.85416 
  529000       528500   -7555.7577     698.8513    -8254.609     4273.652   -12528.261    113.20624   -333.53242   -602.19522     -846.926   -78.689608   -89.042027   -23.435237      46.7237      46.7237      46.7237           90           90           90     102002.7   -594.21788 
  530000       529500   -7588.2389    663.02495   -8251.2639     4289.637   -12540.901    107.40277   -1034.5549   -532.83388   -925.38256    44.023009   -76.943611   0.14433766      46.7237      46.7237      46.7237           90           90           90     102002.7   -830.92378 
  531000       530500    -7573.181    664.10236   -8237.2833    4303.6631   -12540.946     107.5773   -386.07158   -441.94073   -971.74782   -3.3661102   -239.68591    146.60519      46.7237      46.7237      46.7237           90           90           90     102002.7   -599.92005 
  532000       531500   -7563.1477    664.71571   -8227.8634    4329.6717   -12557.535    107.67665   -969.09121   -666.51728   -839.87439   -235.31035    -68.35564    189.61424      46.7237      46.7237      46.7237           90           90           90     102002.7   -825.16096 
  533000       532500   -7582.8315    669.52432   -8252.3558    4271.6039    -12523.96    108.45559   -1196.7454   -1030.4219   -603.00062    41.162523    -109.4275     241.6977      46.7237      46.7237      46.7237           90           90           90     102002.7   -943.38929 
  534000       533500   -7565.4713    675.54956   -8241.0209    4298.7751   -12539.796    109.43162   -493.80669   -444.18619   -941.46878   -40.014351    84.786388   -58.088763      46.7237      46.7237      46.7237           90           90           90     102002.7   -626.48722 
  535000       534500   -7593.0465    672.65697   -8265.7035    4260.5557   -12526.259    108.96305    -314.1767   -484.34806   -944.52102    210.34443   -48.961748     33.24066      46.7237      46.7237      46.7237           90           90           90     102002.7   -581.01526 
  536000       535500   -7557.0296    668.39518   -8225.4248    4294.9461   -12520.371    108.27269   -1014.9884   -686.97967   -361.09372   -91.898175    86.473171    208.88777      46.7237      46.7237      46.7237           90           90           90     102002.7   -687.68727 
  537000       536500   -7547.0298    691.98484   -8239.0146    4295.6936   -12534.708    112.09395   -361.96307   -947.82705   -1251.8407    134.67163    49.886456    38.021682      46.7237      46.7237      46.7237           90           90           90     102002.7   -853.87693 
  538000       537500   -7592.2054    671.13134   -8263.3367    4268.4132    -12531.75    108.71591   -1072.0249   -893.63607   -775.24711   -41.710564    309.81818   -20.503997      46.7237      46.7237      46.7237           90           90           90     102002.7   -913.63602 
  539000       538500   -7547.3098     695.3652    -8242.675    4298.0984   -12540.773    112.64153   -964.94128    -1121.259   -120.68792   -124.81665    48.334056   -93.302318      46.7237      46.7237      46.7237           90           90           90     102002.7    -735.6294 
  540000       539500   -7554.4857    682.62266   -8237.1083    4279.8743   -12516.983    110.57738   -869.99422   -883.08724   -797.10131   -19.418242    9.5598728    -3.140559      46.7237      46.7237      46.7237           90           90           90     102002.7   -850.06092 
  541000       540500   -7584.2546    674.77816   -8259.0327    4289.0538   -12548.087    109.30666    -1165.837   -606.86733   -1089.3748   -287.66331   -45.643517    34.038124      46.7237      46.7237      46.7237           90           90           90     102002.7   -954.02639 
  542000       541500   -7539.8894    683.56405   -8223.4535    4310.5004   -12533.954    110.72988   -1176.3866   -1078.5713   -1315.5044    22.006922   -106.75693   -83.375484      46.7237      46.7237      46.7237           90           90           90     102002.7   -1190.1541 
  543000       542500   -7585.1388    652.76239   -8237.9012    4291.1532   -12529.054    105.74035    -722.0486   -633.83183   -867.72146     13.79176    49.060356   -284.34362      46.7237      46.7237      46.7237           90           90           90     102002.7   -741.20063 
  544000       543500   -7558.4857    705.32512   -8263.8108    4285.1854   -12548.996    114.25493   -621.48383    -972.6576   -615.97959    123.29211   -36.587593    306.81699      46.7237      46.7237      46.7237           90           90           90     102002.7   -736.70701 
  545000       544500   -7560.2335    671.81409   -8232.0476    4302.7139   -12534.762    108.82651   -619.50682   -1096.2567   -1034.9077   -129.40888   -65.755746   -23.948063      46.7237      46.7237      46.7237           90           90           90     102002.7    -916.8904 
  546000       545500   -7550.0714    676.95585   -8227.0272    4298.6463   -12525.674    109.65942   -903.02643   -422.71849    -668.5155   -2.9511333     43.28146   -242.27272      46.7237      46.7237      46.7237           90           90           90     102002.7   -664.75348 
  547000       546500   -7563.4999    674.10104    -8237.601    4306.2313   -12543.832    109.19697    -688.6063   -1105.1129   -1022.2849    39.802557   -127.15213   -127.37218      46.7237      46.7237      46.7237           90           90           90     102002.7   -938.66805 
  548000       547500   -7556.9337      690.146   -8247.0797    4288.0695   -12535.149    111.79608   -700.02277   -425.48536   -681.72581    146.47193    47.173795    50.408832      46.7237      46.7237      46.7237           90           90           90     102002.7   -602.41131 
  549000       548500   -7588.7203    669.45803   -8258.1784    4286.1424   -12544.321    108.44486   -1049.3779   -1132.8025   -499.28735    183.94573   -387.69604    85.362275      46.7237      46.7237      46.7237           90           90           90     102002.7   -893.82257 
  550000       549500   -7542.0111    682.19916   -8224.2102    4311.3505   -12535.561    110.50878   -724.36557   -660.07995    -513.9646    290.97073   -162.25842   -5.4801664      46.7237      46.7237      46.7237           90           90           90     102002.7   -632.80337 
  551000       550500   -7584.5822    665.00181    -8249.584    4284.5812   -12534.165      107.723   -324.28743   -273.54615   -750.64932    103.39454   -208.40492    79.388747      46.7237      46.7237      46.7237           90           90           90     102002.7    -449.4943 
  552000       551500   -7562.2753     680.3633   -8242.6386     4290.496   -12533.135    110.21139   -690.83482   -825.95777   -1093.4789     88.28756   -53.189021    19.002474      46.7237      46.7237      46.7237           90           90           90     102002.7   -870.09051 
  553000       552500   -7578.7478    681.92678   -8260.6746    4285.8349   -12546.509    110.46466   -694.09495   -684.67145   -588.70975   -168.35046    227.00412     109.2421      46.7237      46.7237      46.7237           90           90           90     102002.7   -655.82539 
  554000       553500   -7539.3216    686.58146    -8225.903    4307.3231   -12533.226    111.21866   -859.33123    -904.3401   -1118.5315   -196.89276   -179.01597    18.348971      46.7237      46.7237      46.7237           90           90           90     102002.7   -960.73429 
  555000       554500   -7550.8689    670.83284   -8221.7018    4284.5515   -12506.253    108.66756   -770.19238   -614.71698   -587.40508   -116.39093    194.03831   -109.50766      46.7237      46.7237      46.7237           90           90           90     102002.7   -657.43815 
[...]
  936000       935500   -7573.6831    683.48778   -8257.1709    4304.7838   -12561.955    110.71752   -764.66682   -436.66485   -745.01295   -42.250326    151.97978   -176.19523      46.7237      46.7237      46.7237           90           90           90     102002.7   -648.78154 
  937000       936500   -7577.1583     673.8688   -8251.0271    4293.8713   -12544.898    109.15935   -1084.0739   -212.32077   -661.27925   -111.03407    42.269129   -87.692515      46.7237      46.7237      46.7237           90           90           90     102002.7   -652.55798 
  938000       937500   -7579.2287    680.71617   -8259.9449    4283.3101   -12543.255    110.26855   -790.44809   -1011.8934   -654.93939  -0.73246981   -186.34866    122.54864      46.7237      46.7237      46.7237           90           90           90     102002.7   -819.09363 
  939000       938500   -7549.8716    692.47209   -8242.3437    4287.8392   -12530.183    112.17288   -764.52917   -918.16131   -368.11837    53.695495    54.964991    219.23465      46.7237      46.7237      46.7237           90           90           90     102002.7   -683.60295 
  940000       939500   -7530.9216    691.27705   -8222.1987    4294.2153   -12516.414     111.9793    108.40634   -512.59348   -1355.1698   -223.89502    361.92212     119.3546      46.7237      46.7237      46.7237           90           90           90     102002.7   -586.45232 
  941000       940500   -7553.4167    685.91118   -8239.3279    4288.1549   -12527.483    111.11008   -1001.5207    -993.2912   -715.82907   -101.49323    53.389741   -8.3095028      46.7237      46.7237      46.7237           90           90           90     102002.7   -903.54698 
  942000       941500   -7561.2413    688.14107   -8249.3823    4296.2446   -12545.627     111.4713   -677.35073   -1059.2229   -463.87223   -28.152358   -13.006869    -61.95682      46.7237      46.7237      46.7237           90           90           90     102002.7   -733.48196 
  943000       942500   -7588.5623    657.42261    -8245.985    4300.3167   -12546.302    106.49525   -954.39345   -554.92658   -797.24985    18.627084   -291.54744    -36.82937      46.7237      46.7237      46.7237           90           90           90     102002.7   -768.85663 
  944000       943500   -7581.2452    667.00698   -8248.2521    4292.7691   -12541.021    108.04781   -297.25208   -407.38258   -279.97218    68.921107    205.38873   -92.355699      46.7237      46.7237      46.7237           90           90           90     102002.7   -328.20228 
  945000       944500   -7544.2714    679.50138   -8223.7728    4321.7666   -12545.539    110.07177   -466.51363   -945.37229   -541.02613   -234.47284    286.88234   -72.835568      46.7237      46.7237      46.7237           90           90           90     102002.7   -650.97068 
  946000       945500   -7548.3354    699.53054   -8247.8659    4287.3457   -12535.212    113.31627   -493.96508   -597.97472   -757.12852    61.723771   -39.979338   -35.781628      46.7237      46.7237      46.7237           90           90           90     102002.7   -616.35611 
  947000       946500   -7554.7347    684.83135    -8239.566     4292.631   -12532.197    110.93516   -903.79759   -906.60985   -767.75564    39.630177    94.889503   -62.143677      46.7237      46.7237      46.7237           90           90           90     102002.7   -859.38769 
  948000       947500   -7533.2635    697.80584   -8231.0693    4309.7064   -12540.776    113.03689   -642.78535   -887.81963   -1050.4523   -79.741772   -200.21679    93.160168      46.7237      46.7237      46.7237           90           90           90     102002.7   -860.35241 
  949000       948500   -7542.7641    693.26891    -8236.033    4308.4062   -12544.439    112.30196   -449.31421   -827.32381   -786.16554   -82.638278    15.169535    -124.1044      46.7237      46.7237      46.7237           90           90           90     102002.7   -687.60119 
  950000       949500   -7573.7613    668.03336   -8241.7946    4316.8451    -12558.64    108.21408   -1047.4444   -920.68038   -698.76952   -131.47397   -112.21404    15.122649      46.7237      46.7237      46.7237           90           90           90     102002.7   -888.96477 
  951000       950500   -7561.6143     661.6775   -8223.2918    4302.6882    -12525.98     107.1845   -919.74793   -750.80615   -910.31282   -95.206332   -163.21781    75.850015      46.7237      46.7237      46.7237           90           90           90     102002.7   -860.28897 
  952000       951500    -7564.704    689.25386   -8253.9579    4293.7072   -12547.665    111.65156   -186.98259   -456.55331   -831.80415   -78.836005    44.762332    84.353813      46.7237      46.7237      46.7237           90           90           90     102002.7   -491.78002 
  953000       952500   -7564.5935    706.31427   -8270.9077    4287.6744   -12558.582    114.41516   -868.65418   -368.02291   -1018.1804   -67.142239    -257.7826    113.45331      46.7237      46.7237      46.7237           90           90           90     102002.7   -751.61915 
  954000       953500    -7570.416    663.84961   -8234.2656     4315.197   -12549.463    107.53635   -710.05639   -569.95518   -736.13113   -355.47066   -120.36182    18.045914      46.7237      46.7237      46.7237           90           90           90     102002.7   -672.04757 
  955000       954500   -7546.2363     693.3672   -8239.6035    4292.5795   -12532.183    112.31788   -797.32058   -962.47365   -871.92542   -15.609085    33.387945    21.953426      46.7237      46.7237      46.7237           90           90           90     102002.7   -877.23988 
  956000       955500   -7580.3917    675.30428   -8255.6959    4281.6242    -12537.32    109.39188   -987.75053   -569.72946    -734.4609   -29.641522    154.46409    26.813237      46.7237      46.7237      46.7237           90           90           90     102002.7    -763.9803 
  957000       956500   -7548.2918    683.12805   -8231.4199     4321.708   -12553.128    110.65925   -862.31559   -1012.5553   -486.95283    204.74958   -167.50393    54.393541      46.7237      46.7237      46.7237           90           90           90     102002.7   -787.27456 
  958000       957500   -7545.7357    687.98891   -8233.7246    4300.5658    -12534.29    111.44666   -994.90502   -576.27477   -553.53953   -18.818496   -265.54564    44.944469      46.7237      46.7237      46.7237           90           90           90     102002.7   -708.23977 
  959000       958500   -7564.7847    688.54166   -8253.3263    4296.6945   -12550.021    111.53619   -508.70236   -598.05185   -776.92424    183.94129   -253.44868    21.446739      46.7237      46.7237      46.7237           90           90           90     102002.7   -627.89281 
  960000       959500   -7575.8265    679.14972   -8254.9762    4280.8177   -12535.794     110.0148   -711.31581   -1004.4404   -800.65102   -110.56236    -87.13378   -61.990139      46.7237      46.7237      46.7237           90           90           90     102002.7   -838.80241 
  961000       960500   -7565.6845     683.8964   -8249.5809    4300.5807   -12550.162    110.78371   -456.24263    -722.1908   -573.22456    82.311237    121.11797    12.668995      46.7237      46.7237      46.7237           90           90           90     102002.7     -583.886 
  962000       961500   -7549.9815    671.83942   -8221.8209    4304.5357   -12526.357    108.83061   -223.50544   -429.21436   -781.34932    87.037015    107.47109    30.611137      46.7237      46.7237      46.7237           90           90           90     102002.7   -478.02304 
  963000       962500   -7605.0923    663.85106   -8268.9434    4270.1738   -12539.117    107.53659    -755.9881   -740.39148   -906.79392   -30.909949    39.211795   -31.771629      46.7237      46.7237      46.7237           90           90           90     102002.7   -801.05783 
  964000       963500   -7559.6693     665.1789   -8224.8482    4320.5338   -12545.382    107.75168    -780.2131   -1064.7251    -546.6726    108.45203   -36.269992   -65.918059      46.7237      46.7237      46.7237           90           90           90     102002.7    -797.2036 
  965000       964500   -7529.5594    709.69051   -8239.2499    4313.1567   -12552.407    114.96208   -541.46976   -947.75968   -720.00408   -24.256543    -44.98631    -77.71985      46.7237      46.7237      46.7237           90           90           90     102002.7   -736.41117 
  966000       965500   -7562.9122    684.99175   -8247.9039    4305.7499   -12553.654    110.96115   -733.89042   -1264.4578   -619.44284   -7.3125827    218.03254    51.216544      46.7237      46.7237      46.7237           90           90           90     102002.7   -872.59701 
  967000       966500   -7578.4279    681.89187   -8260.3198    4287.8931   -12548.213      110.459   -841.83155   -415.44183   -419.23487   -173.97798   -77.008437    -36.18875      46.7237      46.7237      46.7237           90           90           90     102002.7   -558.83608 
  968000       967500   -7602.2641    661.24087   -8263.5049    4279.6033   -12543.108    107.11377   -714.52203   -275.20407   -662.56692   -170.09102    30.028695     178.6515      46.7237      46.7237      46.7237           90           90           90     102002.7   -550.76434 
  969000       968500   -7562.9374     670.2091   -8233.1465    4304.7582   -12537.905    108.56652   -656.23361   -729.86509   -788.73211    26.136923    49.122317    327.97733      46.7237      46.7237      46.7237           90           90           90     102002.7    -724.9436 
  970000       969500   -7548.7801    672.36109   -8221.1412    4311.7092    -12532.85    108.91512   -997.54799   -707.17995   -638.38387   -167.77325    74.841554   -27.225131      46.7237      46.7237      46.7237           90           90           90     102002.7   -781.03727 
  971000       970500   -7583.1915    675.93338   -8259.1249    4266.0688   -12525.194    109.49379   -1107.5696   -1092.2566   -810.48816    25.278632    54.998422   -122.85794      46.7237      46.7237      46.7237           90           90           90     102002.7   -1003.4381 
  972000       971500   -7543.9843    692.36865   -8236.3529    4320.7599   -12557.113    112.15612   -284.80181   -1205.8184   -456.32952    26.808389   -28.998092    242.28352      46.7237      46.7237      46.7237           90           90           90     102002.7   -648.98326 
  973000       972500   -7562.0878    665.85664   -8227.9445    4312.8255    -12540.77    107.86147   -1252.8291   -977.33077    -919.0719   -97.786947   -73.146951    154.22443      46.7237      46.7237      46.7237           90           90           90     102002.7   -1049.7439 
  974000       973500   -7572.0626    675.97359   -8248.0362    4280.2695   -12528.306    109.50031    -704.8167    -565.6968   -551.29031   -145.06171   -90.439984    142.98362      46.7237      46.7237      46.7237           90           90           90     102002.7   -607.26794 
  975000       974500    -7547.837     680.6512   -8228.4882    4319.6673   -12548.156    110.25803    -644.7066   -437.20883   -708.72643   -85.527364    64.394636   -12.111987      46.7237      46.7237      46.7237           90           90           90     102002.7   -596.88062 
  976000       975500   -7568.0254     693.7672   -8261.7926    4278.3386   -12540.131    112.38267   -903.48063   -501.13546   -903.13866   -358.11328    45.870596     57.01577      46.7237      46.7237      46.7237           90           90           90     102002.7   -769.25158 
  977000       976500   -7579.0673    661.70482   -8240.7721    4291.5672   -12532.339    107.18892   -439.01969   -470.10488   -611.09007   -161.85678     95.54862   -173.96438      46.7237      46.7237      46.7237           90           90           90     102002.7   -506.73821 
  978000       977500   -7592.7307    681.61974   -8274.3504    4271.8591   -12546.209    110.41492   -1051.9627   -587.86726   -601.82347   -219.24169    242.98675   -71.008636      46.7237      46.7237      46.7237           90           90           90     102002.7   -747.21782 
  979000       978500   -7556.1465    680.92022   -8237.0667    4313.5441   -12550.611     110.3016   -899.25517   -761.18899   -494.26306    206.47671    56.333454   -94.001096      46.7237      46.7237      46.7237           90           90           90     102002.7   -718.23574 
  980000       979500    -7561.469    693.37058   -8254.8395    4286.4164   -12541.256    112.31843   -812.01664   -1328.8862   -1018.9988    102.08459   -83.836815   -110.73146      46.7237      46.7237      46.7237           90           90           90     102002.7   -1053.3006 
  981000       980500   -7604.8309    672.79166   -8277.6226    4298.5268   -12576.149    108.98487   -931.45878   -667.54104   -893.06627    229.68252   -146.60151    33.691632      46.7237      46.7237      46.7237           90           90           90     102002.7    -830.6887 
  982000       981500   -7556.6036    687.56526   -8244.1689    4320.8469   -12565.016    111.37803   -986.66713   -842.54372   -832.21622    10.896074    28.118352   -223.77795      46.7237      46.7237      46.7237           90           90           90     102002.7   -887.14235 
  983000       982500   -7564.5705    694.37218   -8258.9427    4293.5338   -12552.476    112.48067   -487.99413    -522.0176   -674.67968    69.131006     88.22275    126.93416      46.7237      46.7237      46.7237           90           90           90     102002.7    -561.5638 
  984000       983500   -7565.1021    669.13463   -8234.2367     4291.535   -12525.772    108.39247   -717.82021   -284.12029   -554.58582    46.897104   -92.811001   -8.7353876      46.7237      46.7237      46.7237           90           90           90     102002.7   -518.84211 
  985000       984500   -7550.4745    699.59718   -8250.0717     4306.784   -12556.856    113.32707   -981.13187   -573.76631    -796.8241   -91.319269   -251.35635   -311.27968      46.7237      46.7237      46.7237           90           90           90     102002.7   -783.90743 
  986000       985500   -7546.0494     686.3974   -8232.4468     4307.682   -12540.129    111.18885   -733.14266   -665.59673   -877.35038   -93.158069    127.66689   -7.4682998      46.7237      46.7237      46.7237           90           90           90     102002.7   -758.69659 
  987000       986500   -7551.8961    682.20227   -8234.0984    4311.5396   -12545.638    110.50928   -1196.0563   -852.32326   -479.72667    4.4623362    109.20547    74.397569      46.7237      46.7237      46.7237           90           90           90     102002.7   -842.70207 
  988000       987500   -7587.5513    659.44116   -8246.9925    4301.3572    -12548.35    106.82223    -526.4922   -683.22596   -791.30468    174.12372    41.926551    23.354168      46.7237      46.7237      46.7237           90           90           90     102002.7   -667.00761 
  989000       988500   -7564.4476    675.46248   -8239.9101     4302.933   -12542.843    109.41751   -460.46586   -811.97246   -958.17386   -125.00534    65.524045    289.49399      46.7237      46.7237      46.7237           90           90           90     102002.7    -743.5374 
  990000       989500   -7549.4025    693.64557   -8243.0481    4304.1431   -12547.191    112.36297   -930.78005    -777.6452   -563.06464   -88.963346    147.30655    5.0682293      46.7237      46.7237      46.7237           90           90           90     102002.7   -757.16329 
  991000       990500   -7556.6035    687.71477   -8244.3183    4303.7525   -12548.071    111.40225   -694.76226   -858.96279   -1459.9456    67.318016   -48.734967    60.418173      46.7237      46.7237      46.7237           90           90           90     102002.7   -1004.5569 
  992000       991500   -7564.8844    669.96224   -8234.8466    4299.1272   -12533.974    108.52653   -1263.7864   -1201.3223   -763.60879    120.18263   -96.391498   -76.786474      46.7237      46.7237      46.7237           90           90           90     102002.7   -1076.2392 
  993000       992500   -7584.8805    672.94197   -8257.8225    4304.8293   -12562.652    109.00922   -1201.1242   -692.38308   -692.78444   -41.011308   -5.9711148    43.335628      46.7237      46.7237      46.7237           90           90           90     102002.7   -862.09725 
  994000       993500   -7555.9693    673.83076      -8229.8    4299.0744   -12528.874    109.15319   -756.45765   -543.56698   -1347.8369   -88.615653    23.008478   -27.707131      46.7237      46.7237      46.7237           90           90           90     102002.7    -882.6205 
  995000       994500   -7530.7518    717.43173   -8248.1836    4289.0947   -12537.278    116.21607    -757.7285   -733.77026   -1149.6486   -26.934727   -3.9014291     240.9887      46.7237      46.7237      46.7237           90           90           90     102002.7   -880.38246 
  996000       995500   -7571.3637    677.42029    -8248.784    4280.6231   -12529.407    109.73465   -754.49934   -811.85937   -492.81223    120.73679     102.6563    45.694752      46.7237      46.7237      46.7237           90           90           90     102002.7   -686.39031 
  997000       996500   -7541.3531    702.57934   -8243.9324    4304.4683   -12548.401    113.81014   -571.79885   -437.68325    -823.1551    45.498171    141.08189    265.75746      46.7237      46.7237      46.7237           90           90           90     102002.7   -610.87907 
  998000       997500   -7590.1385    688.07181   -8278.2103     4265.305   -12543.515    111.46008   -680.75218   -800.89714   -831.76797   -82.699168    192.45355   -12.837372      46.7237      46.7237      46.7237           90           90           90     102002.7    -771.1391 
  999000       998500   -7565.6015    675.87067   -8241.4722    4303.2276     -12544.7    109.48363   -863.71857   -633.12141   -849.72971   -63.242877    32.874273    157.67444      46.7237      46.7237      46.7237           90           90           90     102002.7    -782.1899 
 1000000       999500   -7571.5351    678.31647   -8249.8516    4275.8979    -12525.75    109.87983   -746.15263   -334.15527   -462.14309    170.43392   -24.301912   -101.99485      46.7237      46.7237      46.7237           90           90           90     102002.7   -514.15033 
 1000500      1000000   -7539.1388      679.419   -8218.5578    4301.3059   -12519.864    110.05842   -585.19158   -441.07651   -766.64509   -26.516526    59.224672    90.077355      46.7237      46.7237      46.7237           90           90           90     102002.7   -597.63773 
Loop time of 675.583 on 24 procs for 500000 steps with 2072 atoms

Performance: 63.945 ns/day, 0.375 hours/ns, 740.101 timesteps/s
99.5% CPU use with 24 MPI tasks x no OpenMP threads

MPI task timing breakdown:
Section |  min time  |  avg time  |  max time  |%varavg| %total
---------------------------------------------------------------
Pair    | 264.39     | 354.8      | 436.81     | 226.4 | 52.52
Bond    | 58.112     | 82.392     | 113.83     | 175.3 | 12.20
Neigh   | 3.3973     | 3.4219     | 3.4411     |   0.8 |  0.51
Comm    | 124.06     | 218.3      | 320.5      | 316.3 | 32.31
Output  | 0.39248    | 0.43266    | 0.4345     |   1.3 |  0.06
Modify  | 12.023     | 12.439     | 12.924     |   6.3 |  1.84
Other   |            | 3.798      |            |       |  0.56

Nlocal:    86.3333 ave 125 max 43 min
Histogram: 1 1 1 5 3 4 2 4 1 2
Nghost:    2320.08 ave 2439 max 2229 min
Histogram: 2 7 4 3 0 0 0 1 3 4
Neighs:    7638.04 ave 9947 max 4117 min
Histogram: 1 1 1 3 3 2 3 3 4 3

Total # of neighbors = 183313
Ave neighs/atom = 88.4715
Ave special neighs/atom = 5.55985
Neighbor list builds = 4379
Dangerous builds = 0
Total wall time: 0:21:13
