LAMMPS (30 Mar 2018)
Reading data file ...
  orthogonal box = (0 0 0) to (46.7237 46.7237 46.7237)
  2 by 2 by 4 MPI processor grid
  reading atoms ...
  3268 atoms
  scanning bonds ...
  5 = max bonds/atom
  scanning angles ...
  10 = max angles/atom
  scanning dihedrals ...
  32 = max dihedrals/atom
  scanning impropers ...
  3 = max impropers/atom
  reading bonds ...
  2064 bonds
  reading angles ...
  3696 angles
  reading dihedrals ...
  6240 dihedrals
  reading impropers ...
  1008 impropers
Finding 1-2 1-3 1-4 neighbors ...
  special bond factors lj:   0          0          0         
  special bond factors coul: 0          0          0         
  5 = max # of 1-2 neighbors
  8 = max # of 1-3 neighbors
  20 = max # of 1-4 neighbors
  19 = max # of special neighbors
Finding 1-2 1-3 1-4 neighbors ...
  special bond factors lj:   0          0          1         
  special bond factors coul: 1          1          1         
  5 = max # of 1-2 neighbors
  8 = max # of 1-3 neighbors
  19 = max # of special neighbors
WARNING: Using 'neigh_modify every 1 delay 0 check yes' setting during minimization (../min.cpp:168)
Neighbor list info ...
  update every 1 steps, delay 0 steps, check yes
  max neighbors/atom: 2000, page size: 100000
  master list distance cutoff = 16
  ghost atom cutoff = 16
  binsize = 8, bins = 6 6 6
  3 neighbor lists, perpetual/occasional/extra = 3 0 0
  (1) pair buck6d/coul/gauss/dsf, perpetual, skip from (3)
      attributes: half, newton on
      pair build: skip
      stencil: none
      bin: none
  (2) pair lj/cut, perpetual, skip from (3)
      attributes: half, newton on
      pair build: skip
      stencil: none
      bin: none
  (3) neighbor class addition, perpetual
      attributes: half, newton on
      pair build: half/bin/newton
      stencil: half/bin/3d/newton
      bin: standard
Setting up cg style minimization ...
  Unit style    : real
  Current step  : 0
WARNING: Inconsistent image flags (../domain.cpp:786)
Per MPI rank memory allocation (min/avg/max) = 23.02 | 23.48 | 23.92 Mbytes
Step Temp E_pair E_mol TotEng Press 
       0            0   -15816.028    6482.8914   -9333.1361    6237.3611 
     500            0   -16180.877      3781.77   -12399.107   -1683.6319 
Loop time of 4.94842 on 16 procs for 500 steps with 3268 atoms

99.9% CPU use with 16 MPI tasks x no OpenMP threads

Minimization stats:
  Stopping criterion = max force evaluations
  Energy initial, next-to-last, final = 
        -9333.13607689     -12399.0369796     -12399.1067171
  Force two-norm initial, final = 2575.07 12.346
  Force max component initial, final = 152.055 1.33346
  Final line search alpha, max atom move = 0.00998832 0.0133191
  Iterations, force evaluations = 500 1000

MPI task timing breakdown:
Section |  min time  |  avg time  |  max time  |%varavg| %total
---------------------------------------------------------------
Pair    | 2.5627     | 3.1289     | 3.6634     |  19.0 | 63.23
Bond    | 0.25917    | 0.36333    | 0.44972    |   9.0 |  7.34
Neigh   | 0.034335   | 0.034394   | 0.034462   |   0.0 |  0.70
Comm    | 0.76524    | 1.3723     | 1.9155     |  30.6 | 27.73
Output  | 0          | 0          | 0          |   0.0 |  0.00
Modify  | 0          | 0          | 0          |   0.0 |  0.00
Other   |            | 0.04948    |            |       |  1.00

Nlocal:    204.25 ave 234 max 166 min
Histogram: 1 1 1 1 1 4 3 1 0 3
Nghost:    4097.12 ave 4138 max 4071 min
Histogram: 3 0 4 2 3 1 1 0 0 2
Neighs:    11488.8 ave 15823 max 7067 min
Histogram: 2 2 0 2 2 1 2 1 3 1

Total # of neighbors = 183820
Ave neighs/atom = 56.2485
Ave special neighs/atom = 3.52509
Neighbor list builds = 9
Dangerous builds = 0
Neighbor list info ...
  update every 1 steps, delay 10 steps, check yes
  max neighbors/atom: 2000, page size: 100000
  master list distance cutoff = 16
  ghost atom cutoff = 16
  binsize = 8, bins = 6 6 6
  3 neighbor lists, perpetual/occasional/extra = 3 0 0
  (1) pair buck6d/coul/gauss/dsf, perpetual, skip from (3)
      attributes: half, newton on
      pair build: skip
      stencil: none
      bin: none
  (2) pair lj/cut, perpetual, skip from (3)
      attributes: half, newton on
      pair build: skip
      stencil: none
      bin: none
  (3) neighbor class addition, perpetual
      attributes: half, newton on
      pair build: half/bin/newton
      stencil: half/bin/3d/newton
      bin: standard
Setting up Verlet run ...
  Unit style    : real
  Current step  : 500
  Time step     : 1
WARNING: Inconsistent image flags (../domain.cpp:786)
Per MPI rank memory allocation (min/avg/max) = 22.67 | 22.74 | 22.8 Mbytes
Step Temp PotEng TotEng Press Volume Lx Ly Lz 
     500           91   -12399.107   -11512.921   -1286.4898     102002.7      46.7237      46.7237      46.7237 
    1000    75.398178   -11652.896   -10918.645   -65.823398     102002.7      46.7237      46.7237      46.7237 
    2000    92.777457   -11532.816   -10629.321    -110.0053     102002.7      46.7237      46.7237      46.7237 
    3000    92.599194   -11566.949    -10665.19    110.41577     102002.7      46.7237      46.7237      46.7237 
    4000    91.281004   -11579.001   -10690.079   -42.528598     102002.7      46.7237      46.7237      46.7237 
    5000    90.522546   -11540.548   -10659.011   -290.41917     102002.7      46.7237      46.7237      46.7237 
    6000     90.92789   -11544.619   -10659.136    147.65447     102002.7      46.7237      46.7237      46.7237 
    7000    89.784677   -11567.866   -10693.516   -72.662092     102002.7      46.7237      46.7237      46.7237 
    8000    91.963429   -11562.763   -10667.195   -188.39108     102002.7      46.7237      46.7237      46.7237 
    9000    90.894419   -11557.679   -10672.521   -154.08023     102002.7      46.7237      46.7237      46.7237 
   10000    90.425175   -11577.876   -10697.288   -307.52896     102002.7      46.7237      46.7237      46.7237 
   11000    91.870713   -11553.792   -10659.127   -59.266016     102002.7      46.7237      46.7237      46.7237 
   12000     91.61596   -11578.417   -10686.232    32.274565     102002.7      46.7237      46.7237      46.7237 
   13000    89.233382   -11580.625   -10711.643    19.892201     102002.7      46.7237      46.7237      46.7237 
   14000    91.031541   -11575.424   -10688.931    92.449976     102002.7      46.7237      46.7237      46.7237 
   15000    92.030644   -11563.895   -10667.672   -17.947163     102002.7      46.7237      46.7237      46.7237 
   16000    90.301691   -11557.885     -10678.5    38.145508     102002.7      46.7237      46.7237      46.7237 
   17000    86.078564   -11580.994   -10742.735   -196.86259     102002.7      46.7237      46.7237      46.7237 
   18000    90.921996   -11584.616    -10699.19   -405.38252     102002.7      46.7237      46.7237      46.7237 
   19000    92.309076   -11590.867   -10691.933   -54.640979     102002.7      46.7237      46.7237      46.7237 
   20000    90.462678   -11567.281   -10686.328   -95.695289     102002.7      46.7237      46.7237      46.7237 
   21000    91.827738   -11571.042   -10676.795   -68.882406     102002.7      46.7237      46.7237      46.7237 
   22000    92.148408   -11594.101   -10696.731   -9.3194875     102002.7      46.7237      46.7237      46.7237 
   23000    87.570973    -11561.31   -10708.517   -42.712162     102002.7      46.7237      46.7237      46.7237 
   24000    87.432278   -11567.918   -10716.475   -142.06342     102002.7      46.7237      46.7237      46.7237 
   25000    89.549027    -11580.75   -10708.694     128.5982     102002.7      46.7237      46.7237      46.7237 
   26000    90.155004   -11542.533   -10664.576   -265.66383     102002.7      46.7237      46.7237      46.7237 
   27000      88.4421   -11573.835   -10712.559   -126.82367     102002.7      46.7237      46.7237      46.7237 
   28000    89.769784   -11581.274   -10707.068   -192.18196     102002.7      46.7237      46.7237      46.7237 
   29000    90.788741   -11575.192   -10691.063    -205.4684     102002.7      46.7237      46.7237      46.7237 
   30000    91.490296   -11588.486   -10697.526    57.717594     102002.7      46.7237      46.7237      46.7237 
   31000     90.70003     -11557.2   -10673.935    251.66329     102002.7      46.7237      46.7237      46.7237 
   32000    89.724829   -11579.021   -10705.253   -202.32364     102002.7      46.7237      46.7237      46.7237 
   33000    92.546523    -11545.92   -10644.674    126.20582     102002.7      46.7237      46.7237      46.7237 
   34000    92.192993   -11581.845   -10684.041    75.441796     102002.7      46.7237      46.7237      46.7237 
   35000    93.668648   -11579.417   -10667.243    190.93882     102002.7      46.7237      46.7237      46.7237 
   36000    93.117841   -11563.384   -10656.574    196.98039     102002.7      46.7237      46.7237      46.7237 
   37000    90.189727   -11584.379   -10706.084     132.1377     102002.7      46.7237      46.7237      46.7237 
   38000    91.181976   -11567.258     -10679.3    8.2963054     102002.7      46.7237      46.7237      46.7237 
   39000    89.702119   -11587.628   -10714.081    122.24575     102002.7      46.7237      46.7237      46.7237 
   40000    94.156061     -11570.9   -10653.979   -221.66231     102002.7      46.7237      46.7237      46.7237 
   41000    90.535773   -11587.372   -10705.707   -102.68076     102002.7      46.7237      46.7237      46.7237 
   42000    88.254482   -11587.104   -10727.655   -28.934014     102002.7      46.7237      46.7237      46.7237 
   43000    92.291874   -11556.159   -10657.392   -179.84172     102002.7      46.7237      46.7237      46.7237 
   44000    90.245735   -11585.881   -10707.041    192.62049     102002.7      46.7237      46.7237      46.7237 
   45000    92.249425   -11557.453     -10659.1    279.20256     102002.7      46.7237      46.7237      46.7237 
   46000    91.862376   -11595.101   -10700.517    310.94667     102002.7      46.7237      46.7237      46.7237 
   47000    87.061482   -11604.846   -10757.015    357.83246     102002.7      46.7237      46.7237      46.7237 
   48000    90.440466    -11576.39   -10695.653    112.14879     102002.7      46.7237      46.7237      46.7237 
   49000    90.098084   -11579.124   -10701.721    39.828541     102002.7      46.7237      46.7237      46.7237 
   50000     91.32937   -11576.551   -10687.158    32.611622     102002.7      46.7237      46.7237      46.7237 
   51000    88.240106   -11579.699    -10720.39   -43.247493     102002.7      46.7237      46.7237      46.7237 
   52000    90.481712    -11577.34   -10696.201   -115.06838     102002.7      46.7237      46.7237      46.7237 
   53000    90.137993   -11594.743   -10716.952    74.089188     102002.7      46.7237      46.7237      46.7237 
   54000    90.832344   -11600.593    -10716.04   -77.297475     102002.7      46.7237      46.7237      46.7237 
   55000    91.948783   -11579.327   -10683.902   -42.261671     102002.7      46.7237      46.7237      46.7237 
   56000    90.775617   -11580.085   -10696.084    515.21504     102002.7      46.7237      46.7237      46.7237 
   57000    92.180937    -11591.68   -10693.994    76.046431     102002.7      46.7237      46.7237      46.7237 
   58000    91.068853   -11564.828   -10677.971    207.22335     102002.7      46.7237      46.7237      46.7237 
   59000    91.133263   -11600.348   -10712.865    6.7851107     102002.7      46.7237      46.7237      46.7237 
   60000    92.764874    -11577.31   -10673.937    -92.83555     102002.7      46.7237      46.7237      46.7237 
   61000    88.078441   -11590.034     -10732.3   -140.32523     102002.7      46.7237      46.7237      46.7237 
   62000    90.982371   -11585.373   -10699.359   -124.66218     102002.7      46.7237      46.7237      46.7237 
   63000    91.757668   -11577.721   -10684.156   -210.55749     102002.7      46.7237      46.7237      46.7237 
   64000    90.886624   -11589.052   -10703.971    -145.0415     102002.7      46.7237      46.7237      46.7237 
   65000    91.956298   -11571.188    -10675.69    48.982691     102002.7      46.7237      46.7237      46.7237 
   66000    89.071252    -11574.08   -10706.677    216.21355     102002.7      46.7237      46.7237      46.7237 
   67000    91.364666   -11599.968   -10710.231    149.69171     102002.7      46.7237      46.7237      46.7237 
   68000    90.434763    -11569.83   -10689.148    -45.36064     102002.7      46.7237      46.7237      46.7237 
   69000    92.417931   -11590.943   -10690.949   -84.791674     102002.7      46.7237      46.7237      46.7237 
   70000    92.193076   -11603.356   -10705.552   -119.13821     102002.7      46.7237      46.7237      46.7237 
   71000    89.699733   -11583.901   -10710.377    -201.1703     102002.7      46.7237      46.7237      46.7237 
   72000    91.529889   -11574.063   -10682.717   -67.542066     102002.7      46.7237      46.7237      46.7237 
   73000    90.855902   -11586.577   -10701.794    117.53232     102002.7      46.7237      46.7237      46.7237 
   74000    91.942093   -11570.039   -10674.679   -178.16414     102002.7      46.7237      46.7237      46.7237 
   75000    90.668752   -11588.734   -10705.774    99.209886     102002.7      46.7237      46.7237      46.7237 
   76000    91.596399   -11565.221   -10673.227   -118.75462     102002.7      46.7237      46.7237      46.7237 
   77000    92.056641   -11585.976     -10689.5   -143.59214     102002.7      46.7237      46.7237      46.7237 
   78000    89.929079   -11596.703   -10720.946   -167.51472     102002.7      46.7237      46.7237      46.7237 
   79000    90.757821   -11567.723   -10683.895   -105.40381     102002.7      46.7237      46.7237      46.7237 
   80000    93.517364   -11569.819   -10659.118   -211.01813     102002.7      46.7237      46.7237      46.7237 
   81000    92.662977   -11596.748   -10694.368    67.778441     102002.7      46.7237      46.7237      46.7237 
   82000    90.071635   -11573.024   -10695.878   -1.6492714     102002.7      46.7237      46.7237      46.7237 
   83000    90.994754   -11584.865   -10698.731    262.40988     102002.7      46.7237      46.7237      46.7237 
   84000    88.329176   -11548.062   -10687.886    333.85961     102002.7      46.7237      46.7237      46.7237 
   85000    90.433653   -11583.651    -10702.98   -138.72959     102002.7      46.7237      46.7237      46.7237 
   86000    91.907959   -11580.333   -10685.305    278.58431     102002.7      46.7237      46.7237      46.7237 
   87000    89.013193    -11570.32   -10703.482   -77.183282     102002.7      46.7237      46.7237      46.7237 
   88000    88.986978   -11591.603   -10725.021   -83.424174     102002.7      46.7237      46.7237      46.7237 
   89000    91.364086   -11579.937   -10690.206    31.752724     102002.7      46.7237      46.7237      46.7237 
   90000    91.777455   -11584.088   -10690.331   -142.80824     102002.7      46.7237      46.7237      46.7237 
   91000    92.211957   -11584.541   -10686.553   -7.1818709     102002.7      46.7237      46.7237      46.7237 
   92000    90.890185   -11562.899   -10677.783    162.91936     102002.7      46.7237      46.7237      46.7237 
   93000    90.551934   -11580.138   -10698.315    98.532282     102002.7      46.7237      46.7237      46.7237 
   94000    92.671651    -11599.96   -10697.495   -159.07442     102002.7      46.7237      46.7237      46.7237 
   95000    91.566084   -11576.128    -10684.43    304.05661     102002.7      46.7237      46.7237      46.7237 
   96000    93.171497   -11602.328   -10694.996   -80.547041     102002.7      46.7237      46.7237      46.7237 
   97000    91.625966   -11574.916   -10682.635    74.318895     102002.7      46.7237      46.7237      46.7237 
   98000    90.283747   -11598.465   -10719.254   -220.34706     102002.7      46.7237      46.7237      46.7237 
   99000    91.070498   -11598.721   -10711.849     229.0662     102002.7      46.7237      46.7237      46.7237 
  100000    89.667212   -11579.085   -10705.878    27.352897     102002.7      46.7237      46.7237      46.7237 
  101000    93.685783   -11582.642   -10670.301    46.134069     102002.7      46.7237      46.7237      46.7237 
  102000    92.248875   -11585.782   -10687.434   -95.434979     102002.7      46.7237      46.7237      46.7237 
  103000    86.984192   -11581.256   -10734.177   -208.26314     102002.7      46.7237      46.7237      46.7237 
  104000    90.533008   -11580.475   -10698.836    34.609182     102002.7      46.7237      46.7237      46.7237 
  105000    90.796461   -11600.539   -10716.335    109.00708     102002.7      46.7237      46.7237      46.7237 
  106000    90.892356   -11575.726   -10690.588    92.125679     102002.7      46.7237      46.7237      46.7237 
  107000    91.778136   -11597.895   -10704.131   -109.32881     102002.7      46.7237      46.7237      46.7237 
  108000    89.413264    -11582.59   -10711.856    -142.7594     102002.7      46.7237      46.7237      46.7237 
  109000    87.691379   -11581.951   -10727.986   -2.9258503     102002.7      46.7237      46.7237      46.7237 
  110000    90.794227   -11570.606   -10686.424     67.54471     102002.7      46.7237      46.7237      46.7237 
  111000    90.636784   -11591.097   -10708.448   -118.17494     102002.7      46.7237      46.7237      46.7237 
  112000    90.905948    -11573.67     -10688.4    139.38864     102002.7      46.7237      46.7237      46.7237 
  113000    89.187134   -11581.497   -10712.966    353.22079     102002.7      46.7237      46.7237      46.7237 
  114000    91.543003   -11601.477   -10710.003    92.593322     102002.7      46.7237      46.7237      46.7237 
  115000    89.594368    -11580.57   -10708.073    150.60813     102002.7      46.7237      46.7237      46.7237 
  116000    91.249501   -11593.184   -10704.568   -122.41306     102002.7      46.7237      46.7237      46.7237 
  117000    91.448244   -11605.924   -10715.373     6.517666     102002.7      46.7237      46.7237      46.7237 
  118000    91.826892   -11613.297   -10719.059    68.717276     102002.7      46.7237      46.7237      46.7237 
  119000    89.505636    -11600.18   -10728.546    58.511667     102002.7      46.7237      46.7237      46.7237 
  120000    90.015806   -11581.766   -10705.165   -89.602475     102002.7      46.7237      46.7237      46.7237 
  121000    90.509031   -11587.598   -10706.193    -89.45813     102002.7      46.7237      46.7237      46.7237 
  122000    89.597153   -11597.545    -10725.02    14.764385     102002.7      46.7237      46.7237      46.7237 
  123000    90.796852   -11605.315   -10721.107   -120.35274     102002.7      46.7237      46.7237      46.7237 
  124000    90.796497   -11567.822   -10683.618     118.4495     102002.7      46.7237      46.7237      46.7237 
  125000    91.498625   -11582.706   -10691.665   -30.993188     102002.7      46.7237      46.7237      46.7237 
  126000    88.230246   -11584.983   -10725.769    74.793576     102002.7      46.7237      46.7237      46.7237 
  127000    87.531428   -11585.284   -10732.876    69.427955     102002.7      46.7237      46.7237      46.7237 
  128000    91.981103   -11587.314   -10691.574   -248.21014     102002.7      46.7237      46.7237      46.7237 
  129000    90.331727   -11591.239   -10711.561     59.65331     102002.7      46.7237      46.7237      46.7237 
  130000    92.883692   -11633.115   -10728.585    131.87265     102002.7      46.7237      46.7237      46.7237 
  131000    91.573731   -11606.884   -10715.111   -18.769097     102002.7      46.7237      46.7237      46.7237 
  132000    91.931482   -11594.552   -10699.295    63.554359     102002.7      46.7237      46.7237      46.7237 
  133000    90.220318   -11630.583    -10751.99    -56.74758     102002.7      46.7237      46.7237      46.7237 
  134000    91.900425   -11604.161   -10709.207    -3.333667     102002.7      46.7237      46.7237      46.7237 
  135000    89.927535   -11573.636   -10697.894    120.62118     102002.7      46.7237      46.7237      46.7237 
  136000    89.939238   -11599.191   -10723.336   -101.30142     102002.7      46.7237      46.7237      46.7237 
  137000    91.795131   -11570.524   -10676.595 -0.071409098     102002.7      46.7237      46.7237      46.7237 
  138000    90.729419   -11604.928   -10721.377   -181.72252     102002.7      46.7237      46.7237      46.7237 
  139000    92.678361   -11625.687   -10723.157   -94.280716     102002.7      46.7237      46.7237      46.7237 
  140000    90.892595   -11581.587   -10696.447    68.589203     102002.7      46.7237      46.7237      46.7237 
  141000    89.445556   -11623.795   -10752.747    45.743698     102002.7      46.7237      46.7237      46.7237 
  142000    91.452726   -11613.846   -10723.251    195.00675     102002.7      46.7237      46.7237      46.7237 
  143000    92.536615   -11606.851   -10705.702   -174.30977     102002.7      46.7237      46.7237      46.7237 
  144000     90.61666   -11615.189   -10732.736    101.53326     102002.7      46.7237      46.7237      46.7237 
  145000    92.373862   -11588.045    -10688.48    71.293478     102002.7      46.7237      46.7237      46.7237 
  146000    90.266263   -11619.073   -10740.032   -19.535103     102002.7      46.7237      46.7237      46.7237 
  147000    92.613492   -11593.722   -10691.824   -189.86722     102002.7      46.7237      46.7237      46.7237 
  148000    89.733017   -11632.782   -10758.934   -37.016591     102002.7      46.7237      46.7237      46.7237 
  149000    89.886527    -11606.89   -10731.547     92.74798     102002.7      46.7237      46.7237      46.7237 
  150000    90.071715   -11568.757   -10691.611      23.7245     102002.7      46.7237      46.7237      46.7237 
  151000    92.386407    -11594.88   -10695.193    45.230404     102002.7      46.7237      46.7237      46.7237 
  152000    90.374111   -11607.732   -10727.641   -89.257308     102002.7      46.7237      46.7237      46.7237 
  153000    89.883648   -11600.375    -10725.06    97.211844     102002.7      46.7237      46.7237      46.7237 
  154000    90.567378   -11626.283    -10744.31   -46.865527     102002.7      46.7237      46.7237      46.7237 
  155000    91.610226   -11607.636   -10715.507    77.744193     102002.7      46.7237      46.7237      46.7237 
  156000    92.079772   -11590.275   -10693.574   -46.533936     102002.7      46.7237      46.7237      46.7237 
  157000    90.117995   -11586.477    -10708.88    372.70302     102002.7      46.7237      46.7237      46.7237 
  158000    91.226786   -11590.013   -10701.618    35.361681     102002.7      46.7237      46.7237      46.7237 
  159000    91.291442   -11616.812   -10727.788    -309.1254     102002.7      46.7237      46.7237      46.7237 
  160000    93.290241   -11615.625   -10707.136   -72.688714     102002.7      46.7237      46.7237      46.7237 
  161000     92.55843    -11600.67   -10699.308   -192.56772     102002.7      46.7237      46.7237      46.7237 
  162000    89.496179   -11611.886   -10740.345    61.346918     102002.7      46.7237      46.7237      46.7237 
  163000    89.656434    -11600.09   -10726.988   -22.151716     102002.7      46.7237      46.7237      46.7237 
  164000    91.368292   -11607.835   -10718.063   -312.98733     102002.7      46.7237      46.7237      46.7237 
  165000     91.15577   -11580.637   -10692.934      1.75702     102002.7      46.7237      46.7237      46.7237 
  166000    91.476674   -11597.213   -10706.386    97.664072     102002.7      46.7237      46.7237      46.7237 
  167000    92.905539   -11597.761   -10693.018   -144.47446     102002.7      46.7237      46.7237      46.7237 
  168000    90.404991   -11600.749   -10720.358    119.15792     102002.7      46.7237      46.7237      46.7237 
  169000    93.185329   -11612.216   -10704.749    101.68289     102002.7      46.7237      46.7237      46.7237 
  170000    91.887306   -11556.647    -10661.82   -254.35158     102002.7      46.7237      46.7237      46.7237 
  171000    89.577453   -11597.083   -10724.751   -167.32784     102002.7      46.7237      46.7237      46.7237 
  172000    89.434745   -11596.334   -10725.391   -312.30978     102002.7      46.7237      46.7237      46.7237 
  173000    90.922119   -11595.317    -10709.89   -166.48541     102002.7      46.7237      46.7237      46.7237 
  174000    91.107836   -11586.886    -10699.65    21.357658     102002.7      46.7237      46.7237      46.7237 
  175000    90.259326   -11571.564   -10692.591   -79.427578     102002.7      46.7237      46.7237      46.7237 
  176000    90.183836   -11610.122   -10731.884   -52.143492     102002.7      46.7237      46.7237      46.7237 
  177000    87.769537   -11587.054   -10732.328   -44.625502     102002.7      46.7237      46.7237      46.7237 
  178000    90.550383     -11577.6   -10695.792   -1.7502756     102002.7      46.7237      46.7237      46.7237 
  179000    89.685705   -11596.161   -10722.774   -18.612356     102002.7      46.7237      46.7237      46.7237 
  180000    92.649294   -11605.331   -10703.084   -136.24747     102002.7      46.7237      46.7237      46.7237 
  181000    90.663707   -11584.097   -10701.186   -137.66031     102002.7      46.7237      46.7237      46.7237 
  182000    90.322826   -11584.516   -10704.925   -23.915526     102002.7      46.7237      46.7237      46.7237 
  183000    92.930915   -11613.251   -10708.261   -92.840788     102002.7      46.7237      46.7237      46.7237 
  184000    90.766482   -11584.104   -10700.192   -119.66877     102002.7      46.7237      46.7237      46.7237 
  185000    88.827944   -11592.332   -10727.298    139.47056     102002.7      46.7237      46.7237      46.7237 
  186000    90.180333   -11591.492   -10713.289   -64.495123     102002.7      46.7237      46.7237      46.7237 
  187000    90.686874   -11594.688   -10711.551    71.963788     102002.7      46.7237      46.7237      46.7237 
  188000    90.856742   -11579.782   -10694.991    213.43354     102002.7      46.7237      46.7237      46.7237 
  189000    90.514569   -11593.177   -10711.718   -52.251489     102002.7      46.7237      46.7237      46.7237 
  190000    90.449094   -11575.917   -10695.096    121.10089     102002.7      46.7237      46.7237      46.7237 
  191000    89.517828   -11576.394   -10704.642    58.670974     102002.7      46.7237      46.7237      46.7237 
  192000    91.365568   -11602.031   -10712.285   -28.662526     102002.7      46.7237      46.7237      46.7237 
  193000    90.585176   -11571.162   -10689.016   -13.524737     102002.7      46.7237      46.7237      46.7237 
  194000    90.842932   -11584.016   -10699.359    395.42669     102002.7      46.7237      46.7237      46.7237 
  195000    92.299788   -11567.976   -10669.133    127.39044     102002.7      46.7237      46.7237      46.7237 
  196000    92.333134   -11612.739   -10713.571   -41.312114     102002.7      46.7237      46.7237      46.7237 
  197000    89.811938    -11587.63   -10713.014   -106.24298     102002.7      46.7237      46.7237      46.7237 
  198000    90.369053   -11582.303   -10702.261   -179.28958     102002.7      46.7237      46.7237      46.7237 
  199000    91.006063   -11603.449   -10717.204   -61.381417     102002.7      46.7237      46.7237      46.7237 
  200000    89.641742    -11608.57   -10735.612   -130.78226     102002.7      46.7237      46.7237      46.7237 
  201000    90.288173   -11594.136   -10714.882    -38.44434     102002.7      46.7237      46.7237      46.7237 
  202000    90.960509   -11584.175   -10698.374   -48.927794     102002.7      46.7237      46.7237      46.7237 
  203000    90.463255   -11561.663   -10680.704   -115.20113     102002.7      46.7237      46.7237      46.7237 
  204000    91.185206   -11596.992   -10709.003    26.744664     102002.7      46.7237      46.7237      46.7237 
  205000    92.869637   -11608.036   -10703.643    86.537873     102002.7      46.7237      46.7237      46.7237 
  206000    88.992291   -11606.816   -10740.182    11.427624     102002.7      46.7237      46.7237      46.7237 
  207000    90.936445   -11595.685   -10710.118   -66.746931     102002.7      46.7237      46.7237      46.7237 
  208000    91.861687   -11605.837    -10711.26   -164.54319     102002.7      46.7237      46.7237      46.7237 
  209000    91.365766   -11595.518    -10705.77   -89.161278     102002.7      46.7237      46.7237      46.7237 
  210000    90.985738   -11608.827    -10722.78    38.104595     102002.7      46.7237      46.7237      46.7237 
  211000    90.339416   -11613.577   -10733.824    203.07622     102002.7      46.7237      46.7237      46.7237 
  212000    89.669796   -11588.063   -10714.831    245.28799     102002.7      46.7237      46.7237      46.7237 
  213000    90.269113   -11585.313   -10706.244     205.7279     102002.7      46.7237      46.7237      46.7237 
  214000    91.111311   -11599.172   -10711.903    204.28325     102002.7      46.7237      46.7237      46.7237 
  215000    91.721406   -11615.424   -10722.213    17.270589     102002.7      46.7237      46.7237      46.7237 
  216000    92.102957   -11612.494   -10715.568    102.20493     102002.7      46.7237      46.7237      46.7237 
  217000    89.439137   -11599.562   -10728.576    141.14039     102002.7      46.7237      46.7237      46.7237 
  218000    89.255666    -11603.05   -10733.851   -403.22798     102002.7      46.7237      46.7237      46.7237 
  219000    91.214479   -11599.089   -10710.815   -62.153378     102002.7      46.7237      46.7237      46.7237 
  220000    91.098484   -11606.101   -10718.956   -123.14919     102002.7      46.7237      46.7237      46.7237 
  221000    89.639749   -11580.338   -10707.398      106.387     102002.7      46.7237      46.7237      46.7237 
  222000    90.905584   -11582.542   -10697.275    67.314005     102002.7      46.7237      46.7237      46.7237 
  223000     90.45608   -11607.043   -10726.154    -86.89213     102002.7      46.7237      46.7237      46.7237 
  224000      93.0914   -11600.543    -10693.99    70.652037     102002.7      46.7237      46.7237      46.7237 
  225000    88.216383   -11602.179   -10743.101   -181.91505     102002.7      46.7237      46.7237      46.7237 
  226000    92.364584   -11608.201   -10708.727    70.270312     102002.7      46.7237      46.7237      46.7237 
  227000    89.767373   -11597.534   -10723.351   -57.681262     102002.7      46.7237      46.7237      46.7237 
  228000    94.276299   -11604.128   -10686.036    42.236674     102002.7      46.7237      46.7237      46.7237 
  229000    91.818834   -11600.745   -10706.586   -53.687553     102002.7      46.7237      46.7237      46.7237 
  230000    92.097588   -11608.249   -10711.375   -159.79569     102002.7      46.7237      46.7237      46.7237 
  231000    90.344783   -11587.175    -10707.37    221.25863     102002.7      46.7237      46.7237      46.7237 
  232000     92.03841   -11583.543   -10687.245   -139.90838     102002.7      46.7237      46.7237      46.7237 
  233000    91.136747   -11603.618   -10716.101   -139.74987     102002.7      46.7237      46.7237      46.7237 
  234000    89.748379   -11599.889   -10725.892    250.20194     102002.7      46.7237      46.7237      46.7237 
  235000    91.866913   -11567.387   -10672.759    75.353273     102002.7      46.7237      46.7237      46.7237 
  236000    91.377791   -11604.539   -10714.674    168.27169     102002.7      46.7237      46.7237      46.7237 
  237000    92.080751    -11582.74   -10686.029    189.97072     102002.7      46.7237      46.7237      46.7237 
  238000      91.8522   -11579.371   -10684.886   -89.018866     102002.7      46.7237      46.7237      46.7237 
  239000    91.460872   -11592.818   -10702.144    139.57232     102002.7      46.7237      46.7237      46.7237 
  240000    90.616874   -11571.372   -10688.917   -163.03987     102002.7      46.7237      46.7237      46.7237 
  241000    89.893506   -11588.819   -10713.408    42.336905     102002.7      46.7237      46.7237      46.7237 
  242000    91.779533   -11574.382   -10680.605   -28.932346     102002.7      46.7237      46.7237      46.7237 
  243000    90.655211   -11587.265   -10704.437   -274.35688     102002.7      46.7237      46.7237      46.7237 
  244000    88.817364   -11596.389   -10731.458   -133.86387     102002.7      46.7237      46.7237      46.7237 
  245000     91.29804   -11601.499   -10712.411    24.387231     102002.7      46.7237      46.7237      46.7237 
  246000    90.842475   -11593.553   -10708.901   -16.299919     102002.7      46.7237      46.7237      46.7237 
  247000    89.268664   -11575.162   -10705.837   -53.777515     102002.7      46.7237      46.7237      46.7237 
  248000    89.926958   -11575.221   -10699.485    82.016048     102002.7      46.7237      46.7237      46.7237 
  249000    92.366166   -11592.474   -10692.984   -57.730541     102002.7      46.7237      46.7237      46.7237 
  250000    92.373721   -11613.142   -10713.579   -19.464146     102002.7      46.7237      46.7237      46.7237 
  251000    92.644336    -11590.33   -10688.131    123.46967     102002.7      46.7237      46.7237      46.7237 
  252000    89.458185   -11590.119   -10718.948   -364.52191     102002.7      46.7237      46.7237      46.7237 
  253000    93.907108   -11609.232   -10694.736   -48.250758     102002.7      46.7237      46.7237      46.7237 
  254000    91.462451   -11612.143   -10721.454   -271.52442     102002.7      46.7237      46.7237      46.7237 
  255000    90.358205    -11592.34   -10712.404   -402.92586     102002.7      46.7237      46.7237      46.7237 
  256000    92.357266   -11578.618   -10679.215   -120.24898     102002.7      46.7237      46.7237      46.7237 
  257000     91.18269   -11580.676   -10692.711     35.26932     102002.7      46.7237      46.7237      46.7237 
  258000    90.545494   -11602.283   -10720.524    118.41887     102002.7      46.7237      46.7237      46.7237 
  259000    88.712013    -11559.48   -10695.576   -216.93664     102002.7      46.7237      46.7237      46.7237 
  260000    89.624477   -11578.647   -10705.856   -82.833284     102002.7      46.7237      46.7237      46.7237 
  261000    90.300853   -11605.462   -10726.084    198.28264     102002.7      46.7237      46.7237      46.7237 
  262000    90.587546   -11608.294   -10726.124    92.374952     102002.7      46.7237      46.7237      46.7237 
  263000    88.056379   -11577.342   -10719.822    25.576887     102002.7      46.7237      46.7237      46.7237 
  264000    89.796751   -11585.741   -10711.273    42.134146     102002.7      46.7237      46.7237      46.7237 
  265000    90.832717   -11579.769   -10695.213    10.942699     102002.7      46.7237      46.7237      46.7237 
  266000    90.101645   -11602.751   -10725.314   -209.37688     102002.7      46.7237      46.7237      46.7237 
  267000    91.577583   -11586.099   -10694.289   -138.07645     102002.7      46.7237      46.7237      46.7237 
  268000    90.347853   -11596.962   -10717.127    50.516044     102002.7      46.7237      46.7237      46.7237 
  269000    89.092226   -11594.284   -10726.677   -161.20144     102002.7      46.7237      46.7237      46.7237 
  270000    90.423862     -11594.1   -10713.524     58.15158     102002.7      46.7237      46.7237      46.7237 
  271000    90.957299   -11586.446   -10700.676    -56.93521     102002.7      46.7237      46.7237      46.7237 
  272000    91.188836   -11591.925   -10703.901    26.872735     102002.7      46.7237      46.7237      46.7237 
  273000    91.024926   -11597.499    -10711.07    160.79538     102002.7      46.7237      46.7237      46.7237 
  274000    91.728435   -11596.521   -10703.241    65.303883     102002.7      46.7237      46.7237      46.7237 
  275000    91.501055   -11600.124   -10709.059    -76.73994     102002.7      46.7237      46.7237      46.7237 
  276000    92.805928   -11614.245   -10710.473    119.25121     102002.7      46.7237      46.7237      46.7237 
  277000    92.357775   -11596.159    -10696.75     -67.1611     102002.7      46.7237      46.7237      46.7237 
  278000    91.737003   -11598.707   -10705.344   -19.581043     102002.7      46.7237      46.7237      46.7237 
  279000    90.567566   -11597.269   -10715.294   -196.56238     102002.7      46.7237      46.7237      46.7237 
  280000    89.794113   -11593.765   -10719.323     -192.646     102002.7      46.7237      46.7237      46.7237 
  281000    91.300437   -11607.569   -10718.458    293.48108     102002.7      46.7237      46.7237      46.7237 
  282000    92.726149   -11590.227   -10687.231    162.44301     102002.7      46.7237      46.7237      46.7237 
  283000    92.387225   -11586.897   -10687.202    63.737774     102002.7      46.7237      46.7237      46.7237 
  284000     92.42411   -11594.069   -10694.015     108.1246     102002.7      46.7237      46.7237      46.7237 
  285000    89.829043   -11593.663   -10718.881   -38.599434     102002.7      46.7237      46.7237      46.7237 
  286000    91.560851   -11612.069   -10720.421   -184.39713     102002.7      46.7237      46.7237      46.7237 
  287000    91.994107   -11604.974   -10709.108   -172.69337     102002.7      46.7237      46.7237      46.7237 
  288000    89.204367   -11609.023   -10740.324     -176.268     102002.7      46.7237      46.7237      46.7237 
  289000    88.158741   -11612.441   -10753.924   -130.15461     102002.7      46.7237      46.7237      46.7237 
  290000    91.982321   -11605.151   -10709.399   -190.41273     102002.7      46.7237      46.7237      46.7237 
  291000    90.017363   -11590.471   -10713.854   -72.974356     102002.7      46.7237      46.7237      46.7237 
  292000    90.890404   -11630.998   -10745.879   -65.804934     102002.7      46.7237      46.7237      46.7237 
  293000    90.002149   -11578.451   -10701.983    137.74458     102002.7      46.7237      46.7237      46.7237 
  294000    90.828148   -11587.317   -10702.805    85.793278     102002.7      46.7237      46.7237      46.7237 
  295000    90.159009   -11613.364   -10735.368    253.01912     102002.7      46.7237      46.7237      46.7237 
  296000    90.170943   -11616.926   -10738.813    41.564814     102002.7      46.7237      46.7237      46.7237 
  297000    93.156575   -11595.026   -10687.839   -123.63423     102002.7      46.7237      46.7237      46.7237 
  298000    91.908655   -11598.962   -10703.927   -313.23813     102002.7      46.7237      46.7237      46.7237 
  299000    90.072091   -11600.086   -10722.936    11.419785     102002.7      46.7237      46.7237      46.7237 
  300000    89.821826    -11600.19   -10725.477   -97.442532     102002.7      46.7237      46.7237      46.7237 
  301000    90.783481   -11602.407    -10718.33   -55.203243     102002.7      46.7237      46.7237      46.7237 
  302000    91.520955   -11604.501   -10713.242   -112.81397     102002.7      46.7237      46.7237      46.7237 
  303000    91.184348   -11615.665   -10727.684   -43.592608     102002.7      46.7237      46.7237      46.7237 
  304000    88.644974   -11597.975   -10734.723    169.75068     102002.7      46.7237      46.7237      46.7237 
  305000    91.906442   -11603.148   -10708.135    5.6511824     102002.7      46.7237      46.7237      46.7237 
  306000    90.751905   -11610.999   -10727.229    176.81357     102002.7      46.7237      46.7237      46.7237 
  307000    90.343634    -11588.32   -10708.526    -149.9869     102002.7      46.7237      46.7237      46.7237 
  308000    90.295482   -11625.348   -10746.023   -137.88917     102002.7      46.7237      46.7237      46.7237 
  309000    90.371915   -11586.739   -10706.669    61.357014     102002.7      46.7237      46.7237      46.7237 
  310000    89.769986   -11625.721   -10751.514   -237.32906     102002.7      46.7237      46.7237      46.7237 
  311000    90.751609   -11599.715   -10715.948    85.880127     102002.7      46.7237      46.7237      46.7237 
  312000    91.873381   -11600.856   -10706.165   -119.71484     102002.7      46.7237      46.7237      46.7237 
  313000     89.51356   -11605.215   -10733.505   -109.10988     102002.7      46.7237      46.7237      46.7237 
  314000    88.761021   -11598.266   -10733.884    167.03117     102002.7      46.7237      46.7237      46.7237 
  315000    92.868459   -11617.264   -10712.883     2.254826     102002.7      46.7237      46.7237      46.7237 
  316000    91.045406   -11582.517   -10695.889   -143.89851     102002.7      46.7237      46.7237      46.7237 
  317000    91.698465   -11624.178    -10731.19    -137.9086     102002.7      46.7237      46.7237      46.7237 
  318000    91.637964     -11584.6   -10692.201   -164.97453     102002.7      46.7237      46.7237      46.7237 
  319000    87.704262   -11605.001    -10750.91   -266.08432     102002.7      46.7237      46.7237      46.7237 
  320000    93.959532   -11613.591   -10698.584   -126.03303     102002.7      46.7237      46.7237      46.7237 
  321000    91.720999    -11585.53   -10692.323    96.421716     102002.7      46.7237      46.7237      46.7237 
  322000    89.226421   -11596.927   -10728.013   -94.510853     102002.7      46.7237      46.7237      46.7237 
  323000    90.175179   -11608.921   -10730.768    8.7135984     102002.7      46.7237      46.7237      46.7237 
  324000     93.15634   -11595.899   -10688.714     58.26081     102002.7      46.7237      46.7237      46.7237 
  325000    90.233358   -11599.943   -10721.223    176.36456     102002.7      46.7237      46.7237      46.7237 
  326000    89.362984   -11597.206   -10726.962    31.625491     102002.7      46.7237      46.7237      46.7237 
  327000    91.319352    -11626.36   -10737.065   -83.592022     102002.7      46.7237      46.7237      46.7237 
  328000    89.394617   -11592.099   -10721.547    26.267358     102002.7      46.7237      46.7237      46.7237 
  329000     90.48727   -11587.401   -10706.208    143.74378     102002.7      46.7237      46.7237      46.7237 
  330000    91.787963   -11603.064   -10709.204    62.823227     102002.7      46.7237      46.7237      46.7237 
  331000    91.033157   -11613.621   -10727.113   -45.491611     102002.7      46.7237      46.7237      46.7237 
  332000    92.653634   -11611.975   -10709.685   -319.83068     102002.7      46.7237      46.7237      46.7237 
  333000    91.669813   -11625.402   -10732.693    87.185622     102002.7      46.7237      46.7237      46.7237 
  334000    90.955118   -11598.254   -10712.505    344.64008     102002.7      46.7237      46.7237      46.7237 
  335000    90.777621   -11595.266   -10711.246    -42.08187     102002.7      46.7237      46.7237      46.7237 
  336000    90.786095    -11607.21   -10723.107    59.264929     102002.7      46.7237      46.7237      46.7237 
  337000    92.807378   -11581.791   -10678.004    97.751801     102002.7      46.7237      46.7237      46.7237 
  338000    90.492439    -11591.53   -10710.287    67.417604     102002.7      46.7237      46.7237      46.7237 
  339000    94.189842   -11580.285   -10663.035   -192.60409     102002.7      46.7237      46.7237      46.7237 
  340000    89.074617   -11604.161   -10736.725     26.80204     102002.7      46.7237      46.7237      46.7237 
  341000    90.774249   -11591.502   -10707.514   -128.13917     102002.7      46.7237      46.7237      46.7237 
  342000    90.927289   -11584.884   -10699.406    248.49453     102002.7      46.7237      46.7237      46.7237 
  343000     89.72783   -11604.409   -10730.612    73.258067     102002.7      46.7237      46.7237      46.7237 
  344000    89.679272   -11619.848   -10746.524    67.149095     102002.7      46.7237      46.7237      46.7237 
  345000    91.105585   -11622.183   -10734.969    93.108621     102002.7      46.7237      46.7237      46.7237 
  346000    90.486387   -11599.245    -10718.06   -40.235323     102002.7      46.7237      46.7237      46.7237 
  347000    90.540806   -11581.758   -10700.044    -276.1085     102002.7      46.7237      46.7237      46.7237 
  348000     91.23104   -11604.087   -10715.651   -40.670411     102002.7      46.7237      46.7237      46.7237 
  349000      90.4087   -11599.232   -10718.804   -68.039806     102002.7      46.7237      46.7237      46.7237 
  350000     90.93902   -11595.711   -10710.119    7.9380265     102002.7      46.7237      46.7237      46.7237 
  351000    91.728319   -11606.627   -10713.348    94.224458     102002.7      46.7237      46.7237      46.7237 
  352000    91.747862    -11610.55   -10717.081    -50.01175     102002.7      46.7237      46.7237      46.7237 
  353000    94.101615   -11588.626   -10672.235     26.59348     102002.7      46.7237      46.7237      46.7237 
  354000    91.731125   -11594.608   -10701.302    90.162022     102002.7      46.7237      46.7237      46.7237 
  355000     89.74597   -11592.373   -10718.399   -76.330672     102002.7      46.7237      46.7237      46.7237 
  356000    91.174737   -11580.972   -10693.084   -56.667994     102002.7      46.7237      46.7237      46.7237 
  357000    90.583951   -11596.845   -10714.711    143.99987     102002.7      46.7237      46.7237      46.7237 
  358000    91.942849   -11601.943   -10706.575   -192.56215     102002.7      46.7237      46.7237      46.7237 
  359000    90.325281   -11589.188   -10709.573   -71.201615     102002.7      46.7237      46.7237      46.7237 
  360000    93.617412   -11601.902   -10690.227    179.63755     102002.7      46.7237      46.7237      46.7237 
  361000    89.442381   -11606.737    -10735.72    85.335166     102002.7      46.7237      46.7237      46.7237 
  362000     91.35861    -11588.38   -10698.702      347.231     102002.7      46.7237      46.7237      46.7237 
  363000    90.844781   -11586.506   -10701.832     313.3405     102002.7      46.7237      46.7237      46.7237 
  364000    90.178738   -11595.606   -10717.418    68.325141     102002.7      46.7237      46.7237      46.7237 
  365000    92.468908   -11567.727   -10667.237    103.73191     102002.7      46.7237      46.7237      46.7237 
  366000    91.320218   -11618.717   -10729.413   -149.48989     102002.7      46.7237      46.7237      46.7237 
  367000    92.796676   -11591.895   -10688.213    -40.55377     102002.7      46.7237      46.7237      46.7237 
  368000    87.125513   -11600.642   -10752.187    15.409152     102002.7      46.7237      46.7237      46.7237 
  369000    90.171567   -11608.668   -10730.549   -2.4352159     102002.7      46.7237      46.7237      46.7237 
  370000    91.211792    -11592.06   -10703.811     96.91509     102002.7      46.7237      46.7237      46.7237 
  371000    89.612653   -11611.952   -10739.276   -172.58075     102002.7      46.7237      46.7237      46.7237 
  372000     91.26656   -11620.214   -10731.433   -245.51202     102002.7      46.7237      46.7237      46.7237 
  373000    90.857335   -11585.067    -10700.27   -121.81792     102002.7      46.7237      46.7237      46.7237 
  374000    90.838894   -11598.076   -10713.459   -77.381255     102002.7      46.7237      46.7237      46.7237 
  375000    90.687752    -11611.97   -10728.825    10.648613     102002.7      46.7237      46.7237      46.7237 
  376000    90.089697   -11604.538   -10727.217   -275.17016     102002.7      46.7237      46.7237      46.7237 
  377000     89.01997   -11629.104     -10762.2 -0.031114791     102002.7      46.7237      46.7237      46.7237 
  378000    91.255223   -11596.187   -10707.516   -2.1817458     102002.7      46.7237      46.7237      46.7237 
  379000    91.810712   -11593.282   -10699.201      190.406     102002.7      46.7237      46.7237      46.7237 
  380000    91.172343   -11615.094    -10727.23   -186.68039     102002.7      46.7237      46.7237      46.7237 
  381000    91.289424   -11597.959   -10708.954     125.8023     102002.7      46.7237      46.7237      46.7237 
  382000    91.006138   -11602.371   -10716.126    118.21744     102002.7      46.7237      46.7237      46.7237 
  383000    90.750341   -11605.602   -10721.847    85.470672     102002.7      46.7237      46.7237      46.7237 
  384000    92.293762   -11581.873   -10683.088   -63.375202     102002.7      46.7237      46.7237      46.7237 
  385000    90.780729   -11590.215   -10706.164   -124.61753     102002.7      46.7237      46.7237      46.7237 
  386000    92.060925    -11628.67   -10732.152   -156.48913     102002.7      46.7237      46.7237      46.7237 
  387000    92.306054   -11613.316   -10714.411    76.597515     102002.7      46.7237      46.7237      46.7237 
  388000    90.517598   -11591.851   -10710.363   -123.15075     102002.7      46.7237      46.7237      46.7237 
  389000    89.745632   -11599.505   -10725.534    19.743041     102002.7      46.7237      46.7237      46.7237 
  390000    89.948663   -11615.037   -10739.089   -127.67284     102002.7      46.7237      46.7237      46.7237 
  391000    92.356797   -11621.157   -10721.758     7.499625     102002.7      46.7237      46.7237      46.7237 
  392000    90.896777   -11597.244   -10712.064    201.64281     102002.7      46.7237      46.7237      46.7237 
  393000    91.326155   -11619.221   -10729.859    -237.0003     102002.7      46.7237      46.7237      46.7237 
  394000    89.824857   -11596.839   -10722.097    289.82556     102002.7      46.7237      46.7237      46.7237 
  395000    92.237559   -11603.503   -10705.265   -39.959299     102002.7      46.7237      46.7237      46.7237 
  396000    91.486029   -11584.795   -10693.876   -69.067896     102002.7      46.7237      46.7237      46.7237 
  397000    89.395961   -11614.373   -10743.808   -32.824825     102002.7      46.7237      46.7237      46.7237 
  398000    92.676539   -11614.522   -10712.009   -55.502588     102002.7      46.7237      46.7237      46.7237 
  399000    92.873727   -11623.493    -10719.06   -259.90006     102002.7      46.7237      46.7237      46.7237 
  400000    89.845409   -11585.673   -10710.731    220.90414     102002.7      46.7237      46.7237      46.7237 
  401000    90.993233   -11598.216   -10712.096    85.291654     102002.7      46.7237      46.7237      46.7237 
  402000    90.330118   -11571.684   -10692.021    128.33371     102002.7      46.7237      46.7237      46.7237 
  403000    93.127003   -11602.621   -10695.722    122.92946     102002.7      46.7237      46.7237      46.7237 
  404000    91.061398   -11588.963   -10702.179    16.071483     102002.7      46.7237      46.7237      46.7237 
  405000    90.209011   -11593.387   -10714.904   -57.936255     102002.7      46.7237      46.7237      46.7237 
  406000     91.20362     -11601.5   -10713.331    52.897129     102002.7      46.7237      46.7237      46.7237 
  407000    90.035089   -11593.867   -10717.078   -92.858803     102002.7      46.7237      46.7237      46.7237 
  408000    89.914175   -11594.909   -10719.298    35.459421     102002.7      46.7237      46.7237      46.7237 
  409000    92.610763   -11612.739   -10710.867    45.856789     102002.7      46.7237      46.7237      46.7237 
  410000    93.557735   -11610.151   -10699.057   -313.01584     102002.7      46.7237      46.7237      46.7237 
  411000    91.266057   -11574.181   -10685.404   -224.06112     102002.7      46.7237      46.7237      46.7237 
  412000     90.40645   -11609.447   -10729.041   -13.980171     102002.7      46.7237      46.7237      46.7237 
  413000    93.067693   -11611.635   -10705.313    15.135036     102002.7      46.7237      46.7237      46.7237 
  414000    88.392847   -11610.438   -10749.641    -118.7268     102002.7      46.7237      46.7237      46.7237 
  415000    92.145013   -11613.421   -10716.084   -38.346541     102002.7      46.7237      46.7237      46.7237 
  416000     90.01937   -11608.092   -10731.456   -280.58617     102002.7      46.7237      46.7237      46.7237 
  417000    91.953406   -11593.973   -10698.503   -112.11066     102002.7      46.7237      46.7237      46.7237 
  418000     90.03046   -11594.598   -10717.854    38.278253     102002.7      46.7237      46.7237      46.7237 
  419000    90.903105   -11607.766   -10722.524   -43.415958     102002.7      46.7237      46.7237      46.7237 
  420000    91.415697   -11580.857   -10690.623   -153.18555     102002.7      46.7237      46.7237      46.7237 
  421000    91.856602   -11592.088   -10697.561    -45.15497     102002.7      46.7237      46.7237      46.7237 
  422000    91.000183   -11612.745   -10726.557   -87.220153     102002.7      46.7237      46.7237      46.7237 
  423000    90.414572   -11581.691   -10701.206   -173.52724     102002.7      46.7237      46.7237      46.7237 
  424000    89.650661    -11587.17   -10714.124    294.72069     102002.7      46.7237      46.7237      46.7237 
  425000    92.658939   -11581.323   -10678.982   -1.8259231     102002.7      46.7237      46.7237      46.7237 
  426000    91.883909   -11599.369   -10704.575     137.2197     102002.7      46.7237      46.7237      46.7237 
  427000    90.452098   -11630.264   -10749.414    213.27283     102002.7      46.7237      46.7237      46.7237 
  428000    87.309567   -11601.526   -10751.279    197.80074     102002.7      46.7237      46.7237      46.7237 
  429000    90.129876   -11609.992    -10732.28    462.22534     102002.7      46.7237      46.7237      46.7237 
  430000    93.245493   -11614.246   -10706.193   -42.439676     102002.7      46.7237      46.7237      46.7237 
  431000    89.769008   -11617.104   -10742.906   -262.96749     102002.7      46.7237      46.7237      46.7237 
  432000    89.690894   -11585.514   -10712.077    246.56154     102002.7      46.7237      46.7237      46.7237 
  433000    91.658619   -11595.535   -10702.935    51.633796     102002.7      46.7237      46.7237      46.7237 
  434000    91.297638   -11594.888   -10705.804   -220.48507     102002.7      46.7237      46.7237      46.7237 
  435000    88.955496   -11603.081   -10736.805    50.855126     102002.7      46.7237      46.7237      46.7237 
  436000    90.894365   -11589.085   -10703.928    110.49858     102002.7      46.7237      46.7237      46.7237 
  437000    92.441477   -11588.934   -10688.711   -13.918795     102002.7      46.7237      46.7237      46.7237 
  438000    91.836851   -11582.873   -10688.538   -36.748943     102002.7      46.7237      46.7237      46.7237 
  439000    91.479151   -11582.862    -10692.01   -3.2774117     102002.7      46.7237      46.7237      46.7237 
  440000    90.910099   -11620.169   -10734.859    -77.84398     102002.7      46.7237      46.7237      46.7237 
  441000    90.550628   -11637.942   -10756.132    166.92683     102002.7      46.7237      46.7237      46.7237 
  442000     92.20101   -11599.981   -10702.099    204.36305     102002.7      46.7237      46.7237      46.7237 
  443000    90.427864    -11610.82   -10730.206   -215.77501     102002.7      46.7237      46.7237      46.7237 
  444000    92.039285   -11587.645   -10691.338    117.83384     102002.7      46.7237      46.7237      46.7237 
  445000    91.408429   -11609.399   -10719.235   -133.87539     102002.7      46.7237      46.7237      46.7237 
  446000    90.633203   -11613.839   -10731.225   -2.2062251     102002.7      46.7237      46.7237      46.7237 
  447000     92.27694   -11603.785   -10705.164   -228.73767     102002.7      46.7237      46.7237      46.7237 
  448000    89.636641   -11592.922   -10720.013   -165.05797     102002.7      46.7237      46.7237      46.7237 
  449000    90.872368    -11593.21   -10708.267   -179.15493     102002.7      46.7237      46.7237      46.7237 
  450000    93.345516    -11630.87   -10721.843    -220.8533     102002.7      46.7237      46.7237      46.7237 
  451000    90.935353   -11596.631   -10711.074   -84.769706     102002.7      46.7237      46.7237      46.7237 
  452000    90.199576   -11602.363   -10723.972   -148.70131     102002.7      46.7237      46.7237      46.7237 
  453000    91.324848   -11604.206   -10714.857    103.70484     102002.7      46.7237      46.7237      46.7237 
  454000    88.371049   -11601.509   -10740.924    173.74441     102002.7      46.7237      46.7237      46.7237 
  455000    90.019623    -11601.57   -10724.931    11.216923     102002.7      46.7237      46.7237      46.7237 
  456000     92.99098   -11604.615   -10699.041   -244.38375     102002.7      46.7237      46.7237      46.7237 
  457000    90.018559   -11615.827   -10739.198   -197.35106     102002.7      46.7237      46.7237      46.7237 
  458000    92.415215   -11605.557    -10705.59    -347.8611     102002.7      46.7237      46.7237      46.7237 
  459000    90.064108    -11612.45   -10735.378   -151.21018     102002.7      46.7237      46.7237      46.7237 
  460000    88.565538   -11606.181   -10743.703   -97.721846     102002.7      46.7237      46.7237      46.7237 
  461000    88.865995   -11618.496   -10753.092   -137.87278     102002.7      46.7237      46.7237      46.7237 
  462000    90.843914   -11582.146    -10697.48    238.64883     102002.7      46.7237      46.7237      46.7237 
  463000    90.411534   -11624.122   -10743.667   -157.49193     102002.7      46.7237      46.7237      46.7237 
  464000    91.262332   -11588.382   -10699.642    156.27754     102002.7      46.7237      46.7237      46.7237 
  465000    89.365282   -11594.333   -10724.066   -288.41556     102002.7      46.7237      46.7237      46.7237 
  466000     90.55109   -11589.424    -10707.61   -97.470881     102002.7      46.7237      46.7237      46.7237 
  467000    90.020292   -11586.016   -10709.371   -67.674396     102002.7      46.7237      46.7237      46.7237 
  468000    90.386266   -11627.722   -10747.513    53.131134     102002.7      46.7237      46.7237      46.7237 
  469000    92.617776   -11611.442   -10709.502    5.6660688     102002.7      46.7237      46.7237      46.7237 
  470000     90.79051   -11591.417   -10707.271    157.10897     102002.7      46.7237      46.7237      46.7237 
  471000     88.02083   -11584.688   -10727.514    177.14943     102002.7      46.7237      46.7237      46.7237 
  472000    91.028677   -11586.833   -10700.367    36.465658     102002.7      46.7237      46.7237      46.7237 
  473000    90.692932   -11619.283   -10736.087   -38.612188     102002.7      46.7237      46.7237      46.7237 
  474000    91.397975   -11604.091    -10714.03   -106.49678     102002.7      46.7237      46.7237      46.7237 
  475000    91.862576   -11613.301   -10718.715   -90.490474     102002.7      46.7237      46.7237      46.7237 
  476000    90.904359    -11594.66   -10709.406    -76.91635     102002.7      46.7237      46.7237      46.7237 
  477000    88.923379   -11604.226   -10738.263   -65.521124     102002.7      46.7237      46.7237      46.7237 
  478000    93.206415    -11617.93   -10710.258    27.534999     102002.7      46.7237      46.7237      46.7237 
  479000    90.007869   -11592.366   -10715.842   -43.010365     102002.7      46.7237      46.7237      46.7237 
  480000    93.529365   -11570.693   -10659.876    50.801365     102002.7      46.7237      46.7237      46.7237 
  481000    89.158643    -11607.43   -10739.176    221.20999     102002.7      46.7237      46.7237      46.7237 
  482000    90.971915   -11606.886   -10720.974     379.6996     102002.7      46.7237      46.7237      46.7237 
  483000    93.991757   -11618.248   -10702.927    106.00794     102002.7      46.7237      46.7237      46.7237 
  484000    89.357605   -11597.089   -10726.898   -3.0810065     102002.7      46.7237      46.7237      46.7237 
  485000    88.838429   -11605.652   -10740.516    60.097367     102002.7      46.7237      46.7237      46.7237 
  486000     91.40866   -11612.577   -10722.411   -48.314113     102002.7      46.7237      46.7237      46.7237 
  487000     90.59528   -11593.773   -10711.528   -12.687589     102002.7      46.7237      46.7237      46.7237 
  488000    89.995373   -11616.003     -10739.6    24.922235     102002.7      46.7237      46.7237      46.7237 
  489000    90.981069   -11598.347   -10712.345   -133.09137     102002.7      46.7237      46.7237      46.7237 
  490000    90.771233   -11598.534   -10714.576   -281.80715     102002.7      46.7237      46.7237      46.7237 
  491000    91.433051   -11602.476   -10712.073    100.44044     102002.7      46.7237      46.7237      46.7237 
  492000    91.631317   -11616.394   -10724.061    19.891333     102002.7      46.7237      46.7237      46.7237 
  493000    91.500711    -11621.07   -10730.008    58.685199     102002.7      46.7237      46.7237      46.7237 
  494000    87.405198    -11611.31   -10760.131   -206.61492     102002.7      46.7237      46.7237      46.7237 
  495000    91.096329   -11599.314    -10712.19    18.762368     102002.7      46.7237      46.7237      46.7237 
  496000    91.805269    -11599.69   -10705.662   -174.94327     102002.7      46.7237      46.7237      46.7237 
  497000    91.649581   -11604.723   -10712.211   -87.248106     102002.7      46.7237      46.7237      46.7237 
  498000    89.519297   -11595.678   -10723.912    110.58973     102002.7      46.7237      46.7237      46.7237 
  499000    90.966422   -11593.033   -10707.174    42.323352     102002.7      46.7237      46.7237      46.7237 
  500000    90.175541    -11578.26   -10700.103    171.81806     102002.7      46.7237      46.7237      46.7237 
  500500    92.433424    -11590.08   -10689.935    82.875649     102002.7      46.7237      46.7237      46.7237 
Loop time of 1864.26 on 16 procs for 500000 steps with 3268 atoms

Performance: 23.173 ns/day, 1.036 hours/ns, 268.202 timesteps/s
99.9% CPU use with 16 MPI tasks x no OpenMP threads

MPI task timing breakdown:
Section |  min time  |  avg time  |  max time  |%varavg| %total
---------------------------------------------------------------
Pair    | 889.62     | 1188.8     | 1445.8     | 499.0 | 63.77
Bond    | 105.98     | 174.81     | 239.94     | 267.8 |  9.38
Neigh   | 15.077     | 15.112     | 15.151     |   0.5 |  0.81
Comm    | 190.81     | 467.37     | 794.87     | 908.7 | 25.07
Output  | 0.021701   | 0.022151   | 0.026003   |   0.7 |  0.00
Modify  | 8.5699     | 11.198     | 12.913     |  40.8 |  0.60
Other   |            | 6.925      |            |       |  0.37

Nlocal:    204.25 ave 255 max 164 min
Histogram: 2 2 3 0 0 4 3 1 0 1
Nghost:    4114.56 ave 4151 max 4074 min
Histogram: 2 1 2 3 1 0 0 2 2 3
Neighs:    11468 ave 17616 max 6558 min
Histogram: 1 3 1 1 4 1 2 2 0 1

Total # of neighbors = 183488
Ave neighs/atom = 56.1469
Ave special neighs/atom = 3.52509
Neighbor list builds = 4140
Dangerous builds = 0
Neighbor list info ...
  update every 1 steps, delay 10 steps, check yes
  max neighbors/atom: 2000, page size: 100000
  master list distance cutoff = 16
  ghost atom cutoff = 16
  binsize = 8, bins = 6 6 6
  3 neighbor lists, perpetual/occasional/extra = 3 0 0
  (1) pair buck6d/coul/gauss/dsf, perpetual, skip from (3)
      attributes: half, newton on
      pair build: skip
      stencil: none
      bin: none
  (2) pair lj/cut, perpetual, skip from (3)
      attributes: half, newton on
      pair build: skip
      stencil: none
      bin: none
  (3) neighbor class addition, perpetual
      attributes: half, newton on
      pair build: half/bin/newton
      stencil: half/bin/3d/newton
      bin: standard
Setting up Verlet run ...
  Unit style    : real
  Current step  : 500500
  Time step     : 1
WARNING: Inconsistent image flags (../domain.cpp:786)
Per MPI rank memory allocation (min/avg/max) = 22.67 | 23.15 | 23.44 Mbytes
Step Time TotEng KinEng PotEng E_mol E_pair Temp Pxx Pyy Pzz Pxy Pxz Pyz Cella Cellb Cellc CellAlpha CellBeta CellGamma Volume Press 
  500500       500000   -10689.935    900.14501    -11590.08    4152.7991   -15742.879    92.433424     80.10999    204.51882   -36.001864    -339.7617   -106.98183   -177.32543      46.7237      46.7237      46.7237           90           90           90     102002.7    82.875649 
  501000       500500   -10728.813    875.95111   -11604.764    4153.5455   -15758.309    89.949019    121.34063    180.71601   -483.26568    59.808741   -73.134198    39.927436      46.7237      46.7237      46.7237           90           90           90     102002.7   -60.403013 
  502000       501500   -10723.566    860.51575   -11584.082    4162.2482    -15746.33    88.364004   -230.26289   -162.93796   -150.19571    77.099524   -100.11952   -251.45683      46.7237      46.7237      46.7237           90           90           90     102002.7   -181.13219 
  503000       502500   -10711.989    890.77276   -11602.762    4182.7661   -15785.528    91.471014    87.367048   -244.88418   -142.64637   -196.89971   -9.7097592    105.77834      46.7237      46.7237      46.7237           90           90           90     102002.7    -100.0545 
  504000       503500   -10703.257    884.49943   -11587.756    4155.9863   -15743.743    90.826822   -186.54562    205.64655     323.5568    166.23884    223.30274    -133.7269      46.7237      46.7237      46.7237           90           90           90     102002.7    114.21924 
  505000       504500   -10690.103    892.21786   -11582.321    4159.6123   -15741.933    91.619407   -226.87295   -33.649309    121.78237   -106.57524   -8.3091518    80.266985      46.7237      46.7237      46.7237           90           90           90     102002.7   -46.246631 
  506000       505500   -10743.762     873.9641   -11617.726    4152.3325   -15770.059    89.744978   -20.563929    48.767234   -331.92277     13.80691    70.116618   -29.013969      46.7237      46.7237      46.7237           90           90           90     102002.7   -101.23982 
  507000       506500   -10686.875    900.44995   -11587.325     4175.335    -15762.66    92.464737    257.21007    28.490036   -190.39798    57.719753    -58.39973   -71.633299      46.7237      46.7237      46.7237           90           90           90     102002.7    31.767374 
  508000       507500   -10691.932    892.19315   -11584.125    4187.1158   -15771.241    91.616869   -483.82632     138.0146    -228.6037   -193.20885    100.36318    54.917743      46.7237      46.7237      46.7237           90           90           90     102002.7   -191.47181 
  509000       508500   -10679.691    911.72465   -11591.416    4171.7699   -15763.186    93.622506    627.29953   -89.178802   -38.087346   -43.459413   -36.537924   -41.274179      46.7237      46.7237      46.7237           90           90           90     102002.7    166.67779 
  510000       509500   -10692.859    882.19664   -11575.055    4161.2196   -15736.275    90.590355    65.628355     209.7491    147.83643    1.9652319    305.33247    34.050746      46.7237      46.7237      46.7237           90           90           90     102002.7    141.07129 
  511000       510500    -10727.58    874.42166   -11602.002    4167.2593   -15769.261    89.791964    36.752094   -284.69527    62.273413    234.59081     98.99188    175.62831      46.7237      46.7237      46.7237           90           90           90     102002.7   -61.889922 
  512000       511500   -10721.441      894.565   -11616.006    4161.1821   -15777.189    91.860428   -231.67094   -137.09294   -143.40861   -25.059133   -34.506001   -22.850944      46.7237      46.7237      46.7237           90           90           90     102002.7   -170.72416 
  513000       512500   -10713.345    863.52886   -11576.874    4153.8417   -15730.716    88.673412   -98.999042   -120.75343    237.11055   -85.983423    100.70649     109.6231      46.7237      46.7237      46.7237           90           90           90     102002.7    5.7860265 
  514000       513500   -10723.559    887.07503   -11610.634    4164.0718   -15774.706    91.091303    240.84502    112.55793   -67.782154    101.46872   -141.19737   -8.9501643      46.7237      46.7237      46.7237           90           90           90     102002.7    95.206933 
  515000       514500   -10718.212     876.4822   -11594.694    4161.8479   -15756.542    90.003556    86.633087     33.47173   -301.28604   -37.590079    90.800651   -132.98754      46.7237      46.7237      46.7237           90           90           90     102002.7   -60.393742 
  516000       515500   -10703.791    899.54022   -11603.332    4148.4593   -15751.791    92.371321    88.270218    365.08831    71.133121   -19.643624   -34.448779    262.94822      46.7237      46.7237      46.7237           90           90           90     102002.7    174.83055 
  517000       516500   -10698.882     892.4844   -11591.366     4139.993   -15731.359    91.646777    385.88302   -4.3359558    202.92222    -62.50649    108.58043     99.62985      46.7237      46.7237      46.7237           90           90           90     102002.7    194.82309 
  518000       517500   -10683.642    893.91125   -11577.553    4172.4737   -15750.027    91.793296   -127.55677    -445.5293   -260.50581    63.073773   -28.490324    53.848691      46.7237      46.7237      46.7237           90           90           90     102002.7   -277.86396 
  519000       518500   -10712.365    874.31059   -11586.676    4176.9345    -15763.61    89.780558    144.74268   -290.84917   -5.5375767    50.693202   -66.158064   -116.92117      46.7237      46.7237      46.7237           90           90           90     102002.7   -50.548023 
  520000       519500   -10735.046    902.06706   -11637.113     4135.995   -15773.108    92.630794    39.934829   -305.29676   -169.49585    32.151081    45.508661   -166.38038      46.7237      46.7237      46.7237           90           90           90     102002.7   -144.95259 
  521000       520500   -10735.134    877.50075   -11612.635    4155.6053    -15768.24    90.108147   -244.74564   -380.99863   -219.69315    106.76356     99.38278    266.22723      46.7237      46.7237      46.7237           90           90           90     102002.7   -281.81247 
  522000       521500   -10696.168    903.47113    -11599.64    4146.8741   -15746.514    92.774975   -68.546301    348.10713    162.74501    117.28885    30.747788     240.8375      46.7237      46.7237      46.7237           90           90           90     102002.7    147.43528 
  523000       522500   -10711.768    882.21525   -11593.983    4162.9499   -15756.933    90.592266   -750.03221   -310.87636    168.62712   -30.843542    122.20265    41.772154      46.7237      46.7237      46.7237           90           90           90     102002.7   -297.42715 
  524000       523500   -10710.332    886.55497   -11596.887    4162.2813   -15759.169      91.0379    77.659301    147.18067    192.00786   -336.03135    94.667921    33.504061      46.7237      46.7237      46.7237           90           90           90     102002.7    138.94928 
  525000       524500   -10696.698    899.48215    -11596.18    4167.5977   -15763.778    92.365357   -82.016796    270.40895    356.57523    204.00451   -45.412752      6.71673      46.7237      46.7237      46.7237           90           90           90     102002.7    181.65579 
  526000       525500   -10703.737    903.41618   -11607.153    4158.6981   -15765.851    92.769332    181.40624    104.71253    127.92946     89.73137   -25.225867    98.809786      46.7237      46.7237      46.7237           90           90           90     102002.7    138.01608 
  527000       526500   -10712.946    882.66632   -11595.613    4142.9431   -15738.556    90.638585    465.69392    124.00383    32.977645  -0.96009565    17.266021   -267.98785      46.7237      46.7237      46.7237           90           90           90     102002.7    207.55846 
  528000       527500   -10724.893    892.85932   -11617.752    4143.6456   -15761.398    91.685277    154.43214   -204.41713   -137.99072    200.77061    19.584453   -21.770061      46.7237      46.7237      46.7237           90           90           90     102002.7   -62.658567 
  529000       528500   -10720.166    889.65761   -11609.823    4168.7673   -15778.591    91.356502    20.816617   -363.45938   -69.582675   -29.933054    170.34066   -88.591157      46.7237      46.7237      46.7237           90           90           90     102002.7   -137.40848 
  530000       529500   -10729.525    878.18674   -11607.711    4156.5419   -15764.253     90.17859    230.91106   -1.8172731   -71.301656   -74.009687   -48.069642   -82.414775      46.7237      46.7237      46.7237           90           90           90     102002.7    52.597378 
  531000       530500   -10702.827    884.86824   -11587.696    4144.1188   -15731.815    90.864694   -53.741809   -354.59869   -50.885988    -219.0761   -29.651299    249.20792      46.7237      46.7237      46.7237           90           90           90     102002.7    -153.0755 
  532000       531500   -10700.635    894.88892   -11595.524    4170.2834   -15765.807     91.89369     220.2907    253.99332    286.75023    131.67766   -58.634084   -22.255408      46.7237      46.7237      46.7237           90           90           90     102002.7    253.67808 
  533000       532500    -10706.78    893.27949    -11600.06    4144.2823   -15744.342    91.728422    -25.81685    105.81055    190.64048    54.685253   -121.02223   -2.9634027      46.7237      46.7237      46.7237           90           90           90     102002.7    90.211394 
  534000       533500   -10714.179    885.40403   -11599.583    4161.7415   -15761.324    90.919714   -63.855909    214.45745    22.813799    69.034402   -153.21665    17.070367      46.7237      46.7237      46.7237           90           90           90     102002.7    57.805114 
  535000       534500   -10724.282    896.56994   -11620.852     4148.008    -15768.86    92.066311    212.75132    226.32141   -196.30969   -135.44687    18.973943    -59.43414      46.7237      46.7237      46.7237           90           90           90     102002.7    80.921014 
  536000       535500   -10703.903    905.55842   -11609.462    4146.1244   -15755.586    92.989312    -475.5163     503.9734   -8.8300747    108.89157   -19.805303   -52.288159      46.7237      46.7237      46.7237           90           90           90     102002.7    6.5423415 
  537000       536500   -10711.623    895.44006   -11607.063    4160.7458   -15767.808    91.950286   -182.85892   -87.494191     63.10718    33.257649   -118.87651   -135.31981      46.7237      46.7237      46.7237           90           90           90     102002.7   -69.081977 
  538000       537500   -10708.874    889.95161   -11598.825    4161.8655   -15760.691    91.386692    470.64436    376.19906    187.86708    291.93697   -67.938544   -71.883874      46.7237      46.7237      46.7237           90           90           90     102002.7     344.9035 
  539000       538500   -10731.874    858.14682   -11590.021    4153.1011   -15743.122    88.120745    471.46419    220.14235    346.74912     1.186389   -130.29857    106.97099      46.7237      46.7237      46.7237           90           90           90     102002.7    346.11855 
  540000       539500   -10706.162    893.15492   -11599.317    4154.9003   -15754.217    91.715631    567.58843    148.09659   -186.18098    114.11049    76.026091    118.87174      46.7237      46.7237      46.7237           90           90           90     102002.7    176.50135 
  541000       540500   -10733.722    878.68215   -11612.404    4172.6772   -15785.081    90.229462   -255.38826    218.90789    152.29034    62.355258   -34.401041      81.1251      46.7237      46.7237      46.7237           90           90           90     102002.7    38.603323 
  542000       541500   -10731.406    881.26951   -11612.676    4149.0121   -15761.688    90.495151   -665.84614    3.6366538   -6.1603016    61.877367    173.80826   -128.89388      46.7237      46.7237      46.7237           90           90           90     102002.7   -222.78993 
  543000       542500   -10712.691    879.15202   -11591.843    4175.9268    -15767.77    90.277712     -71.1679   -246.67173    205.06561     -41.3317   -95.883402   -172.80447      46.7237      46.7237      46.7237           90           90           90     102002.7    -37.59134 
  544000       543500   -10727.514    886.87334   -11614.388    4141.7476   -15756.135    91.070593   -7.4223959   -94.846578    66.360879    -117.0746    168.63508    74.378046      46.7237      46.7237      46.7237           90           90           90     102002.7   -11.969365 
  545000       544500   -10706.331    878.03036   -11584.361    4140.8899   -15725.251    90.162532    140.52655    1.9053759    -42.12667   -62.698682    247.08536   -2.7641275      46.7237      46.7237      46.7237           90           90           90     102002.7    33.435086 
  546000       545500   -10722.247    883.57363   -11605.821    4144.4486   -15750.269    90.731755      63.1967   -367.66316    405.40356   -164.69212   -96.172712    122.72037      46.7237      46.7237      46.7237           90           90           90     102002.7    33.645698 
  547000       546500   -10685.077    907.04276    -11592.12    4155.8809   -15748.001    93.141735    58.210361   -184.45843   -499.01626   -18.818229    13.617371    102.22314      46.7237      46.7237      46.7237           90           90           90     102002.7   -208.42144 
  548000       547500    -10726.92    877.74148   -11604.661    4173.1951   -15777.856    90.132868   0.66809555    -579.6791     74.46488    210.76763   -368.61475    127.97137      46.7237      46.7237      46.7237           90           90           90     102002.7   -168.18204 
  549000       548500   -10690.506    886.32778   -11576.834    4183.8708   -15760.705    91.014571    -309.9967   -303.00015   -78.144503   -163.28106   -80.610339   -111.40476      46.7237      46.7237      46.7237           90           90           90     102002.7   -230.38045 
  550000       549500   -10725.822     876.8302   -11602.653    4143.2831   -15745.936     90.03929    165.70664   -65.874143    140.47729   -339.69335    76.017152    37.423532      46.7237      46.7237      46.7237           90           90           90     102002.7    80.103262 
  551000       550500   -10707.823    878.06868   -11585.892     4151.047   -15736.939    90.166466    32.489909   -261.56375    451.88631    54.111476   -1.2137045   -15.084941      46.7237      46.7237      46.7237           90           90           90     102002.7    74.270822 
  552000       551500   -10728.239    871.45236   -11599.691    4150.8299   -15750.521    89.487055    270.79247    2.7563888    490.85594    126.51429   -94.192459   -145.63766      46.7237      46.7237      46.7237           90           90           90     102002.7     254.8016 
  553000       552500   -10698.314    913.31842   -11611.633    4162.9722   -15774.605    93.786165   -18.194858   -230.64248    64.479603    102.82967    201.87995    24.602854      46.7237      46.7237      46.7237           90           90           90     102002.7    -61.45258 
  554000       553500   -10706.693    904.62871   -11611.321    4163.5703   -15774.892    92.893843     138.3721   -112.17054    54.138186   -167.68602    55.349675    10.013741      46.7237      46.7237      46.7237           90           90           90     102002.7    26.779917 
  555000       554500   -10713.993    878.22394   -11592.217    4174.4786   -15766.695     90.18241    348.17264   -714.03206    24.324145   -127.88946   -156.11283   -311.50204      46.7237      46.7237      46.7237           90           90           90     102002.7   -113.84509 
[...]
  936000       935500   -10725.203     870.4862   -11595.689    4149.9259   -15745.615    89.387843    40.240253   -382.38443    14.996147   -113.30198   -173.94033   -144.86475      46.7237      46.7237      46.7237           90           90           90     102002.7   -109.04934 
  937000       936500   -10746.925    873.98568    -11620.91    4148.9209   -15769.831    89.747194    420.44419    67.465719   -296.29825    5.7222852    135.10063   -7.8785083      46.7237      46.7237      46.7237           90           90           90     102002.7    63.870554 
  938000       937500   -10707.066    874.33077   -11581.396     4157.908   -15739.304    89.782631    354.96954   -187.77471   -1.8555368   -168.44303   -1.6622856   -285.62437      46.7237      46.7237      46.7237           90           90           90     102002.7    55.113099 
  939000       938500   -10711.444    887.62107   -11599.065    4153.6856   -15752.751    91.147375    72.407758   -56.053586   -94.292382    260.05594   -94.555393    60.448894      46.7237      46.7237      46.7237           90           90           90     102002.7   -25.979403 
  940000       939500   -10683.566    900.48067   -11584.047    4153.6569   -15737.703    92.467892    72.731882    80.077402   -370.16225    75.770925    127.23528    2.0305731      46.7237      46.7237      46.7237           90           90           90     102002.7   -72.450988 
  941000       940500   -10719.094    876.44709   -11595.542    4171.0201   -15766.562     89.99995   -290.66267   -73.915471    282.38295    110.34945    68.997007   -30.909211      46.7237      46.7237      46.7237           90           90           90     102002.7   -27.398398 
  942000       941500   -10674.002    897.26591   -11571.268    4170.6794   -15741.947    92.137777    636.67711    49.875415    118.27282    19.480037    2.9460921     5.876841      46.7237      46.7237      46.7237           90           90           90     102002.7    268.27512 
  943000       942500   -10692.501    895.59968   -11588.101    4173.4011   -15761.502    91.966676    671.66306   -440.42739    322.41842    -36.80297   -141.72439    157.48838      46.7237      46.7237      46.7237           90           90           90     102002.7    184.55137 
  944000       943500   -10722.887    886.73388   -11609.621    4162.0071   -15771.628    91.056272    141.38415   -521.62039   -114.22093    165.25251    66.941178    -83.41786      46.7237      46.7237      46.7237           90           90           90     102002.7   -164.81905 
  945000       944500   -10735.572    879.48797    -11615.06    4148.4575   -15763.517    90.312209    12.422529   -476.65117     306.1781     50.52578    209.65211    170.29866      46.7237      46.7237      46.7237           90           90           90     102002.7   -52.683511 
  946000       945500   -10724.544    880.59903   -11605.143    4159.3598   -15764.503    90.426301   -298.79007   -104.14707   -163.96922    39.052803   -82.270929    233.39993      46.7237      46.7237      46.7237           90           90           90     102002.7   -188.96879 
  947000       946500   -10725.505     897.6453   -11623.151    4141.8617   -15765.012    92.176736   -107.25848   -65.967607    331.71962    9.0392479    66.673077   -24.263845      46.7237      46.7237      46.7237           90           90           90     102002.7    52.831178 
  948000       947500   -10686.676    918.23635   -11604.912    4144.3387   -15749.251    94.291174    366.68927    61.073567     226.6874    208.85724   -103.22686    128.63507      46.7237      46.7237      46.7237           90           90           90     102002.7    218.15008 
  949000       948500   -10718.684    897.81108   -11616.495    4160.1413   -15776.637    92.193759   -200.63543     22.75521   -383.09559    93.228331    123.88625    104.70792      46.7237      46.7237      46.7237           90           90           90     102002.7   -186.99194 
  950000       949500   -10726.388     881.1926   -11607.581    4171.5765   -15779.157    90.487253    597.74644   -1.3723373   -6.0873789   0.56924142   -51.707769   -29.170269      46.7237      46.7237      46.7237           90           90           90     102002.7    196.76224 
  951000       950500   -10710.812    891.83292   -11602.645    4172.1963   -15774.842    91.579879    221.49135   -227.08136   -146.93742   -20.044859    105.17942    83.813038      46.7237      46.7237      46.7237           90           90           90     102002.7   -50.842475 
  952000       951500   -10731.025    878.40145   -11609.427    4157.4299   -15766.857    90.200637   -59.984318     301.3684    144.84896    126.66862   -97.568672    -65.08207      46.7237      46.7237      46.7237           90           90           90     102002.7    128.74435 
  953000       952500   -10703.247    897.40907   -11600.656    4168.4763   -15769.133    92.152478   -56.657408    244.12647    33.523891    214.34543   -177.11128     249.3905      46.7237      46.7237      46.7237           90           90           90     102002.7    73.664317 
  954000       953500   -10732.784    878.55471   -11611.339    4147.7217   -15759.061    90.216375   -78.659733   -199.57493    104.48767    76.783385     124.6885    41.497716      46.7237      46.7237      46.7237           90           90           90     102002.7   -57.915666 
  955000       954500   -10713.419    904.34062    -11617.76    4171.4229   -15789.182     92.86426    55.222544   -142.51093    144.18828   -77.496389    118.76858   -326.80778      46.7237      46.7237      46.7237           90           90           90     102002.7    18.966631 
  956000       955500   -10714.201    888.53159   -11602.733    4162.5121   -15765.245    91.240874   -79.172208    75.794461    169.56201    122.60511    100.62317   -253.16692      46.7237      46.7237      46.7237           90           90           90     102002.7    55.394755 
  957000       956500   -10727.032    873.51048   -11600.542    4161.5409   -15762.083    89.698397    316.36201   -136.20262   -471.31847   -12.834509    138.16921    57.904083      46.7237      46.7237      46.7237           90           90           90     102002.7   -97.053027 
  958000       957500   -10733.168    868.90508   -11602.074    4160.8541   -15762.928    89.225482    71.483725   -190.45868   -76.664863   -114.48609   -137.80453   -150.16475      46.7237      46.7237      46.7237           90           90           90     102002.7   -65.213273 
  959000       958500   -10686.249    892.55618   -11578.805    4181.2726   -15760.078    91.654148    107.97207    15.600357   -218.31238    -57.61349    172.13416    -104.7496      46.7237      46.7237      46.7237           90           90           90     102002.7   -31.579983 
  960000       959500   -10704.272    894.12168   -11598.394    4168.2813   -15766.675    91.814905    237.09847   -269.15806    89.353128   -84.466764    -44.23642   -26.220463      46.7237      46.7237      46.7237           90           90           90     102002.7    19.097846 
  961000       960500   -10725.895    861.56499    -11587.46    4172.2586   -15759.718    88.471748   -12.912738   -248.42611    206.79482    179.19698    79.519664    -249.6719      46.7237      46.7237      46.7237           90           90           90     102002.7   -18.181344 
  962000       961500   -10715.637    892.02336    -11607.66    4153.5206   -15761.181    91.599435     292.8885   -361.54448    230.08587   -180.86075   -3.5377796    138.56206      46.7237      46.7237      46.7237           90           90           90     102002.7    53.809964 
  963000       962500   -10711.954    891.53206   -11603.486    4156.4302   -15759.916    91.548984    436.36873    303.87067    596.19348   -86.100639   -295.63557    14.651143      46.7237      46.7237      46.7237           90           90           90     102002.7    445.47763 
  964000       963500   -10739.929    878.19598   -11618.125    4134.8974   -15753.022    90.179538    158.82274    -104.2413    91.375098   -45.184335    83.825369    186.66947      46.7237      46.7237      46.7237           90           90           90     102002.7     48.65218 
  965000       964500   -10724.173    871.40722   -11595.581     4168.941   -15764.522    89.482419   -24.751644    28.742153    473.89886   -38.091399    116.52188    34.097055      46.7237      46.7237      46.7237           90           90           90     102002.7    159.29646 
  966000       965500   -10700.343    887.54346   -11587.886    4174.3621   -15762.249    91.139406    374.98286   -105.95132    169.51499    97.413341    10.763391   -49.500326      46.7237      46.7237      46.7237           90           90           90     102002.7    146.18218 
  967000       966500   -10737.081    874.53661   -11611.618    4138.2874   -15749.905    89.803768   -79.879984   -150.34542   -244.16936    23.745283    120.15042   -206.63676      46.7237      46.7237      46.7237           90           90           90     102002.7   -158.13159 
  968000       967500   -10705.398    880.62626   -11586.024    4157.6737   -15743.697    90.429098    86.406323   -540.55982   -330.48801   -6.7181419   -4.9852399   -12.649825      46.7237      46.7237      46.7237           90           90           90     102002.7   -261.54717 
  969000       968500   -10696.145    884.78372   -11580.929    4191.7388   -15772.668    90.856016   -46.186785    77.703132   -180.63838     114.2205   -110.68666    153.01004      46.7237      46.7237      46.7237           90           90           90     102002.7   -49.707344 
  970000       969500   -10718.032    871.38181   -11589.414    4183.0128   -15772.427    89.479811   -180.34664    317.57867    198.65072    290.40212   -211.98049   -268.63163      46.7237      46.7237      46.7237           90           90           90     102002.7    111.96092 
  971000       970500   -10707.608    900.72211   -11608.331     4155.508   -15763.839    92.492685    304.10639    61.711183    32.468516    12.880845   -26.693961   -25.513395      46.7237      46.7237      46.7237           90           90           90     102002.7    132.76203 
  972000       971500   -10728.489    861.70659   -11590.195    4167.1284   -15757.324    88.486288    494.32886    200.53872    95.819237   -88.962322    28.861233    197.96478      46.7237      46.7237      46.7237           90           90           90     102002.7    263.56227 
  973000       972500   -10697.848    891.34673   -11589.195    4174.6532   -15763.848    91.529953    493.45427    124.34516    1.9767756   -103.42167   -47.879802    172.68139      46.7237      46.7237      46.7237           90           90           90     102002.7    206.59207 
  974000       973500   -10715.638    871.37021   -11587.009    4170.4787   -15757.487    89.478619    472.42792    26.014988    474.22219    151.09711   -76.729659    22.176842      46.7237      46.7237      46.7237           90           90           90     102002.7     324.2217 
  975000       974500   -10754.413    867.93445   -11622.347    4145.9498   -15768.297     89.12581    448.71022    89.640634    357.57883    172.12608    71.200029   -87.153584      46.7237      46.7237      46.7237           90           90           90     102002.7    298.64323 
  976000       975500   -10705.945    887.03821   -11592.984    4161.1762    -15754.16    91.087523   -423.74148   -4.9362149    58.728461   -183.61946    277.78162    -287.8495      46.7237      46.7237      46.7237           90           90           90     102002.7   -123.31641 
  977000       976500   -10748.664    870.56881   -11619.233    4161.4162   -15780.649    89.396325   -82.612418   -187.18045   -133.44855   -31.226274    185.51516    194.74828      46.7237      46.7237      46.7237           90           90           90     102002.7   -134.41381 
  978000       977500    -10722.11    882.65459   -11604.765    4164.3369   -15769.102    90.637381    174.80606   -141.23928   -246.87157    103.99511    23.375471     71.21826      46.7237      46.7237      46.7237           90           90           90     102002.7   -71.101598 
  979000       978500   -10730.135    873.77846   -11603.914    4168.8226   -15772.736    89.725916   -47.747968   -285.54822    199.80246    174.48305   -89.478023   -142.59004      46.7237      46.7237      46.7237           90           90           90     102002.7   -44.497911 
  980000       979500   -10710.389     887.6515   -11598.041    4151.3688   -15749.409      91.1505    28.351183   -73.236305    563.71419    116.92511   -22.903132    34.544242      46.7237      46.7237      46.7237           90           90           90     102002.7    172.94302 
  981000       980500    -10720.37    874.96294   -11595.333     4163.673   -15759.006    89.847547    14.683404    26.621205   -182.52206    58.377416   -41.360335   -209.06989      46.7237      46.7237      46.7237           90           90           90     102002.7   -47.072484 
  982000       981500   -10728.931    878.06118   -11606.993      4146.17   -15753.163    90.165696   -357.11021   -56.926273   -34.591388    153.17533   -24.581389    48.516978      46.7237      46.7237      46.7237           90           90           90     102002.7   -149.54262 
  983000       982500   -10746.514    868.97205   -11615.486    4153.9854   -15769.472    89.232359    62.560489    50.690012   -172.70693     93.26274     114.0368   -75.797759      46.7237      46.7237      46.7237           90           90           90     102002.7    -19.81881 
  984000       983500   -10707.093    919.80466   -11626.898    4156.3512   -15783.249     94.45222   -2.7120036    217.54909   -132.93738    88.537811   -169.88746   -157.76404      46.7237      46.7237      46.7237           90           90           90     102002.7    27.299903 
  985000       984500    -10749.71    859.89108   -11609.601    4156.7245   -15766.326    88.299858   -159.46622    28.855875    281.19405    265.00803    -127.0852    138.91957      46.7237      46.7237      46.7237           90           90           90     102002.7     50.19457 
  986000       985500   -10684.942    891.03445   -11575.976    4163.7312   -15739.707    91.497886    254.19494      163.439    -213.4003   -99.698618   -72.490329   -148.37806      46.7237      46.7237      46.7237           90           90           90     102002.7    68.077882 
  987000       986500   -10725.159    889.69645   -11614.855    4161.9884   -15776.844     91.36049    387.63562   -338.52578   -182.36952   -7.4645477    9.4836709    111.27716      46.7237      46.7237      46.7237           90           90           90     102002.7   -44.419892 
  988000       987500    -10729.95    879.30066   -11609.251     4155.436   -15764.687    90.292975   -2.8464944    95.139631   -423.19961    2.0171388    9.7083963    21.149049      46.7237      46.7237      46.7237           90           90           90     102002.7   -110.30216 
  989000       988500    -10724.75    879.27999    -11604.03    4166.6696   -15770.699    90.290852    322.28519    180.38899   -440.67586   -81.440932   -122.96239    248.74547      46.7237      46.7237      46.7237           90           90           90     102002.7    20.666106 
  990000       989500    -10679.51    911.91123   -11591.421    4162.2998   -15753.721    93.641665     -108.815    251.89125   -224.01133    130.15776   -2.6725146   -154.64888      46.7237      46.7237      46.7237           90           90           90     102002.7   -26.978361 
  991000       990500   -10719.887    881.76613   -11601.653    4145.6609   -15747.314    90.546148    164.93882    438.03531    241.65216    75.016715   -45.455093    22.702136      46.7237      46.7237      46.7237           90           90           90     102002.7     281.5421 
  992000       991500   -10722.996    881.40704   -11604.403    4158.4456   -15762.849    90.509273   -296.90525    98.586957     201.5394   -167.64813     37.80475   -162.56657      46.7237      46.7237      46.7237           90           90           90     102002.7    1.0737022 
  993000       992500   -10722.402    872.33927   -11594.741    4161.1946   -15755.936    89.578129   -40.509757    321.37136    75.612578    171.13986    73.966436   -108.63934      46.7237      46.7237      46.7237           90           90           90     102002.7    118.82473 
  994000       993500   -10707.857    887.95019   -11595.807    4168.6458   -15764.453    91.181171   -82.203838    409.14255    336.89536    191.82558   -5.7087159   -164.59135      46.7237      46.7237      46.7237           90           90           90     102002.7    221.27802 
  995000       994500   -10714.169    912.56571   -11626.735    4146.0576   -15772.792    93.708872    85.394094    192.94531    284.37459   -71.827191    99.405979   -263.95018      46.7237      46.7237      46.7237           90           90           90     102002.7    187.57133 
  996000       995500   -10706.846    893.41433    -11600.26    4153.9363   -15754.196    91.742269    324.57494   -151.04019    126.10601   -10.402237   -34.168227    51.474124      46.7237      46.7237      46.7237           90           90           90     102002.7    99.880255 
  997000       996500   -10724.621     892.2868   -11616.908    4159.8434   -15776.752    91.626486   -82.438316    208.70587   -390.84254   -107.84884   -48.661793   -301.39481      46.7237      46.7237      46.7237           90           90           90     102002.7   -88.191661 
  998000       997500   -10739.841    879.82605   -11619.667    4155.8615   -15775.529    90.346926    201.61541    55.478957   -39.414405     136.8294   -120.13558    83.528163      46.7237      46.7237      46.7237           90           90           90     102002.7    72.559988 
  999000       998500   -10692.376    896.76164   -11589.138     4184.486   -15773.624    92.085995    71.918433    130.12362     653.0645   -63.614021    3.9286287    -183.4525      46.7237      46.7237      46.7237           90           90           90     102002.7    285.03552 
 1000000       999500   -10705.655    893.91419   -11599.569    4172.0704   -15771.639    91.793599    165.32623    31.371417   -99.804604    44.902713   -118.13373    68.722711      46.7237      46.7237      46.7237           90           90           90     102002.7     32.29768 
 1000500      1000000   -10724.678    883.29978   -11607.978    4168.4135   -15776.391    90.703634    214.47609    355.04039   -333.20131    98.740949  0.019501145    73.207894      46.7237      46.7237      46.7237           90           90           90     102002.7    78.771725 
Loop time of 2341.94 on 16 procs for 500000 steps with 3268 atoms

Performance: 18.446 ns/day, 1.301 hours/ns, 213.498 timesteps/s
99.9% CPU use with 16 MPI tasks x no OpenMP threads

MPI task timing breakdown:
Section |  min time  |  avg time  |  max time  |%varavg| %total
---------------------------------------------------------------
Pair    | 1075.2     | 1511.6     | 1914.4     | 606.3 | 64.55
Bond    | 110.52     | 184.19     | 257.1      | 303.2 |  7.86
Neigh   | 15.293     | 15.324     | 15.361     |   0.4 |  0.65
Comm    | 154.21     | 598.1      | 1082.5     |1090.1 | 25.54
Output  | 0.13334    | 0.14068    | 0.14122    |   0.5 |  0.01
Modify  | 22.638     | 25.493     | 27.351     |  28.7 |  1.09
Other   |            | 7.042      |            |       |  0.30

Nlocal:    204.25 ave 239 max 162 min
Histogram: 1 2 1 0 4 2 0 1 1 4
Nghost:    4115.19 ave 4156 max 4075 min
Histogram: 3 0 2 1 2 2 2 0 2 2
Neighs:    11453.8 ave 17463 max 5775 min
Histogram: 1 2 3 1 2 1 3 0 0 3

Total # of neighbors = 183260
Ave neighs/atom = 56.0771
Ave special neighs/atom = 3.52509
Neighbor list builds = 4149
Dangerous builds = 0
Total wall time: 1:10:11
