LAMMPS (30 Mar 2018)
Reading data file ...
  orthogonal box = (0 0 0) to (46.7237 46.7237 46.7237)
  2 by 3 by 4 MPI processor grid
  reading atoms ...
  2148 atoms
  scanning bonds ...
  5 = max bonds/atom
  scanning angles ...
  10 = max angles/atom
  scanning dihedrals ...
  32 = max dihedrals/atom
  scanning impropers ...
  3 = max impropers/atom
  reading bonds ...
  2064 bonds
  reading angles ...
  3696 angles
  reading dihedrals ...
  6240 dihedrals
  reading impropers ...
  1008 impropers
Finding 1-2 1-3 1-4 neighbors ...
  special bond factors lj:   0          0          0         
  special bond factors coul: 0          0          0         
  5 = max # of 1-2 neighbors
  8 = max # of 1-3 neighbors
  20 = max # of 1-4 neighbors
  19 = max # of special neighbors
Finding 1-2 1-3 1-4 neighbors ...
  special bond factors lj:   0          0          1         
  special bond factors coul: 1          1          1         
  5 = max # of 1-2 neighbors
  8 = max # of 1-3 neighbors
  19 = max # of special neighbors
WARNING: Using 'neigh_modify every 1 delay 0 check yes' setting during minimization (../min.cpp:168)
Neighbor list info ...
  update every 1 steps, delay 0 steps, check yes
  max neighbors/atom: 2000, page size: 100000
  master list distance cutoff = 16
  ghost atom cutoff = 16
  binsize = 8, bins = 6 6 6
  3 neighbor lists, perpetual/occasional/extra = 3 0 0
  (1) pair buck6d/coul/gauss/dsf, perpetual, skip from (3)
      attributes: half, newton on
      pair build: skip
      stencil: none
      bin: none
  (2) pair lj/cut, perpetual, skip from (3)
      attributes: half, newton on
      pair build: skip
      stencil: none
      bin: none
  (3) neighbor class addition, perpetual
      attributes: half, newton on
      pair build: half/bin/newton
      stencil: half/bin/3d/newton
      bin: standard
Setting up cg style minimization ...
  Unit style    : real
  Current step  : 0
WARNING: Inconsistent image flags (../domain.cpp:786)
Per MPI rank memory allocation (min/avg/max) = 22.9 | 23.3 | 24.45 Mbytes
Step Temp E_pair E_mol TotEng Press 
       0            0   -12747.356    6482.8914   -6264.4649    6102.9245 
     501            0   -12928.846    3729.9718   -9198.8744   -698.99529 
Loop time of 1.41608 on 24 procs for 501 steps with 2148 atoms

99.1% CPU use with 24 MPI tasks x no OpenMP threads

Minimization stats:
  Stopping criterion = max force evaluations
  Energy initial, next-to-last, final = 
        -6264.46492597     -9198.82668152     -9198.87441834
  Force two-norm initial, final = 2574.34 10.4496
  Force max component initial, final = 152.055 1.35679
  Final line search alpha, max atom move = 0.0037678 0.00511212
  Iterations, force evaluations = 501 1001

MPI task timing breakdown:
Section |  min time  |  avg time  |  max time  |%varavg| %total
---------------------------------------------------------------
Pair    | 0.49645    | 0.732      | 0.99091    |  14.1 | 51.69
Bond    | 0.12162    | 0.15756    | 0.20023    |   5.3 | 11.13
Neigh   | 0.012454   | 0.012951   | 0.013357   |   0.3 |  0.91
Comm    | 0.21706    | 0.49049    | 0.71285    |  17.5 | 34.64
Output  | 0          | 0          | 0          |   0.0 |  0.00
Modify  | 0          | 0          | 0          |   0.0 |  0.00
Other   |            | 0.02307    |            |       |  1.63

Nlocal:    89.5 ave 106 max 73 min
Histogram: 3 2 1 3 2 2 6 1 3 1
Nghost:    2385.17 ave 2558 max 2282 min
Histogram: 11 5 0 0 0 0 0 0 0 8
Neighs:    7635.79 ave 11369 max 4735 min
Histogram: 2 2 4 3 6 1 3 0 1 2

Total # of neighbors = 183259
Ave neighs/atom = 85.3161
Ave special neighs/atom = 5.36313
Neighbor list builds = 15
Dangerous builds = 0
Neighbor list info ...
  update every 1 steps, delay 10 steps, check yes
  max neighbors/atom: 2000, page size: 100000
  master list distance cutoff = 16
  ghost atom cutoff = 16
  binsize = 8, bins = 6 6 6
  3 neighbor lists, perpetual/occasional/extra = 3 0 0
  (1) pair buck6d/coul/gauss/dsf, perpetual, skip from (3)
      attributes: half, newton on
      pair build: skip
      stencil: none
      bin: none
  (2) pair lj/cut, perpetual, skip from (3)
      attributes: half, newton on
      pair build: skip
      stencil: none
      bin: none
  (3) neighbor class addition, perpetual
      attributes: half, newton on
      pair build: half/bin/newton
      stencil: half/bin/3d/newton
      bin: standard
Setting up Verlet run ...
  Unit style    : real
  Current step  : 501
  Time step     : 1
WARNING: Inconsistent image flags (../domain.cpp:786)
Per MPI rank memory allocation (min/avg/max) = 22.54 | 22.72 | 23.32 Mbytes
Step Temp PotEng TotEng Press Volume Lx Ly Lz 
     501          110   -9198.8744   -8494.8965   -383.50921     102002.7      46.7237      46.7237      46.7237 
    1000    93.277494    -8570.291   -7973.3337   -678.08425     102002.7      46.7237      46.7237      46.7237 
    2000    116.13792   -8469.4599   -7726.2006    -669.5088     102002.7      46.7237      46.7237      46.7237 
    3000    109.76289   -8435.4537   -7732.9933    -755.8047     102002.7      46.7237      46.7237      46.7237 
    4000    107.31127   -8442.9997   -7756.2291   -779.41195     102002.7      46.7237      46.7237      46.7237 
    5000    111.45553   -8463.4718   -7750.1788   -651.55549     102002.7      46.7237      46.7237      46.7237 
    6000     111.8306   -8445.8125    -7730.119   -998.35944     102002.7      46.7237      46.7237      46.7237 
    7000    115.08748   -8454.0471   -7717.5104   -887.83155     102002.7      46.7237      46.7237      46.7237 
    8000    108.01337   -8458.4282   -7767.1644    -816.6354     102002.7      46.7237      46.7237      46.7237 
    9000    103.36112    -8465.312   -7803.8216   -987.98802     102002.7      46.7237      46.7237      46.7237 
   10000     109.3463   -8450.9274   -7751.1331   -351.40452     102002.7      46.7237      46.7237      46.7237 
   11000    110.90358   -8447.0671   -7737.3065   -580.24958     102002.7      46.7237      46.7237      46.7237 
   12000    111.00308   -8460.3228   -7749.9254   -600.48228     102002.7      46.7237      46.7237      46.7237 
   13000    106.80833   -8443.2921   -7759.7402   -322.46347     102002.7      46.7237      46.7237      46.7237 
   14000    109.11948   -8462.3711   -7764.0284   -733.59457     102002.7      46.7237      46.7237      46.7237 
   15000    109.29277   -8465.8368   -7766.3851   -717.04378     102002.7      46.7237      46.7237      46.7237 
   16000    110.49111   -8461.0942   -7753.9733   -641.52976     102002.7      46.7237      46.7237      46.7237 
   17000    110.25925   -8459.3866   -7753.7495   -901.53918     102002.7      46.7237      46.7237      46.7237 
   18000    107.09671   -8429.8139   -7744.4164   -706.58678     102002.7      46.7237      46.7237      46.7237 
   19000    111.61244   -8443.4678   -7729.1706   -1075.9598     102002.7      46.7237      46.7237      46.7237 
   20000    107.40416   -8450.2648   -7762.8997    -489.4181     102002.7      46.7237      46.7237      46.7237 
   21000    108.98256   -8462.2406   -7764.7741   -769.57063     102002.7      46.7237      46.7237      46.7237 
   22000    112.19297   -8456.3873   -7738.3748   -814.45155     102002.7      46.7237      46.7237      46.7237 
   23000    107.31134   -8448.5199   -7761.7489   -710.13815     102002.7      46.7237      46.7237      46.7237 
   24000    107.23873    -8478.802   -7792.4957   -838.87265     102002.7      46.7237      46.7237      46.7237 
   25000    109.42746   -8453.9199   -7753.6061   -750.03363     102002.7      46.7237      46.7237      46.7237 
   26000    106.43052   -8477.6202   -7796.4863   -494.76836     102002.7      46.7237      46.7237      46.7237 
   27000    108.28744   -8445.4908   -7752.4729   -547.51099     102002.7      46.7237      46.7237      46.7237 
   28000    105.59511   -8480.2391   -7804.4516   -506.23519     102002.7      46.7237      46.7237      46.7237 
   29000    107.70481   -8426.1717   -7736.8825   -654.87454     102002.7      46.7237      46.7237      46.7237 
   30000    110.36638   -8471.8188   -7765.4962    -536.8861     102002.7      46.7237      46.7237      46.7237 
   31000    109.10917   -8440.5298   -7742.2531    -631.1517     102002.7      46.7237      46.7237      46.7237 
   32000    107.61494   -8445.5932   -7756.8791    -432.7285     102002.7      46.7237      46.7237      46.7237 
   33000    106.93893   -8443.2723   -7758.8847   -850.78598     102002.7      46.7237      46.7237      46.7237 
   34000    109.68672    -8453.971   -7751.9981   -851.24378     102002.7      46.7237      46.7237      46.7237 
   35000    109.98336   -8448.6043   -7744.7329   -840.00838     102002.7      46.7237      46.7237      46.7237 
   36000    111.46584   -8461.6519   -7748.2929   -462.96353     102002.7      46.7237      46.7237      46.7237 
   37000    109.09969   -8432.2588   -7734.0427    -786.8935     102002.7      46.7237      46.7237      46.7237 
   38000    108.51832   -8449.7722   -7755.2767    -1011.791     102002.7      46.7237      46.7237      46.7237 
   39000    106.88431   -8465.4531    -7781.415   -604.41461     102002.7      46.7237      46.7237      46.7237 
   40000    113.36891    -8454.756   -7729.2177    -720.2617     102002.7      46.7237      46.7237      46.7237 
   41000    106.84826   -8453.6893   -7769.8819    -704.6867     102002.7      46.7237      46.7237      46.7237 
   42000    112.64362   -8465.3441   -7744.4475   -861.13465     102002.7      46.7237      46.7237      46.7237 
   43000    108.81256   -8456.5136   -7760.1351   -642.01463     102002.7      46.7237      46.7237      46.7237 
   44000    108.04871   -8460.4302   -7768.9401   -937.39193     102002.7      46.7237      46.7237      46.7237 
   45000    110.57613   -8434.4031    -7726.738   -604.65792     102002.7      46.7237      46.7237      46.7237 
   46000    111.76526   -8422.9942    -7707.719   -780.31888     102002.7      46.7237      46.7237      46.7237 
   47000     110.5562   -8456.8413   -7749.3038   -655.24184     102002.7      46.7237      46.7237      46.7237 
   48000    107.50128   -8455.9221   -7767.9355   -531.86101     102002.7      46.7237      46.7237      46.7237 
   49000    112.37852   -8442.3197   -7723.1198   -935.95492     102002.7      46.7237      46.7237      46.7237 
   50000    111.63149   -8457.2294   -7742.8103   -836.48633     102002.7      46.7237      46.7237      46.7237 
   51000    111.69939   -8462.9632   -7748.1095   -783.40659     102002.7      46.7237      46.7237      46.7237 
   52000    110.57475   -8423.1901   -7715.5339   -744.32939     102002.7      46.7237      46.7237      46.7237 
   53000    114.30453   -8463.9867   -7732.4607   -667.68182     102002.7      46.7237      46.7237      46.7237 
   54000    110.64473   -8453.0327   -7744.9287    -815.3812     102002.7      46.7237      46.7237      46.7237 
   55000    108.08397   -8453.6567    -7761.941   -1116.8827     102002.7      46.7237      46.7237      46.7237 
   56000    111.43447    -8448.484   -7735.3258   -1107.6643     102002.7      46.7237      46.7237      46.7237 
   57000    109.58731   -8454.4995   -7753.1628   -390.20397     102002.7      46.7237      46.7237      46.7237 
   58000    111.39488   -8456.2222   -7743.3173   -561.68186     102002.7      46.7237      46.7237      46.7237 
   59000    107.96458   -8467.9894   -7777.0378   -672.94717     102002.7      46.7237      46.7237      46.7237 
   60000    109.37679   -8455.2856   -7755.2961   -635.24241     102002.7      46.7237      46.7237      46.7237 
   61000    109.11988   -8434.6605   -7736.3152    -846.7412     102002.7      46.7237      46.7237      46.7237 
   62000    112.89721   -8473.7965   -7751.2771   -541.98484     102002.7      46.7237      46.7237      46.7237 
   63000    112.81918    -8446.888   -7724.8679     -487.256     102002.7      46.7237      46.7237      46.7237 
   64000    107.67336   -8465.8468   -7776.7589    -688.0342     102002.7      46.7237      46.7237      46.7237 
   65000    109.38652   -8442.5771   -7742.5253   -952.14711     102002.7      46.7237      46.7237      46.7237 
   66000     107.7131   -8446.0545   -7756.7123   -880.92331     102002.7      46.7237      46.7237      46.7237 
   67000    103.51695   -8458.0299   -7795.5422   -652.81479     102002.7      46.7237      46.7237      46.7237 
   68000    108.28847   -8451.3175   -7758.2931   -947.42247     102002.7      46.7237      46.7237      46.7237 
   69000    110.65618   -8463.4024    -7755.225   -703.14523     102002.7      46.7237      46.7237      46.7237 
   70000     110.3531   -8459.2322   -7752.9945    -631.2131     102002.7      46.7237      46.7237      46.7237 
   71000    107.41285   -8452.1607   -7764.7401   -633.83192     102002.7      46.7237      46.7237      46.7237 
   72000    112.80788   -8430.4903   -7708.5425    -763.8334     102002.7      46.7237      46.7237      46.7237 
   73000    111.83936   -8438.4608   -7722.7113   -640.24516     102002.7      46.7237      46.7237      46.7237 
   74000    108.49185    -8448.904    -7754.578   -981.81993     102002.7      46.7237      46.7237      46.7237 
   75000    110.46421    -8449.035   -7742.0863   -681.71969     102002.7      46.7237      46.7237      46.7237 
   76000    111.43253   -8447.3546   -7734.2088   -824.40003     102002.7      46.7237      46.7237      46.7237 
   77000    109.96952   -8473.8359    -7770.053   -989.85213     102002.7      46.7237      46.7237      46.7237 
   78000    111.41237   -8468.5901   -7755.5733   -580.37963     102002.7      46.7237      46.7237      46.7237 
   79000    111.85689   -8453.7243   -7737.8627   -943.95218     102002.7      46.7237      46.7237      46.7237 
   80000    113.89362    -8460.085   -7731.1887   -557.14987     102002.7      46.7237      46.7237      46.7237 
   81000    112.89068     -8456.75   -7734.2723   -608.66736     102002.7      46.7237      46.7237      46.7237 
   82000    112.36561   -8442.6897   -7723.5724   -723.34624     102002.7      46.7237      46.7237      46.7237 
   83000    110.51175   -8452.5404   -7745.2874     -492.789     102002.7      46.7237      46.7237      46.7237 
   84000     111.5364   -8443.0236    -7729.213    -476.8515     102002.7      46.7237      46.7237      46.7237 
   85000    112.45095   -8463.2308   -7743.5672   -831.24234     102002.7      46.7237      46.7237      46.7237 
   86000    107.75466   -8439.5349   -7749.9267    -438.2732     102002.7      46.7237      46.7237      46.7237 
   87000    109.74489   -8443.3312   -7740.9859   -879.70709     102002.7      46.7237      46.7237      46.7237 
   88000    111.61268   -8445.4849   -7731.1862   -762.31298     102002.7      46.7237      46.7237      46.7237 
   89000    105.80162   -8460.3269   -7783.2178   -782.20774     102002.7      46.7237      46.7237      46.7237 
   90000    107.05866   -8428.0234   -7742.8694   -688.91477     102002.7      46.7237      46.7237      46.7237 
   91000    113.29188   -8436.4383   -7711.3931   -756.84413     102002.7      46.7237      46.7237      46.7237 
   92000    109.29228   -8441.5938   -7742.1452   -1017.2831     102002.7      46.7237      46.7237      46.7237 
   93000    111.25643    -8465.772   -7753.7532   -715.43242     102002.7      46.7237      46.7237      46.7237 
   94000    108.08924   -8434.4179   -7742.6684   -700.32704     102002.7      46.7237      46.7237      46.7237 
   95000    107.45932   -8469.4742   -7781.7561   -683.47576     102002.7      46.7237      46.7237      46.7237 
   96000    110.69863   -8468.7485   -7760.2995   -811.64647     102002.7      46.7237      46.7237      46.7237 
   97000    107.42994   -8440.3791   -7752.8491   -636.61096     102002.7      46.7237      46.7237      46.7237 
   98000    109.16555   -8434.2947   -7735.6571   -539.12581     102002.7      46.7237      46.7237      46.7237 
   99000    106.63857   -8453.1912   -7770.7257   -916.03362     102002.7      46.7237      46.7237      46.7237 
  100000    108.69287   -8450.5449   -7754.9324   -621.21219     102002.7      46.7237      46.7237      46.7237 
  101000    113.27252   -8435.7575   -7710.8361   -1300.7641     102002.7      46.7237      46.7237      46.7237 
  102000    110.37924   -8468.1509   -7761.7459   -991.24017     102002.7      46.7237      46.7237      46.7237 
  103000    109.05315   -8439.9301   -7742.0119   -760.88182     102002.7      46.7237      46.7237      46.7237 
  104000     109.2133   -8457.4819   -7758.5387   -923.94086     102002.7      46.7237      46.7237      46.7237 
  105000    109.09153   -8452.3445   -7754.1806   -750.31511     102002.7      46.7237      46.7237      46.7237 
  106000    105.64254   -8464.8323   -7788.7412   -910.11606     102002.7      46.7237      46.7237      46.7237 
  107000    111.65556   -8454.1991   -7739.6259   -784.50866     102002.7      46.7237      46.7237      46.7237 
  108000    114.35023   -8459.6014   -7727.7829   -943.56243     102002.7      46.7237      46.7237      46.7237 
  109000    111.98903    -8468.983   -7752.2757   -777.23017     102002.7      46.7237      46.7237      46.7237 
  110000    106.35479   -8447.4984   -7766.8491   -864.93085     102002.7      46.7237      46.7237      46.7237 
  111000    108.42492    -8447.599   -7753.7013    -974.2028     102002.7      46.7237      46.7237      46.7237 
  112000     109.2874   -8431.8262   -7732.4088   -881.84985     102002.7      46.7237      46.7237      46.7237 
  113000    109.23962   -8453.9851   -7754.8734   -923.83992     102002.7      46.7237      46.7237      46.7237 
  114000    108.68315   -8449.7172   -7754.1668   -679.30769     102002.7      46.7237      46.7237      46.7237 
  115000    110.49781   -8462.6699    -7755.506   -908.42604     102002.7      46.7237      46.7237      46.7237 
  116000    109.92734   -8449.2901   -7745.7772   -638.75622     102002.7      46.7237      46.7237      46.7237 
  117000    110.41723   -8475.2779   -7768.6298   -542.10201     102002.7      46.7237      46.7237      46.7237 
  118000     109.0768   -8477.2774   -7779.2077   -777.16244     102002.7      46.7237      46.7237      46.7237 
  119000     109.7898   -8446.1755   -7743.5428   -997.70267     102002.7      46.7237      46.7237      46.7237 
  120000    111.38438   -8458.8171   -7745.9794   -947.52927     102002.7      46.7237      46.7237      46.7237 
  121000     107.2396   -8450.8792   -7764.5674   -900.31824     102002.7      46.7237      46.7237      46.7237 
  122000    109.99973   -8474.5409   -7770.5647   -564.47029     102002.7      46.7237      46.7237      46.7237 
  123000    111.16477   -8463.7922   -7752.3601   -568.90679     102002.7      46.7237      46.7237      46.7237 
  124000    111.30071   -8449.0127   -7736.7105   -605.53144     102002.7      46.7237      46.7237      46.7237 
  125000    107.19161   -8464.6643   -7778.6595   -729.76648     102002.7      46.7237      46.7237      46.7237 
  126000    111.77963   -8433.0333   -7717.6661   -667.61777     102002.7      46.7237      46.7237      46.7237 
  127000    111.30417   -8448.3202   -7735.9959   -548.36216     102002.7      46.7237      46.7237      46.7237 
  128000    108.35508   -8437.2081   -7743.7574   -556.58917     102002.7      46.7237      46.7237      46.7237 
  129000    110.14814   -8459.3148   -7754.3888   -676.32386     102002.7      46.7237      46.7237      46.7237 
  130000    107.40506    -8415.006   -7727.6351   -659.00405     102002.7      46.7237      46.7237      46.7237 
  131000    111.58251   -8434.6295   -7720.5239   -637.38874     102002.7      46.7237      46.7237      46.7237 
  132000    110.40657   -8458.7715   -7752.1916   -923.41107     102002.7      46.7237      46.7237      46.7237 
  133000    112.13137   -8454.9415   -7737.3233   -537.95858     102002.7      46.7237      46.7237      46.7237 
  134000    110.31632   -8457.4291   -7751.4268   -837.98643     102002.7      46.7237      46.7237      46.7237 
  135000     108.3053   -8408.0378   -7714.9056    -636.9621     102002.7      46.7237      46.7237      46.7237 
  136000    109.66028   -8466.2902   -7764.4864   -546.42996     102002.7      46.7237      46.7237      46.7237 
  137000    109.98849   -8439.0963    -7735.192   -1018.6769     102002.7      46.7237      46.7237      46.7237 
  138000    109.88553   -8461.5493   -7758.3039   -824.26656     102002.7      46.7237      46.7237      46.7237 
  139000    106.93591   -8460.3643   -7775.9959   -931.11345     102002.7      46.7237      46.7237      46.7237 
  140000    111.17571   -8456.6343    -7745.132   -844.55849     102002.7      46.7237      46.7237      46.7237 
  141000    112.58783   -8438.3968   -7717.8574   -896.71562     102002.7      46.7237      46.7237      46.7237 
  142000    108.44841   -8457.7945   -7763.7464   -948.05287     102002.7      46.7237      46.7237      46.7237 
  143000    110.14873   -8454.8985   -7749.9687   -648.52963     102002.7      46.7237      46.7237      46.7237 
  144000    107.16458    -8467.017   -7781.1852   -802.68379     102002.7      46.7237      46.7237      46.7237 
  145000    110.11382   -8445.1576   -7740.4513   -705.43876     102002.7      46.7237      46.7237      46.7237 
  146000    113.24568   -8451.7765   -7727.0268   -629.99898     102002.7      46.7237      46.7237      46.7237 
  147000    108.06033   -8448.5826   -7757.0182   -763.72126     102002.7      46.7237      46.7237      46.7237 
  148000    108.74717   -8462.5316   -7766.5715   -759.87633     102002.7      46.7237      46.7237      46.7237 
  149000    113.06983   -8482.0256   -7758.4014    -926.2436     102002.7      46.7237      46.7237      46.7237 
  150000    108.28374   -8455.7596   -7762.7654    -884.1373     102002.7      46.7237      46.7237      46.7237 
  151000    110.18425   -8453.2813   -7748.1242   -623.86341     102002.7      46.7237      46.7237      46.7237 
  152000    112.75601   -8456.6897   -7735.0739   -807.88728     102002.7      46.7237      46.7237      46.7237 
  153000    111.67839   -8454.1292   -7739.4099   -720.11583     102002.7      46.7237      46.7237      46.7237 
  154000     110.7111    -8446.031   -7737.5022   -871.90026     102002.7      46.7237      46.7237      46.7237 
  155000    113.03204   -8439.5459   -7716.1635   -805.21926     102002.7      46.7237      46.7237      46.7237 
  156000    109.37373   -8428.5981   -7728.6282   -569.61267     102002.7      46.7237      46.7237      46.7237 
  157000    111.18608   -8457.5475    -7745.979   -799.23007     102002.7      46.7237      46.7237      46.7237 
  158000    107.76333   -8458.0494   -7768.3858   -963.56544     102002.7      46.7237      46.7237      46.7237 
  159000    107.91333   -8445.4166    -7754.793   -820.42594     102002.7      46.7237      46.7237      46.7237 
  160000     108.1672   -8452.8777   -7760.6293   -899.58895     102002.7      46.7237      46.7237      46.7237 
  161000    111.03974   -8443.6464   -7733.0144   -957.92269     102002.7      46.7237      46.7237      46.7237 
  162000    107.66836   -8444.1957   -7755.1398   -833.77229     102002.7      46.7237      46.7237      46.7237 
  163000    111.11256   -8438.0151    -7726.917   -617.55759     102002.7      46.7237      46.7237      46.7237 
  164000    112.38492   -8443.2895   -7724.0486   -980.79048     102002.7      46.7237      46.7237      46.7237 
  165000    111.07957   -8445.0506   -7734.1637   -1109.5207     102002.7      46.7237      46.7237      46.7237 
  166000    108.98529   -8434.0882   -7736.6042   -925.53648     102002.7      46.7237      46.7237      46.7237 
  167000    111.69591    -8431.744   -7716.9126   -641.80042     102002.7      46.7237      46.7237      46.7237 
  168000    107.47419   -8455.6426   -7767.8294   -850.88178     102002.7      46.7237      46.7237      46.7237 
  169000    110.17909   -8457.9728   -7752.8488    -762.7572     102002.7      46.7237      46.7237      46.7237 
  170000    111.73002   -8446.7112   -7731.6615    -899.4242     102002.7      46.7237      46.7237      46.7237 
  171000    110.34175    -8451.314   -7745.1489   -526.73279     102002.7      46.7237      46.7237      46.7237 
  172000    112.68954   -8472.8249   -7751.6345   -816.22693     102002.7      46.7237      46.7237      46.7237 
  173000    109.78308   -8475.9574   -7773.3678   -793.80022     102002.7      46.7237      46.7237      46.7237 
  174000    109.75594     -8455.06    -7752.644   -862.28995     102002.7      46.7237      46.7237      46.7237 
  175000    113.76947   -8432.2054   -7704.1036   -705.65406     102002.7      46.7237      46.7237      46.7237 
  176000    108.29041   -8437.5937   -7744.5569   -681.55045     102002.7      46.7237      46.7237      46.7237 
  177000    110.14687   -8432.3429    -7727.425   -644.09501     102002.7      46.7237      46.7237      46.7237 
  178000     110.3257   -8472.0128   -7765.9504   -522.74577     102002.7      46.7237      46.7237      46.7237 
  179000    109.97513   -8425.4439   -7721.6252    -676.2591     102002.7      46.7237      46.7237      46.7237 
  180000    106.27435   -8454.3301   -7774.1956   -966.06491     102002.7      46.7237      46.7237      46.7237 
  181000    106.90653   -8457.6551   -7773.4748   -1062.6526     102002.7      46.7237      46.7237      46.7237 
  182000    111.68184   -8476.1744   -7761.4331   -778.32758     102002.7      46.7237      46.7237      46.7237 
  183000    109.98681   -8451.4083   -7747.5148   -672.70285     102002.7      46.7237      46.7237      46.7237 
  184000    111.16625   -8466.9849   -7755.5432   -731.32975     102002.7      46.7237      46.7237      46.7237 
  185000    108.98986   -8463.8469   -7766.3336   -653.87501     102002.7      46.7237      46.7237      46.7237 
  186000    110.57687   -8437.1565   -7729.4868   -637.29534     102002.7      46.7237      46.7237      46.7237 
  187000     108.9849   -8451.5169   -7754.0354   -567.02896     102002.7      46.7237      46.7237      46.7237 
  188000    106.70375   -8474.5618   -7791.6792   -625.67833     102002.7      46.7237      46.7237      46.7237 
  189000    111.68013   -8462.4658   -7747.7354   -396.12432     102002.7      46.7237      46.7237      46.7237 
  190000    108.43107   -8442.3318   -7748.3947   -530.56959     102002.7      46.7237      46.7237      46.7237 
  191000    110.45309   -8444.0153   -7737.1377   -795.73778     102002.7      46.7237      46.7237      46.7237 
  192000    114.35985    -8433.355   -7701.4749   -769.39585     102002.7      46.7237      46.7237      46.7237 
  193000    111.91687   -8437.6486   -7721.4032    -498.1343     102002.7      46.7237      46.7237      46.7237 
  194000    107.38338   -8436.8996   -7749.6675   -813.53588     102002.7      46.7237      46.7237      46.7237 
  195000    109.60281   -8437.4318   -7735.9958   -564.87419     102002.7      46.7237      46.7237      46.7237 
  196000    106.66979   -8446.4244   -7763.7591   -608.34026     102002.7      46.7237      46.7237      46.7237 
  197000    112.07542   -8458.3856   -7741.1254   -487.42091     102002.7      46.7237      46.7237      46.7237 
  198000    110.41083   -8452.6024   -7745.9953   -620.20705     102002.7      46.7237      46.7237      46.7237 
  199000    109.17718   -8433.3785   -7734.6665   -587.65968     102002.7      46.7237      46.7237      46.7237 
  200000    110.08014   -8466.7334   -7762.2426   -789.40679     102002.7      46.7237      46.7237      46.7237 
  201000    110.39587   -8447.2258   -7740.7144   -557.83327     102002.7      46.7237      46.7237      46.7237 
  202000    107.61429   -8428.9826   -7740.2728   -925.55399     102002.7      46.7237      46.7237      46.7237 
  203000    111.62355   -8460.7654    -7746.397   -679.12918     102002.7      46.7237      46.7237      46.7237 
  204000    111.51908   -8442.1081   -7728.4083   -528.86113     102002.7      46.7237      46.7237      46.7237 
  205000    108.77488   -8450.1047   -7753.9673    -818.9502     102002.7      46.7237      46.7237      46.7237 
  206000    110.41413     -8436.56   -7729.9317   -424.15292     102002.7      46.7237      46.7237      46.7237 
  207000    109.56818   -8455.9653    -7754.751    -612.0503     102002.7      46.7237      46.7237      46.7237 
  208000    107.69626   -8451.5337   -7762.2993   -736.37123     102002.7      46.7237      46.7237      46.7237 
  209000    109.03939   -8448.1934   -7750.3632   -491.97929     102002.7      46.7237      46.7237      46.7237 
  210000    111.73628   -8423.4873   -7708.3976   -618.31324     102002.7      46.7237      46.7237      46.7237 
  211000    109.40619   -8437.0761   -7736.8984   -645.06967     102002.7      46.7237      46.7237      46.7237 
  212000    106.78294   -8452.1991   -7768.8097   -896.04177     102002.7      46.7237      46.7237      46.7237 
  213000    109.49513    -8446.191   -7745.4442   -938.00031     102002.7      46.7237      46.7237      46.7237 
  214000    110.52883   -8450.8233    -7743.461   -751.24491     102002.7      46.7237      46.7237      46.7237 
  215000    108.76236   -8455.2622   -7759.2049   -939.66501     102002.7      46.7237      46.7237      46.7237 
  216000    109.05293   -8448.6581   -7750.7413   -758.68227     102002.7      46.7237      46.7237      46.7237 
  217000    108.14433   -8435.0762   -7742.9742   -1209.7688     102002.7      46.7237      46.7237      46.7237 
  218000    110.28852   -8440.9766   -7735.1522   -992.18517     102002.7      46.7237      46.7237      46.7237 
  219000    110.10486     -8439.55   -7734.9011   -591.82393     102002.7      46.7237      46.7237      46.7237 
  220000     109.1896   -8439.7616   -7740.9701   -632.24727     102002.7      46.7237      46.7237      46.7237 
  221000    107.89454   -8454.1301   -7763.6267   -329.43197     102002.7      46.7237      46.7237      46.7237 
  222000    110.84042   -8447.1547   -7737.7983    -625.9171     102002.7      46.7237      46.7237      46.7237 
  223000    111.15943   -8437.5358   -7726.1378   -614.65269     102002.7      46.7237      46.7237      46.7237 
  224000    113.95615   -8438.3251   -7709.0286   -748.30359     102002.7      46.7237      46.7237      46.7237 
  225000    108.91541   -8448.1406   -7751.1038   -755.27046     102002.7      46.7237      46.7237      46.7237 
  226000    108.53669   -8459.0321    -7764.419   -297.66114     102002.7      46.7237      46.7237      46.7237 
  227000    111.68345   -8436.5888   -7721.8372   -901.27191     102002.7      46.7237      46.7237      46.7237 
  228000    111.36429   -8466.3774   -7753.6684   -539.12071     102002.7      46.7237      46.7237      46.7237 
  229000    109.75526   -8437.5659   -7735.1542   -876.11574     102002.7      46.7237      46.7237      46.7237 
  230000    113.88963   -8438.4461   -7709.5753   -841.58027     102002.7      46.7237      46.7237      46.7237 
  231000    108.42404   -8431.7471    -7737.855   -700.04536     102002.7      46.7237      46.7237      46.7237 
  232000    110.36996   -8427.9038   -7721.5583   -538.65112     102002.7      46.7237      46.7237      46.7237 
  233000    112.28036   -8450.4945   -7731.9227   -641.25375     102002.7      46.7237      46.7237      46.7237 
  234000    109.44542   -8457.3311   -7756.9024   -562.57463     102002.7      46.7237      46.7237      46.7237 
  235000    112.17715   -8433.7268   -7715.8155   -761.87009     102002.7      46.7237      46.7237      46.7237 
  236000    108.51699   -8431.8112   -7737.3242   -632.82098     102002.7      46.7237      46.7237      46.7237 
  237000    110.25295   -8424.6084   -7719.0116   -695.12413     102002.7      46.7237      46.7237      46.7237 
  238000    112.66565   -8438.1623   -7717.1248   -937.40724     102002.7      46.7237      46.7237      46.7237 
  239000    113.00478   -8448.7071   -7725.4992   -793.97419     102002.7      46.7237      46.7237      46.7237 
  240000    109.55321   -8407.6156    -7706.497   -653.19073     102002.7      46.7237      46.7237      46.7237 
  241000    113.26811   -8441.8449   -7716.9517   -785.29131     102002.7      46.7237      46.7237      46.7237 
  242000    112.53138   -8422.9298   -7702.7516   -1186.6899     102002.7      46.7237      46.7237      46.7237 
  243000    111.11417   -8428.4775   -7717.3691    -883.3136     102002.7      46.7237      46.7237      46.7237 
  244000    110.78473   -8431.3338   -7722.3337   -621.01108     102002.7      46.7237      46.7237      46.7237 
  245000    110.68545   -8471.5425   -7763.1779   -837.64968     102002.7      46.7237      46.7237      46.7237 
  246000    107.82986   -8432.5156   -7742.4261   -1200.8716     102002.7      46.7237      46.7237      46.7237 
  247000    111.95323   -8439.7301   -7723.2519   -574.13003     102002.7      46.7237      46.7237      46.7237 
  248000    108.89237   -8429.7531   -7732.8638   -859.27105     102002.7      46.7237      46.7237      46.7237 
  249000    105.81941   -8441.1558   -7763.9328   -858.32408     102002.7      46.7237      46.7237      46.7237 
  250000    111.27174   -8441.7447    -7729.628   -634.98308     102002.7      46.7237      46.7237      46.7237 
  251000    111.75783   -8438.5921   -7723.3644   -1004.2358     102002.7      46.7237      46.7237      46.7237 
  252000    107.16039   -8442.8399    -7757.035   -844.06371     102002.7      46.7237      46.7237      46.7237 
  253000    110.43664   -8438.8004   -7732.0281    -714.0888     102002.7      46.7237      46.7237      46.7237 
  254000    111.15493   -8446.1329   -7734.7637   -734.22646     102002.7      46.7237      46.7237      46.7237 
  255000    112.71299   -8451.9744   -7730.6339   -775.40155     102002.7      46.7237      46.7237      46.7237 
  256000     112.6249     -8468.24   -7747.4633   -997.60785     102002.7      46.7237      46.7237      46.7237 
  257000     108.0669   -8465.9726   -7774.3662   -552.01623     102002.7      46.7237      46.7237      46.7237 
  258000    110.57653    -8437.431   -7729.7634   -872.46966     102002.7      46.7237      46.7237      46.7237 
  259000    107.79484   -8446.1391   -7756.2738   -786.96293     102002.7      46.7237      46.7237      46.7237 
  260000    107.17257    -8432.708   -7746.8251   -914.23153     102002.7      46.7237      46.7237      46.7237 
  261000    106.71167   -8448.7885   -7765.8552   -1009.3051     102002.7      46.7237      46.7237      46.7237 
  262000    109.43224   -8456.3674    -7756.023   -934.34646     102002.7      46.7237      46.7237      46.7237 
  263000    107.83404    -8448.626   -7758.5097   -906.16144     102002.7      46.7237      46.7237      46.7237 
  264000    108.79561   -8439.2958   -7743.0257   -683.31598     102002.7      46.7237      46.7237      46.7237 
  265000    112.56019    -8438.529   -7718.1664   -575.28865     102002.7      46.7237      46.7237      46.7237 
  266000    112.06862   -8455.9591   -7738.7425    -484.9274     102002.7      46.7237      46.7237      46.7237 
  267000    109.10974   -8446.5677   -7748.2872   -718.59192     102002.7      46.7237      46.7237      46.7237 
  268000    107.69525   -8435.6917   -7746.4637   -612.68308     102002.7      46.7237      46.7237      46.7237 
  269000     104.1407   -8424.1908   -7757.7112   -710.12296     102002.7      46.7237      46.7237      46.7237 
  270000    111.83159   -8447.9469   -7732.2472   -507.15533     102002.7      46.7237      46.7237      46.7237 
  271000     109.5056   -8440.7099    -7739.896   -609.77468     102002.7      46.7237      46.7237      46.7237 
  272000    109.09643   -8455.1011   -7756.9059   -812.71766     102002.7      46.7237      46.7237      46.7237 
  273000    112.46858   -8451.8913   -7732.1149   -775.88147     102002.7      46.7237      46.7237      46.7237 
  274000    108.82429    -8461.973   -7765.5194   -714.82682     102002.7      46.7237      46.7237      46.7237 
  275000    107.28245   -8415.4426   -7728.8565    -644.5113     102002.7      46.7237      46.7237      46.7237 
  276000      105.034   -8442.6886   -7770.4921   -758.59973     102002.7      46.7237      46.7237      46.7237 
  277000    108.18526   -8470.3131   -7777.9492   -849.51708     102002.7      46.7237      46.7237      46.7237 
  278000    109.38229   -8445.6738   -7745.6491   -730.44509     102002.7      46.7237      46.7237      46.7237 
  279000    110.84082   -8445.6312   -7736.2722   -951.24303     102002.7      46.7237      46.7237      46.7237 
  280000    108.78061   -8437.6494   -7741.4753   -985.14642     102002.7      46.7237      46.7237      46.7237 
  281000    107.28459   -8467.5914   -7780.9916   -819.83247     102002.7      46.7237      46.7237      46.7237 
  282000    110.17504   -8437.5422   -7732.4441   -743.86333     102002.7      46.7237      46.7237      46.7237 
  283000    108.69111   -8430.0036   -7734.4023   -548.49611     102002.7      46.7237      46.7237      46.7237 
  284000    109.72584   -8488.3938   -7786.1705   -621.22868     102002.7      46.7237      46.7237      46.7237 
  285000    113.77229   -8445.7167   -7717.5969   -824.35802     102002.7      46.7237      46.7237      46.7237 
  286000    110.73218   -8467.5593   -7758.8955   -574.11014     102002.7      46.7237      46.7237      46.7237 
  287000    111.98495   -8445.5272    -7728.846   -977.95596     102002.7      46.7237      46.7237      46.7237 
  288000    108.60593   -8445.4038   -7750.3476   -652.71817     102002.7      46.7237      46.7237      46.7237 
  289000    109.46021   -8432.0702   -7731.5468    -1063.829     102002.7      46.7237      46.7237      46.7237 
  290000    108.68829    -8436.168   -7740.5848   -860.86664     102002.7      46.7237      46.7237      46.7237 
  291000    109.86641   -8476.2124   -7773.0895   -795.12077     102002.7      46.7237      46.7237      46.7237 
  292000     108.2316    -8455.005   -7762.3444   -716.07159     102002.7      46.7237      46.7237      46.7237 
  293000    113.36734    -8444.169   -7718.6408   -227.68304     102002.7      46.7237      46.7237      46.7237 
  294000    108.29409   -8450.8517   -7757.7913   -619.47287     102002.7      46.7237      46.7237      46.7237 
  295000    109.43249   -8442.0178   -7741.6718   -691.94079     102002.7      46.7237      46.7237      46.7237 
  296000    108.91793   -8447.4147   -7750.3619   -471.91022     102002.7      46.7237      46.7237      46.7237 
  297000    107.00411   -8436.1483   -7751.3435   -609.34907     102002.7      46.7237      46.7237      46.7237 
  298000    108.92986    -8464.221   -7767.0917   -531.73709     102002.7      46.7237      46.7237      46.7237 
  299000    109.52622   -8442.3685   -7741.4227   -491.53051     102002.7      46.7237      46.7237      46.7237 
  300000    112.41816   -8431.1809   -7711.7273   -489.57335     102002.7      46.7237      46.7237      46.7237 
  301000    106.91828   -8448.0684   -7763.8129   -320.57475     102002.7      46.7237      46.7237      46.7237 
  302000    109.43899   -8452.0356   -7751.6481   -669.68617     102002.7      46.7237      46.7237      46.7237 
  303000     107.1402   -8453.7336   -7768.0578   -724.74578     102002.7      46.7237      46.7237      46.7237 
  304000     109.1369   -8416.6846   -7718.2304    -472.5983     102002.7      46.7237      46.7237      46.7237 
  305000    107.26354   -8469.7689   -7783.3038   -757.50727     102002.7      46.7237      46.7237      46.7237 
  306000    111.26735   -8469.9058   -7757.8171   -803.66982     102002.7      46.7237      46.7237      46.7237 
  307000    109.05617   -8452.4492   -7754.5116   -639.91545     102002.7      46.7237      46.7237      46.7237 
  308000    106.75783   -8452.6883   -7769.4596   -830.12556     102002.7      46.7237      46.7237      46.7237 
  309000    110.60111   -8458.0738   -7750.2489   -532.78201     102002.7      46.7237      46.7237      46.7237 
  310000    105.93874   -8447.5265   -7769.5399      -931.46     102002.7      46.7237      46.7237      46.7237 
  311000     109.9219   -8447.0641    -7743.586   -820.04548     102002.7      46.7237      46.7237      46.7237 
  312000    111.00092   -8448.7054   -7738.3218   -887.29223     102002.7      46.7237      46.7237      46.7237 
  313000    106.28913   -8445.4545   -7765.2254   -791.75927     102002.7      46.7237      46.7237      46.7237 
  314000    108.25028   -8438.9632   -7746.1831   -769.66935     102002.7      46.7237      46.7237      46.7237 
  315000    110.11765   -8425.4469   -7720.7161   -881.90977     102002.7      46.7237      46.7237      46.7237 
  316000    110.73921   -8431.3551   -7722.6464   -725.34786     102002.7      46.7237      46.7237      46.7237 
  317000    111.48258   -8427.1133   -7713.6471   -989.93622     102002.7      46.7237      46.7237      46.7237 
  318000     113.4731   -8466.8569   -7740.6519   -450.36696     102002.7      46.7237      46.7237      46.7237 
  319000    111.02818   -8453.5111   -7742.9531    -476.5683     102002.7      46.7237      46.7237      46.7237 
  320000     110.1614   -8455.2048    -7750.194   -470.02861     102002.7      46.7237      46.7237      46.7237 
  321000    111.44484   -8435.8463   -7722.6217   -1045.4858     102002.7      46.7237      46.7237      46.7237 
  322000    108.42758   -8469.9492   -7776.0345   -784.83951     102002.7      46.7237      46.7237      46.7237 
  323000    108.32001   -8431.1834   -7737.9571    -773.1055     102002.7      46.7237      46.7237      46.7237 
  324000    107.52082   -8429.1663   -7741.0547   -964.74355     102002.7      46.7237      46.7237      46.7237 
  325000    110.15207   -8444.5645   -7739.6133    -686.0055     102002.7      46.7237      46.7237      46.7237 
  326000    112.48077   -8436.3518   -7716.4975   -1030.4853     102002.7      46.7237      46.7237      46.7237 
  327000    109.81982   -8428.2217   -7725.3969   -889.71119     102002.7      46.7237      46.7237      46.7237 
  328000    112.21337   -8440.4863   -7722.3432   -970.81364     102002.7      46.7237      46.7237      46.7237 
  329000     106.9023   -8447.0137   -7762.8605   -967.10388     102002.7      46.7237      46.7237      46.7237 
  330000     109.3525   -8413.5494   -7713.7154   -634.34901     102002.7      46.7237      46.7237      46.7237 
  331000    110.35981   -8436.3113   -7730.0307   -931.37778     102002.7      46.7237      46.7237      46.7237 
  332000    111.87159   -8411.5343   -7695.5786    -1085.296     102002.7      46.7237      46.7237      46.7237 
  333000    111.20246   -8417.8495   -7706.1761   -843.02925     102002.7      46.7237      46.7237      46.7237 
  334000    105.28893   -8454.9465   -7781.1185   -1007.1845     102002.7      46.7237      46.7237      46.7237 
  335000    109.91336   -8427.5081   -7724.0847   -913.34205     102002.7      46.7237      46.7237      46.7237 
  336000    111.44425   -8436.7328    -7723.512   -951.35871     102002.7      46.7237      46.7237      46.7237 
  337000    108.48363   -8424.0245   -7729.7511   -852.16973     102002.7      46.7237      46.7237      46.7237 
  338000    110.36583   -8415.8479   -7709.5287   -841.15589     102002.7      46.7237      46.7237      46.7237 
  339000    109.27223   -8450.6071   -7751.2868   -810.31519     102002.7      46.7237      46.7237      46.7237 
  340000    112.95225   -8440.1976   -7717.3259   -727.78376     102002.7      46.7237      46.7237      46.7237 
  341000    116.21477    -8432.389   -7688.6378   -677.90355     102002.7      46.7237      46.7237      46.7237 
  342000     111.8147   -8430.0998   -7714.5082   -1096.7706     102002.7      46.7237      46.7237      46.7237 
  343000    108.45331     -8430.25   -7736.1706   -808.52056     102002.7      46.7237      46.7237      46.7237 
  344000    108.43431   -8425.6287   -7731.6709   -732.05101     102002.7      46.7237      46.7237      46.7237 
  345000    112.25744   -8440.0731    -7721.648     -897.027     102002.7      46.7237      46.7237      46.7237 
  346000    108.47458   -8464.3048   -7770.0893   -725.59272     102002.7      46.7237      46.7237      46.7237 
  347000    109.17519   -8448.3008   -7749.6015   -884.50395     102002.7      46.7237      46.7237      46.7237 
  348000    106.88398   -8424.0604   -7740.0244    -830.4775     102002.7      46.7237      46.7237      46.7237 
  349000    108.29882   -8434.5527    -7741.462   -828.59457     102002.7      46.7237      46.7237      46.7237 
  350000    111.03344    -8446.062   -7735.4703   -738.89051     102002.7      46.7237      46.7237      46.7237 
  351000    111.25108   -8458.2381   -7746.2536   -542.99637     102002.7      46.7237      46.7237      46.7237 
  352000    111.08843   -8430.7215   -7719.7779   -659.15477     102002.7      46.7237      46.7237      46.7237 
  353000    113.97353   -8458.2739   -7728.8662   -447.64158     102002.7      46.7237      46.7237      46.7237 
  354000    110.23932   -8431.1661   -7725.6566   -571.43981     102002.7      46.7237      46.7237      46.7237 
  355000    111.12183   -8435.9922   -7724.8348    -762.2067     102002.7      46.7237      46.7237      46.7237 
  356000    108.45072    -8451.346   -7757.2832   -790.52134     102002.7      46.7237      46.7237      46.7237 
  357000    109.98587   -8465.2427   -7761.3553   -696.55973     102002.7      46.7237      46.7237      46.7237 
  358000    109.18895   -8456.2951   -7757.5078   -1044.5324     102002.7      46.7237      46.7237      46.7237 
  359000    109.52793   -8425.6406   -7724.6838   -811.67263     102002.7      46.7237      46.7237      46.7237 
  360000    111.54101   -8457.9979   -7744.1579   -760.79957     102002.7      46.7237      46.7237      46.7237 
  361000    110.24554   -8416.6267   -7711.0774   -1056.6814     102002.7      46.7237      46.7237      46.7237 
  362000     109.9516   -8430.5903   -7726.9221   -979.61809     102002.7      46.7237      46.7237      46.7237 
  363000    108.69134   -8425.3039   -7729.7012   -723.24012     102002.7      46.7237      46.7237      46.7237 
  364000    110.19884   -8423.1112   -7717.8608   -702.05298     102002.7      46.7237      46.7237      46.7237 
  365000    109.15009   -8451.8727    -7753.334   -799.03564     102002.7      46.7237      46.7237      46.7237 
  366000     109.0788   -8426.4433   -7728.3609   -803.20864     102002.7      46.7237      46.7237      46.7237 
  367000    107.39679   -8432.7299    -7745.412   -943.64097     102002.7      46.7237      46.7237      46.7237 
  368000      105.287    -8427.307   -7753.4914   -723.10096     102002.7      46.7237      46.7237      46.7237 
  369000    109.07128   -8444.6634   -7746.6291   -717.63645     102002.7      46.7237      46.7237      46.7237 
  370000    110.38807   -8432.0199   -7725.5584   -780.57269     102002.7      46.7237      46.7237      46.7237 
  371000    113.55912   -8430.8753   -7704.1197   -529.37249     102002.7      46.7237      46.7237      46.7237 
  372000    107.59208   -8445.9678   -7757.4001   -708.72561     102002.7      46.7237      46.7237      46.7237 
  373000    110.54882   -8437.4133    -7729.923   -290.08034     102002.7      46.7237      46.7237      46.7237 
  374000    111.52496   -8418.1722   -7704.4349   -877.59945     102002.7      46.7237      46.7237      46.7237 
  375000    106.38306    -8437.917   -7757.0867   -472.69328     102002.7      46.7237      46.7237      46.7237 
  376000    109.04607   -8429.7139    -7731.841   -731.50565     102002.7      46.7237      46.7237      46.7237 
  377000    107.41813   -8419.7011   -7732.2466   -469.13198     102002.7      46.7237      46.7237      46.7237 
  378000    111.17829    -8453.987   -7742.4682   -683.03404     102002.7      46.7237      46.7237      46.7237 
  379000    113.38739   -8433.0118   -7707.3553   -1014.9142     102002.7      46.7237      46.7237      46.7237 
  380000    111.38458   -8433.2809    -7720.442   -681.66177     102002.7      46.7237      46.7237      46.7237 
  381000    112.71519   -8438.4809   -7717.1263   -679.20384     102002.7      46.7237      46.7237      46.7237 
  382000    114.66424   -8457.4069   -7723.5788    -951.9214     102002.7      46.7237      46.7237      46.7237 
  383000    110.23874   -8439.3387    -7733.833   -657.22463     102002.7      46.7237      46.7237      46.7237 
  384000    109.98428   -8455.4735   -7751.5962   -722.94935     102002.7      46.7237      46.7237      46.7237 
  385000    109.19573    -8432.056   -7733.2253   -1166.5598     102002.7      46.7237      46.7237      46.7237 
  386000    109.49871   -8427.0662   -7726.2964   -1060.2777     102002.7      46.7237      46.7237      46.7237 
  387000    109.67857   -8418.5356   -7716.6148   -860.84044     102002.7      46.7237      46.7237      46.7237 
  388000     114.5648   -8443.4263   -7710.2346   -782.53318     102002.7      46.7237      46.7237      46.7237 
  389000    111.08644   -8403.9142   -7692.9832   -876.21907     102002.7      46.7237      46.7237      46.7237 
  390000    110.78826   -8448.7495   -7739.7268   -619.42027     102002.7      46.7237      46.7237      46.7237 
  391000    108.34929   -8438.2951   -7744.8814   -737.71262     102002.7      46.7237      46.7237      46.7237 
  392000    108.27029   -8437.9532   -7745.0451   -771.01621     102002.7      46.7237      46.7237      46.7237 
  393000    110.85087   -8420.0467   -7710.6234   -1003.5073     102002.7      46.7237      46.7237      46.7237 
  394000    110.51809   -8422.7051   -7715.4115   -647.07397     102002.7      46.7237      46.7237      46.7237 
  395000    110.36657   -8433.3841   -7727.0602   -583.38257     102002.7      46.7237      46.7237      46.7237 
  396000    108.40898   -8431.6757     -7737.88   -937.23747     102002.7      46.7237      46.7237      46.7237 
  397000    111.50278   -8452.4889   -7738.8935   -642.87334     102002.7      46.7237      46.7237      46.7237 
  398000    110.05344   -8453.4987   -7749.1788   -541.31351     102002.7      46.7237      46.7237      46.7237 
  399000    109.07006   -8443.3983   -7745.3718   -1036.0637     102002.7      46.7237      46.7237      46.7237 
  400000    108.37379    -8415.091   -7721.5206   -500.52328     102002.7      46.7237      46.7237      46.7237 
  401000    108.00992   -8465.4959   -7774.2541   -675.35049     102002.7      46.7237      46.7237      46.7237 
  402000    111.15492   -8438.8249   -7727.4558   -729.97275     102002.7      46.7237      46.7237      46.7237 
  403000    106.52678   -8461.5195   -7779.7695   -441.78495     102002.7      46.7237      46.7237      46.7237 
  404000    110.30428   -8453.0875   -7747.1623   -671.04999     102002.7      46.7237      46.7237      46.7237 
  405000    112.02644   -8450.6636   -7733.7169   -608.97937     102002.7      46.7237      46.7237      46.7237 
  406000    112.33329   -8446.0396   -7727.1291   -788.94905     102002.7      46.7237      46.7237      46.7237 
  407000    110.41803    -8457.395   -7750.7418   -1025.4586     102002.7      46.7237      46.7237      46.7237 
  408000    109.86826   -8447.5828   -7744.4481   -855.94334     102002.7      46.7237      46.7237      46.7237 
  409000    112.20209   -8449.5674   -7731.4965   -1123.8315     102002.7      46.7237      46.7237      46.7237 
  410000    109.60961   -8447.9733   -7746.4938   -818.71363     102002.7      46.7237      46.7237      46.7237 
  411000    109.65932   -8436.2259   -7734.4282   -616.30524     102002.7      46.7237      46.7237      46.7237 
  412000    109.05667   -8411.4974   -7713.5566   -988.15105     102002.7      46.7237      46.7237      46.7237 
  413000    105.98397   -8459.4323   -7781.1562   -751.24811     102002.7      46.7237      46.7237      46.7237 
  414000    110.76463   -8461.1789   -7752.3075   -970.38548     102002.7      46.7237      46.7237      46.7237 
  415000    109.31926   -8419.7449   -7720.1236   -1096.0396     102002.7      46.7237      46.7237      46.7237 
  416000    109.07253   -8412.6374   -7714.5951    -960.6659     102002.7      46.7237      46.7237      46.7237 
  417000    109.88171   -8455.8597   -7752.6388   -640.06153     102002.7      46.7237      46.7237      46.7237 
  418000    109.94496   -8425.7656     -7722.14   -644.38208     102002.7      46.7237      46.7237      46.7237 
  419000     114.3841   -8437.5548   -7705.5196    -899.2821     102002.7      46.7237      46.7237      46.7237 
  420000    111.28505   -8464.2757   -7752.0737   -418.13786     102002.7      46.7237      46.7237      46.7237 
  421000    105.17213   -8431.0269   -7757.9463   -670.01914     102002.7      46.7237      46.7237      46.7237 
  422000    107.68841     -8440.67   -7751.4858   -710.87488     102002.7      46.7237      46.7237      46.7237 
  423000    111.68628   -8435.1584   -7720.3886   -629.21536     102002.7      46.7237      46.7237      46.7237 
  424000    110.44671   -8435.0246   -7728.1879   -499.52454     102002.7      46.7237      46.7237      46.7237 
  425000    110.25251   -8439.9921   -7734.3982   -338.27704     102002.7      46.7237      46.7237      46.7237 
  426000    108.79501   -8441.4352    -7745.169   -520.37292     102002.7      46.7237      46.7237      46.7237 
  427000    108.48244   -8442.7736   -7748.5078   -470.24913     102002.7      46.7237      46.7237      46.7237 
  428000    113.22003   -8432.5798   -7707.9943   -498.99011     102002.7      46.7237      46.7237      46.7237 
  429000    110.78997   -8434.3409   -7725.3074   -533.22977     102002.7      46.7237      46.7237      46.7237 
  430000    109.90696   -8454.5567   -7751.1742   -702.91179     102002.7      46.7237      46.7237      46.7237 
  431000    106.65965   -8444.2263   -7761.6259   -600.15615     102002.7      46.7237      46.7237      46.7237 
  432000    114.37926   -8413.6182   -7681.6139   -454.91427     102002.7      46.7237      46.7237      46.7237 
  433000    109.42852   -8441.7233   -7741.4028   -545.73157     102002.7      46.7237      46.7237      46.7237 
  434000    108.35938   -8426.9451   -7733.4668   -1001.9048     102002.7      46.7237      46.7237      46.7237 
  435000    110.10161   -8435.0822    -7730.454   -926.53524     102002.7      46.7237      46.7237      46.7237 
  436000    111.15455   -8428.4092   -7717.0424   -608.07884     102002.7      46.7237      46.7237      46.7237 
  437000    112.87355    -8441.748     -7719.38   -569.47997     102002.7      46.7237      46.7237      46.7237 
  438000    108.34129   -8463.4086   -7770.0461    -669.1492     102002.7      46.7237      46.7237      46.7237 
  439000    112.95887   -8466.6455   -7743.7314   -924.56765     102002.7      46.7237      46.7237      46.7237 
  440000    107.92288   -8439.5638   -7748.8791   -714.83753     102002.7      46.7237      46.7237      46.7237 
  441000    108.87271   -8424.0858   -7727.3223    -722.1734     102002.7      46.7237      46.7237      46.7237 
  442000    110.62982   -8454.8033   -7746.7947   -916.23689     102002.7      46.7237      46.7237      46.7237 
  443000    112.47326    -8461.084   -7741.2777    -1003.315     102002.7      46.7237      46.7237      46.7237 
  444000    109.83577   -8445.5813   -7742.6544   -827.69698     102002.7      46.7237      46.7237      46.7237 
  445000    108.90439   -8449.6339   -7752.6677   -959.34646     102002.7      46.7237      46.7237      46.7237 
  446000    110.90808   -8444.9157   -7735.1262    -714.5598     102002.7      46.7237      46.7237      46.7237 
  447000    109.02244   -8429.7717     -7732.05   -803.33931     102002.7      46.7237      46.7237      46.7237 
  448000    110.35661   -8444.7883   -7738.5282   -748.65601     102002.7      46.7237      46.7237      46.7237 
  449000     112.6073    -8452.059    -7731.395   -914.11505     102002.7      46.7237      46.7237      46.7237 
  450000    109.32926   -8449.2013   -7749.5159   -677.50747     102002.7      46.7237      46.7237      46.7237 
  451000    107.16351   -8439.6585   -7753.8336    -756.2204     102002.7      46.7237      46.7237      46.7237 
  452000    107.77124   -8419.7463    -7730.032    -679.4083     102002.7      46.7237      46.7237      46.7237 
  453000    108.79179   -8437.1969   -7740.9513    -357.4124     102002.7      46.7237      46.7237      46.7237 
  454000    109.17098   -8444.3024     -7745.63   -751.27163     102002.7      46.7237      46.7237      46.7237 
  455000    109.19349   -8443.6957   -7744.8793   -669.96585     102002.7      46.7237      46.7237      46.7237 
  456000    111.77028   -8422.2461   -7706.9387   -1130.3063     102002.7      46.7237      46.7237      46.7237 
  457000    110.52896   -8425.9429   -7718.5797   -748.96276     102002.7      46.7237      46.7237      46.7237 
  458000    112.97295   -8428.0814   -7705.0772   -681.07272     102002.7      46.7237      46.7237      46.7237 
  459000    111.36316   -8427.3041   -7714.6023   -985.18378     102002.7      46.7237      46.7237      46.7237 
  460000    110.87373   -8444.2094   -7734.6398   -859.58828     102002.7      46.7237      46.7237      46.7237 
  461000    109.49058   -8427.3446   -7726.6269   -874.45157     102002.7      46.7237      46.7237      46.7237 
  462000    112.99104   -8449.1226   -7726.0026   -854.37426     102002.7      46.7237      46.7237      46.7237 
  463000    111.35279     -8475.22   -7762.5845   -556.75823     102002.7      46.7237      46.7237      46.7237 
  464000    107.72871   -8449.9418   -7760.4997   -652.18602     102002.7      46.7237      46.7237      46.7237 
  465000    109.82759   -8450.4707   -7747.5962   -537.72776     102002.7      46.7237      46.7237      46.7237 
  466000    112.09988    -8465.148   -7747.7312   -684.02992     102002.7      46.7237      46.7237      46.7237 
  467000    110.11276   -8452.9837   -7748.2842    -880.0652     102002.7      46.7237      46.7237      46.7237 
  468000    109.80949   -8425.4016    -7722.643   -975.82975     102002.7      46.7237      46.7237      46.7237 
  469000    110.27749   -8453.0181   -7747.2643   -836.67316     102002.7      46.7237      46.7237      46.7237 
  470000    113.49959   -8452.3641   -7725.9895   -986.49698     102002.7      46.7237      46.7237      46.7237 
  471000    111.07076   -8460.0683   -7749.2378   -826.48134     102002.7      46.7237      46.7237      46.7237 
  472000    110.79063   -8461.8934   -7752.8556   -797.13548     102002.7      46.7237      46.7237      46.7237 
  473000    108.57809   -8446.5977   -7751.7197   -828.81249     102002.7      46.7237      46.7237      46.7237 
  474000    110.83173   -8426.1674   -7716.8665   -895.58774     102002.7      46.7237      46.7237      46.7237 
  475000    113.12619   -8443.9587   -7719.9738    -949.3409     102002.7      46.7237      46.7237      46.7237 
  476000    110.39894    -8472.428    -7765.897   -788.93984     102002.7      46.7237      46.7237      46.7237 
  477000    111.91558   -8443.7247   -7727.4874   -960.49898     102002.7      46.7237      46.7237      46.7237 
  478000    107.58788   -8452.8508     -7764.31   -719.53155     102002.7      46.7237      46.7237      46.7237 
  479000    108.45614    -8443.851   -7749.7535   -655.91116     102002.7      46.7237      46.7237      46.7237 
  480000    107.39395   -8465.0675   -7777.7678   -731.12622     102002.7      46.7237      46.7237      46.7237 
  481000    111.41643   -8466.4319   -7753.3891   -652.39878     102002.7      46.7237      46.7237      46.7237 
  482000    115.58017   -8468.3751   -7728.6852   -775.22433     102002.7      46.7237      46.7237      46.7237 
  483000    108.16059   -8447.3735   -7755.1675   -592.68846     102002.7      46.7237      46.7237      46.7237 
  484000    113.55859   -8476.6207   -7749.8686   -338.36361     102002.7      46.7237      46.7237      46.7237 
  485000    110.72957   -8477.7293   -7769.0823   -411.38302     102002.7      46.7237      46.7237      46.7237 
  486000    112.68163   -8452.2051   -7731.0654   -469.68432     102002.7      46.7237      46.7237      46.7237 
  487000    106.20103   -8448.4372    -7768.772   -774.81374     102002.7      46.7237      46.7237      46.7237 
  488000    113.85524   -8446.9729   -7718.3222   -561.43967     102002.7      46.7237      46.7237      46.7237 
  489000    108.47787    -8470.802   -7776.5654   -643.42731     102002.7      46.7237      46.7237      46.7237 
  490000    108.98506    -8436.341   -7738.8585   -866.10668     102002.7      46.7237      46.7237      46.7237 
  491000    111.14141   -8438.5902   -7727.3076   -674.34533     102002.7      46.7237      46.7237      46.7237 
  492000    109.75873   -8456.3274   -7753.8936   -734.38885     102002.7      46.7237      46.7237      46.7237 
  493000    110.66796   -8470.6504   -7762.3977   -775.65927     102002.7      46.7237      46.7237      46.7237 
  494000    108.12617   -8422.5463   -7730.5605   -908.00227     102002.7      46.7237      46.7237      46.7237 
  495000    111.41067   -8428.8353   -7715.8294   -821.57755     102002.7      46.7237      46.7237      46.7237 
  496000    113.09368   -8447.5009   -7723.7241   -802.14599     102002.7      46.7237      46.7237      46.7237 
  497000    109.97224   -8461.2166   -7757.4164   -755.26526     102002.7      46.7237      46.7237      46.7237 
  498000    108.70954    -8441.626   -7745.9068   -799.32657     102002.7      46.7237      46.7237      46.7237 
  499000    115.12003   -8458.3647   -7721.6197   -895.33195     102002.7      46.7237      46.7237      46.7237 
  500000    112.15727   -8460.9653   -7743.1813   -775.28735     102002.7      46.7237      46.7237      46.7237 
  500501    108.15126   -8446.9344   -7754.7881   -725.18627     102002.7      46.7237      46.7237      46.7237 
Loop time of 641.297 on 24 procs for 500000 steps with 2148 atoms

Performance: 67.364 ns/day, 0.356 hours/ns, 779.670 timesteps/s
99.3% CPU use with 24 MPI tasks x no OpenMP threads

MPI task timing breakdown:
Section |  min time  |  avg time  |  max time  |%varavg| %total
---------------------------------------------------------------
Pair    | 223.11     | 320.57     | 395.6      | 287.2 | 49.99
Bond    | 71.735     | 78.635     | 84.192     |  41.6 | 12.26
Neigh   | 3.7559     | 3.7782     | 3.7966     |   0.7 |  0.59
Comm    | 157.53     | 229.65     | 321.89     | 326.3 | 35.81
Output  | 0.39599    | 0.39639    | 0.39987    |   0.1 |  0.06
Modify  | 3.7201     | 4.1781     | 4.4421     |   9.5 |  0.65
Other   |            | 4.09       |            |       |  0.64

Nlocal:    89.5 ave 118 max 71 min
Histogram: 4 2 4 4 3 2 1 1 1 2
Nghost:    2413.58 ave 2557 max 2320 min
Histogram: 3 9 4 0 0 0 0 1 3 4
Neighs:    7640.04 ave 10204 max 5122 min
Histogram: 4 1 2 3 1 3 2 3 3 2

Total # of neighbors = 183361
Ave neighs/atom = 85.3636
Ave special neighs/atom = 5.36313
Neighbor list builds = 4458
Dangerous builds = 0
Neighbor list info ...
  update every 1 steps, delay 10 steps, check yes
  max neighbors/atom: 2000, page size: 100000
  master list distance cutoff = 16
  ghost atom cutoff = 16
  binsize = 8, bins = 6 6 6
  3 neighbor lists, perpetual/occasional/extra = 3 0 0
  (1) pair buck6d/coul/gauss/dsf, perpetual, skip from (3)
      attributes: half, newton on
      pair build: skip
      stencil: none
      bin: none
  (2) pair lj/cut, perpetual, skip from (3)
      attributes: half, newton on
      pair build: skip
      stencil: none
      bin: none
  (3) neighbor class addition, perpetual
      attributes: half, newton on
      pair build: half/bin/newton
      stencil: half/bin/3d/newton
      bin: standard
Setting up Verlet run ...
  Unit style    : real
  Current step  : 500501
  Time step     : 1
WARNING: Inconsistent image flags (../domain.cpp:786)
Per MPI rank memory allocation (min/avg/max) = 24.14 | 24.52 | 24.61 Mbytes
Step Time TotEng KinEng PotEng E_mol E_pair Temp Pxx Pyy Pzz Pxy Pxz Pyz Cella Cellb Cellc CellAlpha CellBeta CellGamma Volume Press 
  500501       500000   -7754.7881    692.14631   -8446.9344    4293.3186   -12740.253    108.15126   -542.10936    -667.3838   -966.06566   -87.217472   -47.794161    209.38455      46.7237      46.7237      46.7237           90           90           90     102002.7   -725.18627 
  501000       500499   -7752.6208     709.1081   -8461.7289    4276.6044   -12738.333    110.80162   -1046.1662   -1011.2015   -580.53584   -154.19598     297.0657    7.5689998      46.7237      46.7237      46.7237           90           90           90     102002.7    -879.3012 
  502000       501499   -7747.9177    678.03019   -8425.9479    4296.8456   -12722.794    105.94554   -804.66425   -368.15536   -846.78875   -68.451379   -133.65659   -71.085686      46.7237      46.7237      46.7237           90           90           90     102002.7   -673.20278 
  503000       502499   -7715.6296    726.98471   -8442.6143    4297.2027   -12739.817    113.59493   -1275.7123   -806.78539   -475.74873    123.59665    137.91998    118.71797      46.7237      46.7237      46.7237           90           90           90     102002.7    -852.7488 
  504000       503499   -7759.7442    689.14515   -8448.8894    4286.2024   -12735.092    107.68231   -745.53585   -4.8977006   -486.04451     23.80663     -2.58665     198.6333      46.7237      46.7237      46.7237           90           90           90     102002.7   -412.15935 
  505000       504499   -7749.1098    702.42293   -8451.5327     4285.656   -12737.189    109.75703   -386.23745   -1091.0944   -830.11514   -99.040877    171.15586   -57.227064      46.7237      46.7237      46.7237           90           90           90     102002.7     -769.149 
  506000       505499   -7771.1195     684.0877   -8455.2072    4276.8594   -12732.067    106.89206   -518.90733   -675.53656   -707.19435   -45.299643    -200.2174    19.696153      46.7237      46.7237      46.7237           90           90           90     102002.7   -633.87941 
  507000       506499   -7763.1523    700.96427   -8464.1166    4286.2869   -12750.404     109.5291    -638.6337    123.79568   -669.30668   -151.51757    73.771998   -68.283133      46.7237      46.7237      46.7237           90           90           90     102002.7    -394.7149 
  508000       507499   -7742.5045    742.45154   -8484.9561    4281.0202   -12765.976    116.01169    -617.0736    -1044.925   -1037.6336    149.82628   -120.64247   -65.537878      46.7237      46.7237      46.7237           90           90           90     102002.7   -899.87742 
  509000       508499   -7775.9363    698.39693   -8474.3332    4285.2575   -12759.591    109.12795   -692.88941   -864.76897   -990.02014    68.404297   -204.47111     7.289388      46.7237      46.7237      46.7237           90           90           90     102002.7   -849.22617 
  510000       509499   -7762.5498    690.32031   -8452.8701    4292.5232   -12745.393    107.86593   -826.44736   -801.89873   -980.20885    48.750418   -5.7583139   -148.81707      46.7237      46.7237      46.7237           90           90           90     102002.7   -869.51831 
  511000       510499   -7752.5271    712.14151   -8464.6686    4270.3349   -12735.003     111.2756   -791.02676   -812.89062   -743.34894   -88.809698    9.8836784   -29.095609      46.7237      46.7237      46.7237           90           90           90     102002.7   -782.42211 
  512000       511499   -7738.9196     706.1973   -8445.1169    4279.7747   -12724.892    110.34679   -1002.9795    -641.5666   -509.72408    257.72878   -145.91017   -37.607009      46.7237      46.7237      46.7237           90           90           90     102002.7   -718.09005 
  513000       512499    -7770.363    698.90976   -8469.2728    4277.5764   -12746.849    109.20808   -570.79229   -1149.3278   -1003.1194    89.632895    61.691274    129.20417      46.7237      46.7237      46.7237           90           90           90     102002.7   -907.74649 
  514000       513499   -7755.2532    713.89963   -8469.1528    4278.1021   -12747.255    111.55032    -857.4614    -988.8896   -1012.1871   -136.10857    146.37164    -116.5753      46.7237      46.7237      46.7237           90           90           90     102002.7   -952.84602 
  515000       514499   -7718.5746    717.45034   -8436.0249    4292.4162   -12728.441    112.10513   -658.36973   -786.50746   -641.80281    188.73666    119.46016   -2.9053089      46.7237      46.7237      46.7237           90           90           90     102002.7      -695.56 
  516000       515499   -7746.0853     710.2987    -8456.384    4276.7844   -12733.168    110.98766   -1286.0651   -719.05495   -522.31278   -92.967718    20.367849    65.011403      46.7237      46.7237      46.7237           90           90           90     102002.7    -842.4776 
  517000       516499   -7755.9183    709.70775   -8465.6261     4286.195   -12751.821    110.89532   -830.83294   -599.86725   -777.80684   -240.50284    398.34028    190.57123      46.7237      46.7237      46.7237           90           90           90     102002.7   -736.16901 
  518000       517499    -7731.344    709.51467   -8440.8587    4306.0292   -12746.888    110.86515   -1167.6819   -955.95581   -816.10511    60.408781       133.78    -31.40325      46.7237      46.7237      46.7237           90           90           90     102002.7   -979.91427 
  519000       518499    -7742.835    693.94306   -8436.7781     4294.463   -12731.241    108.43201    -1132.216   -1063.1674   -996.29844    66.950608   -113.19388    156.98145      46.7237      46.7237      46.7237           90           90           90     102002.7   -1063.8939 
  520000       519499   -7747.0572    725.29455   -8472.3517    4268.1307   -12740.482    113.33083   -825.52363   -722.20569   -588.08063   -259.34083    -30.66935   -12.064091      46.7237      46.7237      46.7237           90           90           90     102002.7   -711.93665 
  521000       520499   -7741.9303    698.54784   -8440.4781    4291.8903   -12732.368    109.15153    -586.3418   -688.27499   -857.54364    70.814201    215.25625   -187.07789      46.7237      46.7237      46.7237           90           90           90     102002.7   -710.72014 
  522000       521499   -7717.1869    721.46435   -8438.6513    4298.9784    -12737.63    112.73234   -451.11449   -353.58407   -840.51896    207.03592    4.6469134   -42.364271      46.7237      46.7237      46.7237           90           90           90     102002.7   -548.40584 
  523000       522499   -7721.0367    704.39651   -8425.4332    4296.8203   -12722.253    110.06541    -532.8484   -1010.3331   -467.85481   -97.216719    134.29897    -352.8419      46.7237      46.7237      46.7237           90           90           90     102002.7   -670.34545 
  524000       523499   -7737.6966    714.63171   -8452.3283    4285.9662   -12738.295    111.66471   -764.46871    -1126.351    -894.6461    131.54077   -59.276882     113.0323      46.7237      46.7237      46.7237           90           90           90     102002.7   -928.48861 
  525000       524499   -7714.2186    729.26513   -8443.4837    4304.4149   -12747.899    113.95125   -424.98053   -626.63763   -602.90676    271.49245    7.0930241      -49.864      46.7237      46.7237      46.7237           90           90           90     102002.7   -551.50831 
  526000       525499   -7743.5323    688.97535   -8432.5077    4295.3323    -12727.84    107.65578   -1158.6877   -1129.2303     -581.586   -40.565115    165.17333     113.0628      46.7237      46.7237      46.7237           90           90           90     102002.7   -956.50134 
  527000       526499   -7724.6891    715.20679   -8439.8959    4302.1067   -12742.003    111.75457   -520.38002   -618.25166   -361.92468   -206.81107    300.51617    183.21272      46.7237      46.7237      46.7237           90           90           90     102002.7   -500.18545 
  528000       527499   -7729.8666    705.01108   -8434.8777    4299.8172   -12734.695    110.16144   -551.87283   -766.60681   -856.09503   -292.62615   -83.629477   -149.27755      46.7237      46.7237      46.7237           90           90           90     102002.7   -724.85822 
  529000       528499   -7812.0542      669.106   -8481.1602    4263.5006   -12744.661    104.55109   -469.19361   -469.68771    -940.8736    34.064991   -283.72462    69.620656      46.7237      46.7237      46.7237           90           90           90     102002.7   -626.58497 
  530000       529499   -7744.5029     701.2355   -8445.7384    4290.1648   -12735.903    109.57148   -184.41052   -1113.0746   -669.18425    189.06281    122.66344   -148.07148      46.7237      46.7237      46.7237           90           90           90     102002.7   -655.55646 
  531000       530499   -7735.5779    715.45281   -8451.0307    4284.7364   -12735.767    111.79301    -627.4338   -853.09778   -862.90162   -255.48194   -82.240919    92.906252      46.7237      46.7237      46.7237           90           90           90     102002.7    -781.1444 
  532000       531499   -7728.4169    720.29453   -8448.7114    4281.4993   -12730.211    112.54955   -713.87002   -834.58691   -636.73461   -70.933446     124.7424   -4.0439235      46.7237      46.7237      46.7237           90           90           90     102002.7   -728.39718 
  533000       532499    -7738.145    695.06066   -8433.2057    4315.3696   -12748.575    108.60664   -804.31958   -835.27881   -979.14547   -123.37479   -183.14607    15.391494      46.7237      46.7237      46.7237           90           90           90     102002.7   -872.91462 
  534000       533499   -7750.5284    684.97514   -8435.5035    4308.4881   -12743.992    107.03072   -890.18546   -976.89054   -572.56528    80.173996    165.64967    36.096062      46.7237      46.7237      46.7237           90           90           90     102002.7   -813.21376 
  535000       534499   -7735.4487    714.60638   -8450.0551    4307.0389   -12757.094    111.66075   -482.51847   -597.28865    -354.4428   -137.23005   -32.116409   -223.37915      46.7237      46.7237      46.7237           90           90           90     102002.7   -478.08331 
  536000       535499   -7746.3509    710.21128   -8456.5622    4281.9538   -12738.516    110.97399   -917.04883   -581.23545   -1321.0631   -44.942529   -34.966804    36.962306      46.7237      46.7237      46.7237           90           90           90     102002.7   -939.78245 
  537000       536499   -7739.1843    684.25524   -8423.4395    4298.8874   -12722.327    106.91824   -310.32667   -668.51279   -762.31971   -55.111583    25.473658    201.70426      46.7237      46.7237      46.7237           90           90           90     102002.7   -580.38639 
  538000       537499   -7748.3856    688.32914   -8436.7148    4295.0849     -12731.8     107.5548   -781.47859   -663.67483   -243.10927    168.39394    105.91355   -63.771286      46.7237      46.7237      46.7237           90           90           90     102002.7   -562.75423 
  539000       538499   -7717.0137    710.69716   -8427.7109    4293.7757   -12721.487    111.04992   -769.80606   -1038.1057   -401.80513    3.1107421    163.16255   -12.804415      46.7237      46.7237      46.7237           90           90           90     102002.7    -736.5723 
  540000       539499   -7711.8366     703.1511   -8414.9877    4297.4531   -12712.441    109.87081   -1037.2135   -773.15801   -563.88973   -29.375928    115.71544    145.79448      46.7237      46.7237      46.7237           90           90           90     102002.7    -791.4204 
  541000       540499   -7738.2802    697.32356   -8435.6038    4285.9938   -12721.598    108.96023   -630.58169   -645.29047   -657.24997    35.368773    82.369445    110.92464      46.7237      46.7237      46.7237           90           90           90     102002.7   -644.37404 
  542000       541499   -7724.2426    732.72225   -8456.9649    4274.3189   -12731.284    114.49144   -74.470046   -630.26608   -547.37872   -216.08337    108.29503   -58.810636      46.7237      46.7237      46.7237           90           90           90     102002.7   -417.37162 
  543000       542499   -7728.4186    714.24098   -8442.6596    4269.6275   -12712.287    111.60365   -1022.3792   -676.00779   -921.30873    337.67135    175.31602    90.863749      46.7237      46.7237      46.7237           90           90           90     102002.7    -873.2319 
  544000       543499   -7796.6005    674.02469   -8470.6252    4258.8634   -12729.489    105.31966   -842.18421   -789.75447   -799.74405    166.05696    -219.8654    -184.7805      46.7237      46.7237      46.7237           90           90           90     102002.7   -810.56091 
  545000       544499   -7734.4325    711.89839   -8446.3309    4300.9632   -12747.294    111.23761   -865.55317    -1002.452   -679.78628    98.508697   -152.48329    234.55485      46.7237      46.7237      46.7237           90           90           90     102002.7   -849.26383 
  546000       545499    -7718.665    705.18207   -8423.8471    4296.0271   -12719.874    110.18816   -883.88463   -593.07254   -412.71354    15.485229   -108.80188    399.68587      46.7237      46.7237      46.7237           90           90           90     102002.7   -629.89023 
  547000       546499   -7755.6358    707.59863   -8463.2345    4270.6248   -12733.859    110.56576   -483.91942   -761.81574   -312.72848    100.35485   -44.340407    -110.9808      46.7237      46.7237      46.7237           90           90           90     102002.7   -519.48788 
  548000       547499   -7731.3195    690.19114   -8421.5107    4297.8778   -12719.388    107.84575   -1235.3127   -1126.8416    -623.7788   -111.93989    66.556978    -210.5415      46.7237      46.7237      46.7237           90           90           90     102002.7   -995.31104 
  549000       548499   -7719.3616    721.21852   -8440.5801    4273.0958   -12713.676    112.69393   -605.02198   -1085.2659   -647.45006   -14.956074    149.62276    88.876525      46.7237      46.7237      46.7237           90           90           90     102002.7   -779.24597 
  550000       549499   -7745.6922    728.44545   -8474.1376    4276.8447   -12750.982    113.82317   -953.78388   -1148.0588   -1132.5677    56.253481    202.14441    -135.2267      46.7237      46.7237      46.7237           90           90           90     102002.7   -1078.1368 
  551000       550499   -7722.9384    715.31361    -8438.252    4293.7469   -12731.999    111.77126   -542.44217   -1163.9989   -834.34541    -41.06569   -217.37061   -60.493532      46.7237      46.7237      46.7237           90           90           90     102002.7   -846.92883 
  552000       551499    -7772.511    694.88564   -8467.3967    4264.6428   -12732.039    108.57929   -1012.6077   -654.83811   -424.73155   -44.119705   -170.72871   -170.71167      46.7237      46.7237      46.7237           90           90           90     102002.7   -697.39244 
  553000       552499   -7735.2506    704.15322   -8439.4039    4286.1566    -12725.56    110.02739   -718.34113   -738.99662   -622.40609   -87.812757    -33.81769    71.952264      46.7237      46.7237      46.7237           90           90           90     102002.7   -693.24795 
  554000       553499   -7726.6523    715.17569    -8441.828     4298.444   -12740.272    111.74971   -877.05417   -825.49947   -932.42533    19.839795     16.97543   -60.473341      46.7237      46.7237      46.7237           90           90           90     102002.7   -878.32632 
  555000       554499   -7743.7617    708.48645   -8452.2482    4288.6896   -12740.938    110.70448   -543.25487   -620.33844   -725.25114    -52.60215    110.67614   -115.54673      46.7237      46.7237      46.7237           90           90           90     102002.7   -629.61481 
[...]
  936000       935499   -7730.0992    720.52803   -8450.6272    4271.3581   -12721.985    112.58604   -1079.1862   -597.30714   -795.97092    73.573744    215.29898    74.578275      46.7237      46.7237      46.7237           90           90           90     102002.7   -824.15474 
  937000       936499   -7699.1726    710.80598   -8409.9786    4311.0278   -12721.006    111.06692   -612.70493   -1020.0696   -990.70057    220.51896   -28.674318    68.200869      46.7237      46.7237      46.7237           90           90           90     102002.7   -874.49171 
  938000       937499   -7731.5492    689.30966   -8420.8588    4300.6174   -12721.476    107.70801   -667.86971   -427.98669   -308.44399   -63.307007    -125.4851    44.866893      46.7237      46.7237      46.7237           90           90           90     102002.7   -468.10013 
  939000       938499    -7755.141    700.91332   -8456.0543    4257.8695   -12713.924    109.52114   -521.73864   -579.14136   -820.58664   -27.054521    121.66259    204.53484      46.7237      46.7237      46.7237           90           90           90     102002.7   -640.48888 
  940000       939499   -7713.4836    720.55938    -8434.043      4283.43   -12717.473    112.59094   -1106.7961   -762.99299    -683.1025    237.62687    75.213614   -55.677496      46.7237      46.7237      46.7237           90           90           90     102002.7   -850.96386 
  941000       940499   -7748.0984    702.94248   -8451.0409    4273.6126   -12724.653    109.83821   -764.96529   -914.48983   -668.63761   -9.6849384    294.35349    45.316732      46.7237      46.7237      46.7237           90           90           90     102002.7   -782.69758 
  942000       941499   -7709.9151    710.99249   -8420.9076    4291.8451   -12712.753    111.09606   -849.59641   -1044.9021   -601.43839    279.65371    56.083976   -41.870302      46.7237      46.7237      46.7237           90           90           90     102002.7   -831.97895 
  943000       942499   -7727.3126    706.68969   -8434.0023    4281.0823   -12715.085    110.42373   -860.32256   -816.34832   -367.48867   -26.523367   -31.515096   -102.07034      46.7237      46.7237      46.7237           90           90           90     102002.7   -681.38652 
  944000       943499   -7714.1832    708.69843   -8422.8817    4294.2108   -12717.092     110.7376   -759.29144   -1030.5513   -815.42601   -59.918477   -76.653187   -26.022163      46.7237      46.7237      46.7237           90           90           90     102002.7   -868.42292 
  945000       944499   -7750.4666    714.31395   -8464.7806     4265.819     -12730.6    111.61506   -901.38758   -791.44302   -844.82008    98.697017   -68.393899   -160.26444      46.7237      46.7237      46.7237           90           90           90     102002.7   -845.88356 
  946000       945499   -7741.3695    702.19478   -8443.5643    4269.2198   -12712.784    109.72138   -779.66219   -483.86689   -922.13543   -202.66668    67.308824    161.73909      46.7237      46.7237      46.7237           90           90           90     102002.7   -728.55484 
  947000       946499    -7747.381    698.30062   -8445.6817    4257.8558   -12703.537     109.1129   -506.39813   -1184.1335   -555.28833    108.66283    66.360619   -138.12854      46.7237      46.7237      46.7237           90           90           90     102002.7   -748.60667 
  948000       947499   -7737.0427    722.50001   -8459.5427     4284.694   -12744.237    112.89417   -925.14444   -787.91794   -871.20236   -104.91904   -152.58292    197.97866      46.7237      46.7237      46.7237           90           90           90     102002.7   -861.42158 
  949000       948499   -7696.3994    721.19261    -8417.592    4304.6414   -12722.233    112.68988   -754.90965   -938.70051   -584.71757    354.99686    15.423572     168.6372      46.7237      46.7237      46.7237           90           90           90     102002.7   -759.44257 
  950000       949499   -7748.3791    708.86222   -8457.2413     4264.788   -12722.029     110.7632   -841.72214    -832.9498   -798.72788    62.267659   -218.17371      126.612      46.7237      46.7237      46.7237           90           90           90     102002.7   -824.46661 
  951000       950499   -7768.6445    683.76037   -8452.4048    4286.4771   -12738.882    106.84091   -808.91623   -674.63341   -496.37545    74.541662   -21.937674    185.13006      46.7237      46.7237      46.7237           90           90           90     102002.7   -659.97503 
  952000       951499   -7717.9272    714.49919   -8432.4264    4289.8047   -12722.231      111.644   -965.13012   -1158.6783   -826.51012   -210.38285   -71.515829    108.03377      46.7237      46.7237      46.7237           90           90           90     102002.7   -983.43951 
  953000       952499   -7736.2991    714.20132   -8450.5004    4287.2755   -12737.776    111.59746    -926.6823   -735.72805   -325.64151   -8.3425958   -127.49963    9.8988127      46.7237      46.7237      46.7237           90           90           90     102002.7   -662.68395 
  954000       953499   -7746.4209    692.47818    -8438.899    4288.1863   -12727.085    108.20311   -1360.4172   -808.27228   -731.20215   -135.56711   -15.372432    141.78276      46.7237      46.7237      46.7237           90           90           90     102002.7   -966.63053 
  955000       954499   -7728.2393    695.39913   -8423.6384    4304.2108   -12727.849    108.65952   -1206.1379   -882.59017   -546.48015    -13.60551   -189.92505    20.507751      46.7237      46.7237      46.7237           90           90           90     102002.7   -878.40275 
  956000       955499   -7740.8557    698.96761   -8439.8233    4282.4885   -12722.312    109.21712   -965.81517    -242.5375   -555.84768   -185.91242   -6.5023773    156.56041      46.7237      46.7237      46.7237           90           90           90     102002.7   -588.06678 
  957000       956499   -7763.6764    696.35545   -8460.0318    4269.9345   -12729.966    108.80895   -568.63331   -467.74986   -1222.0709   -104.59754   -87.345271    178.44904      46.7237      46.7237      46.7237           90           90           90     102002.7   -752.81803 
  958000       957499   -7730.5715    708.73244   -8439.3039    4278.6329   -12717.937    110.74292   -392.30638   -344.12403    -840.7376   -49.263043    147.58097    135.47522      46.7237      46.7237      46.7237           90           90           90     102002.7   -525.72267 
  959000       958499   -7768.8157     687.1515   -8455.9672    4284.5049   -12740.472    107.37079   -1199.3646   -586.44255    -236.3968    207.28264    11.980601    193.61788      46.7237      46.7237      46.7237           90           90           90     102002.7     -674.068 
  960000       959499   -7751.4602     706.0428    -8457.503    4271.4895   -12728.992    110.32265   -193.13121   -381.67288   -431.06868    15.091916    33.174506    51.181802      46.7237      46.7237      46.7237           90           90           90     102002.7   -335.29092 
  961000       960499   -7734.9238    697.46784   -8432.3917    4295.1138   -12727.506    108.98277    -1131.822   -903.97455    -346.9748    286.12638    79.121449    59.496179      46.7237      46.7237      46.7237           90           90           90     102002.7   -794.25711 
  962000       961499   -7734.5464    734.00203   -8468.5484    4280.3962   -12748.945    114.69142   -529.95754   -517.94489     -510.936   -124.70697   -158.20091   -82.256418      46.7237      46.7237      46.7237           90           90           90     102002.7   -519.61281 
  963000       962499   -7788.8232    670.89784    -8459.721    4273.3433   -12733.064    104.83108   -650.92293    -483.1406    -725.5867   -16.946621    262.89702   -63.813373      46.7237      46.7237      46.7237           90           90           90     102002.7   -619.88341 
  964000       963499   -7751.1419    696.55083   -8447.6927    4286.2658   -12733.959    108.83948   -382.27271   -696.54356   -793.70107    88.631713   -287.79412    107.14586      46.7237      46.7237      46.7237           90           90           90     102002.7   -624.17245 
  965000       964499   -7755.3646    716.16467   -8471.5293    4271.5191   -12743.048    111.90424   -473.33162   -1004.2486   -633.42171    267.53047    51.994213   -224.20214      46.7237      46.7237      46.7237           90           90           90     102002.7   -703.66732 
  966000       965499   -7734.5044    700.80132   -8435.3057    4297.7704   -12733.076    109.50364    -552.4921    -493.0902   -1049.0622   -67.389643   -62.854789   -109.24787      46.7237      46.7237      46.7237           90           90           90     102002.7   -698.21484 
  967000       966499   -7763.8231    685.29169   -8449.1148    4295.9429   -12745.058    107.08019   -3.5102224   -570.19359    -1096.481   -16.452316   -86.026761    159.52127      46.7237      46.7237      46.7237           90           90           90     102002.7   -556.72826 
  968000       967499   -7734.0003    704.21033   -8438.2106    4273.2026   -12711.413    110.03632   -966.92082   -895.28663   -694.39222    73.575573    115.63809    97.561889      46.7237      46.7237      46.7237           90           90           90     102002.7   -852.19989 
  969000       968499   -7788.6982     681.3016   -8469.9998    4278.8688   -12748.869    106.45672   -187.59724   -790.97549   -801.68301    59.524395   -103.92205    405.14569      46.7237      46.7237      46.7237           90           90           90     102002.7   -593.41858 
  970000       969499   -7776.2267    681.71176   -8457.9385    4276.4976   -12734.436    106.52081   -703.31095   -722.39642   -704.24874   -274.04213    -211.6036   -69.579335      46.7237      46.7237      46.7237           90           90           90     102002.7   -709.98537 
  971000       970499   -7728.3998    719.01042   -8447.4102    4300.0307   -12747.441     112.3489   -1009.1146   -431.12413   -833.34715   -48.446535    -4.936723    55.654327      46.7237      46.7237      46.7237           90           90           90     102002.7   -757.86195 
  972000       971499   -7727.2201    726.33584   -8453.5559    4289.1882   -12742.744    113.49354   -462.12419   -938.91651   -979.53177    -130.2669   -101.72149   -24.592201      46.7237      46.7237      46.7237           90           90           90     102002.7   -793.52416 
  973000       972499   -7740.6688    717.31353   -8457.9824    4284.6904   -12742.673    112.08376   -728.85959    -629.3411    -526.3161    100.08647   -198.51106    -195.6122      46.7237      46.7237      46.7237           90           90           90     102002.7   -628.17226 
  974000       973499   -7772.1173    679.56323   -8451.6805    4272.2766   -12723.957    106.18509   -981.17051   -468.50618   -1008.4296     19.47245    73.381141   -38.262387      46.7237      46.7237      46.7237           90           90           90     102002.7   -819.36875 
  975000       974499   -7731.2238    693.62821    -8424.852    4310.0814   -12734.933    108.38281   -859.44448   -1194.2703   -629.14758   -17.392967   -249.88426   -71.758443      46.7237      46.7237      46.7237           90           90           90     102002.7   -894.28746 
  976000       975499    -7748.634    698.22436   -8446.8583    4298.1319    -12744.99    109.10098   -926.85443   -852.49676    -1200.588     218.3218     27.06041   -256.18012      46.7237      46.7237      46.7237           90           90           90     102002.7   -993.31305 
  977000       976499   -7742.6953     701.4397    -8444.135    4293.9115   -12738.047    109.60339   -895.72049   -439.32005   -1047.6208    276.60113   -112.59549   -4.5592997      46.7237      46.7237      46.7237           90           90           90     102002.7   -794.22043 
  978000       977499   -7714.6294    716.06215   -8430.6915    4290.3547   -12721.046    111.88822   -792.87587   -1079.2962   -840.04027   -25.419117   -140.67858   -20.775472      46.7237      46.7237      46.7237           90           90           90     102002.7   -904.07079 
  979000       978499   -7739.2947    707.59948   -8446.8942    4302.2511   -12749.145    110.56589   -571.01507   -1051.8556   -1013.1012    36.889204    115.49226    26.576759      46.7237      46.7237      46.7237           90           90           90     102002.7   -878.65731 
  980000       979499   -7760.1254    702.64114   -8462.7665    4256.7294   -12719.496    109.79112    -804.0775    -643.5144   -432.11436      127.504   -114.86305    -28.32813      46.7237      46.7237      46.7237           90           90           90     102002.7   -626.56875 
  981000       980499   -7727.2226    704.65688   -8431.8794     4287.881    -12719.76    110.10609   -1016.5936   -919.84605   -789.38542   -29.623087    118.58901   -67.074442      46.7237      46.7237      46.7237           90           90           90     102002.7   -908.60836 
  982000       981499   -7723.1859    696.33905   -8419.5249    4303.4795   -12723.004    108.80639   -568.91379   -551.91811   -738.72665    106.30722   -50.979366   -29.056456      46.7237      46.7237      46.7237           90           90           90     102002.7   -619.85285 
  983000       982499   -7706.7996    710.55839    -8417.358    4299.9427   -12717.301    111.02823   -223.60864   -1047.4976   -507.74354    77.139441   -180.03452   -164.28633      46.7237      46.7237      46.7237           90           90           90     102002.7   -592.94992 
  984000       983499   -7728.6725    697.87869   -8426.5512    4309.8317   -12736.383    109.04697   -474.04114   -854.86176   -895.17549    80.037502   -199.40843     169.7394      46.7237      46.7237      46.7237           90           90           90     102002.7   -741.35947 
  985000       984499   -7736.3806    691.63484   -8428.0154    4289.8052   -12717.821    108.07133   -288.11894   -1023.8332   -614.85208    40.815642    54.698133   -47.877705      46.7237      46.7237      46.7237           90           90           90     102002.7   -642.26808 
  986000       985499   -7753.8893     694.0006   -8447.8899    4259.3997    -12707.29      108.441   -684.33221    -606.8885   -220.28287    34.356508    78.991317    263.12333      46.7237      46.7237      46.7237           90           90           90     102002.7   -503.83453 
  987000       986499    -7746.283    702.50878   -8448.7918    4278.4884    -12727.28    109.77044   -736.04682   -112.08476    -295.3727    4.8914726   -3.2922902   -13.450578      46.7237      46.7237      46.7237           90           90           90     102002.7   -381.16809 
  988000       987499   -7695.5581    720.24702   -8415.8051    4297.4799   -12713.285    112.54213   -718.79514    -400.3948   -404.91656    89.801627    4.5858096   -50.158678      46.7237      46.7237      46.7237           90           90           90     102002.7    -508.0355 
  989000       988499   -7725.7897    718.74207   -8444.5318     4284.836   -12729.368    112.30697   -568.75987   -202.88321   -524.50892    20.313935   -289.88743    106.59214      46.7237      46.7237      46.7237           90           90           90     102002.7   -432.05067 
  990000       989499   -7741.3652    713.94475   -8455.3099     4284.943   -12740.253    111.55737   -851.62957   -699.95142   -246.69404   -25.409455     109.1222    90.849736      46.7237      46.7237      46.7237           90           90           90     102002.7   -599.42501 
  991000       990499   -7741.7624    695.24106   -8437.0035    4303.5196   -12740.523    108.63482   -634.42478   -570.72899   -973.49751   -149.16172    16.461845   -27.669443      46.7237      46.7237      46.7237           90           90           90     102002.7   -726.21709 
  992000       991499   -7762.2371    705.82829   -8468.0654    4284.2541   -12752.319    110.28913   -1109.9665   -603.06038   -383.35012      316.026   -247.67274    2.0602076      46.7237      46.7237      46.7237           90           90           90     102002.7   -698.79232 
  993000       992499   -7777.2477    715.03716   -8492.2849    4242.5565   -12734.841    111.72806   -758.54655     -1206.19   -867.60646    135.59492   -25.548078    273.36963      46.7237      46.7237      46.7237           90           90           90     102002.7   -944.11435 
  994000       993499   -7740.5346    709.69798   -8450.2325     4273.579   -12723.812    110.89379   -793.73865   -1020.1142    -425.8422    99.705722   -21.587734     102.4273      46.7237      46.7237      46.7237           90           90           90     102002.7   -746.56502 
  995000       994499   -7733.8764    706.38351   -8440.2599    4298.1187   -12738.379    110.37589   -679.52785   -163.57153    -1053.788    38.272426    10.736564     183.8665      46.7237      46.7237      46.7237           90           90           90     102002.7   -632.29581 
  996000       995499   -7743.6774    711.68436   -8455.3617    4285.2835   -12740.645    111.20417   -579.68249   -862.97238   -1154.1632   -215.25252   -73.666229    178.22347      46.7237      46.7237      46.7237           90           90           90     102002.7   -865.60602 
  997000       996499   -7729.8581    699.53325   -8429.3913    4289.7271   -12719.118     109.3055   -804.66213   -552.76758   -245.70289    -74.06449   -216.30946    58.545212      46.7237      46.7237      46.7237           90           90           90     102002.7   -534.37753 
  998000       997499   -7765.9841    697.45142   -8463.4355    4265.3813   -12728.817     108.9802   -997.63832   -717.54141   -875.86587    33.159549     57.10892    -170.7314      46.7237      46.7237      46.7237           90           90           90     102002.7   -863.68187 
  999000       998499   -7721.6851    720.59065   -8442.2757    4300.6549   -12742.931    112.59582   -703.55731   -901.70068   -673.10653    74.484523    227.61146     189.7758      46.7237      46.7237      46.7237           90           90           90     102002.7   -759.45484 
 1000000       999499    -7744.868    721.26575   -8466.1338    4283.0707   -12749.204    112.70131   -580.70529   -719.41134   -537.23588   -195.64755    142.01695   -114.96449      46.7237      46.7237      46.7237           90           90           90     102002.7   -612.45083 
 1000501      1000000   -7783.9729    682.79717     -8466.77    4267.1924   -12733.962    106.69041   -678.63152    -701.6767   -879.06217     113.7808   -43.011353     115.0472      46.7237      46.7237      46.7237           90           90           90     102002.7   -753.12347 
Loop time of 704.886 on 24 procs for 500000 steps with 2148 atoms

Performance: 61.286 ns/day, 0.392 hours/ns, 709.334 timesteps/s
99.2% CPU use with 24 MPI tasks x no OpenMP threads

MPI task timing breakdown:
Section |  min time  |  avg time  |  max time  |%varavg| %total
---------------------------------------------------------------
Pair    | 297.38     | 367.47     | 464.52     | 256.3 | 52.13
Bond    | 54.459     | 82.74      | 116.33     | 183.5 | 11.74
Neigh   | 3.7168     | 3.7437     | 3.7633     |   0.8 |  0.53
Comm    | 134.19     | 233.63     | 308.53     | 358.1 | 33.14
Output  | 0.37917    | 0.41983    | 0.42169    |   1.3 |  0.06
Modify  | 12.034     | 12.336     | 12.576     |   5.0 |  1.75
Other   |            | 4.548      |            |       |  0.65

Nlocal:    89.5 ave 123 max 68 min
Histogram: 4 2 5 2 2 3 3 2 0 1
Nghost:    2429.04 ave 2567 max 2332 min
Histogram: 4 4 7 1 0 0 0 2 2 4
Neighs:    7637 ave 12824 max 4557 min
Histogram: 2 4 4 4 4 3 1 1 0 1

Total # of neighbors = 183288
Ave neighs/atom = 85.3296
Ave special neighs/atom = 5.36313
Neighbor list builds = 4471
Dangerous builds = 0
Total wall time: 0:22:28
