LAMMPS (30 Mar 2018)
Reading data file ...
  orthogonal box = (0 0 0) to (46.7237 46.7237 46.7237)
  2 by 3 by 4 MPI processor grid
  reading atoms ...
  2140 atoms
  scanning bonds ...
  5 = max bonds/atom
  scanning angles ...
  10 = max angles/atom
  scanning dihedrals ...
  32 = max dihedrals/atom
  scanning impropers ...
  3 = max impropers/atom
  reading bonds ...
  2064 bonds
  reading angles ...
  3696 angles
  reading dihedrals ...
  6240 dihedrals
  reading impropers ...
  1008 impropers
Finding 1-2 1-3 1-4 neighbors ...
  special bond factors lj:   0          0          0         
  special bond factors coul: 0          0          0         
  5 = max # of 1-2 neighbors
  8 = max # of 1-3 neighbors
  20 = max # of 1-4 neighbors
  19 = max # of special neighbors
Finding 1-2 1-3 1-4 neighbors ...
  special bond factors lj:   0          0          1         
  special bond factors coul: 1          1          1         
  5 = max # of 1-2 neighbors
  8 = max # of 1-3 neighbors
  19 = max # of special neighbors
WARNING: Using 'neigh_modify every 1 delay 0 check yes' setting during minimization (../min.cpp:168)
Neighbor list info ...
  update every 1 steps, delay 0 steps, check yes
  max neighbors/atom: 2000, page size: 100000
  master list distance cutoff = 16
  ghost atom cutoff = 16
  binsize = 8, bins = 6 6 6
  3 neighbor lists, perpetual/occasional/extra = 3 0 0
  (1) pair buck6d/coul/gauss/dsf, perpetual, skip from (3)
      attributes: half, newton on
      pair build: skip
      stencil: none
      bin: none
  (2) pair lj/cut, perpetual, skip from (3)
      attributes: half, newton on
      pair build: skip
      stencil: none
      bin: none
  (3) neighbor class addition, perpetual
      attributes: half, newton on
      pair build: half/bin/newton
      stencil: half/bin/3d/newton
      bin: standard
Setting up cg style minimization ...
  Unit style    : real
  Current step  : 0
WARNING: Inconsistent image flags (../domain.cpp:786)
Per MPI rank memory allocation (min/avg/max) = 22.9 | 23.3 | 24.45 Mbytes
Step Temp E_pair E_mol TotEng Press 
       0            0   -12733.341    6482.8914   -6250.4499    6069.6135 
     500            0   -12909.428     3725.046    -9184.382    -653.5447 
Loop time of 1.42497 on 24 procs for 500 steps with 2140 atoms

99.3% CPU use with 24 MPI tasks x no OpenMP threads

Minimization stats:
  Stopping criterion = max force evaluations
  Energy initial, next-to-last, final = 
        -6250.44989132      -9184.2940933     -9184.38199394
  Force two-norm initial, final = 2574.3 13.1596
  Force max component initial, final = 152.051 2.46392
  Final line search alpha, max atom move = 0.00274553 0.00676476
  Iterations, force evaluations = 500 1000

MPI task timing breakdown:
Section |  min time  |  avg time  |  max time  |%varavg| %total
---------------------------------------------------------------
Pair    | 0.54768    | 0.73151    | 0.9628     |  13.1 | 51.34
Bond    | 0.11134    | 0.15822    | 0.19577    |   5.5 | 11.10
Neigh   | 0.012524   | 0.013749   | 0.01508    |   0.8 |  0.96
Comm    | 0.23117    | 0.47072    | 0.65355    |  16.9 | 33.03
Output  | 0          | 0          | 0          |   0.0 |  0.00
Modify  | 0          | 0          | 0          |   0.0 |  0.00
Other   |            | 0.05077    |            |       |  3.56

Nlocal:    89.1667 ave 102 max 71 min
Histogram: 2 0 2 2 5 3 1 0 3 6
Nghost:    2375.17 ave 2553 max 2276 min
Histogram: 13 3 0 0 0 0 0 0 0 8
Neighs:    7640.67 ave 11352 max 4872 min
Histogram: 2 6 1 3 3 2 2 2 2 1

Total # of neighbors = 183376
Ave neighs/atom = 85.6897
Ave special neighs/atom = 5.38318
Neighbor list builds = 15
Dangerous builds = 0
Neighbor list info ...
  update every 1 steps, delay 10 steps, check yes
  max neighbors/atom: 2000, page size: 100000
  master list distance cutoff = 16
  ghost atom cutoff = 16
  binsize = 8, bins = 6 6 6
  3 neighbor lists, perpetual/occasional/extra = 3 0 0
  (1) pair buck6d/coul/gauss/dsf, perpetual, skip from (3)
      attributes: half, newton on
      pair build: skip
      stencil: none
      bin: none
  (2) pair lj/cut, perpetual, skip from (3)
      attributes: half, newton on
      pair build: skip
      stencil: none
      bin: none
  (3) neighbor class addition, perpetual
      attributes: half, newton on
      pair build: half/bin/newton
      stencil: half/bin/3d/newton
      bin: standard
Setting up Verlet run ...
  Unit style    : real
  Current step  : 500
  Time step     : 1
WARNING: Inconsistent image flags (../domain.cpp:786)
Per MPI rank memory allocation (min/avg/max) = 22.54 | 22.74 | 23.32 Mbytes
Step Temp PotEng TotEng Press Volume Lx Ly Lz 
     500          110    -9184.382   -8483.0272   -339.23416     102002.7      46.7237      46.7237      46.7237 
    1000     92.04576   -8548.5129   -7961.6335   -627.72033     102002.7      46.7237      46.7237      46.7237 
    2000    118.04985   -8467.8826   -7715.2023   -688.92466     102002.7      46.7237      46.7237      46.7237 
    3000    112.08135   -8453.6028   -7738.9774   -778.50812     102002.7      46.7237      46.7237      46.7237 
    4000    107.25797   -8437.3674   -7753.4957   -570.76136     102002.7      46.7237      46.7237      46.7237 
    5000      109.392   -8443.1367   -7745.6585   -837.49574     102002.7      46.7237      46.7237      46.7237 
    6000    111.82317    -8450.782   -7737.8028   -680.55462     102002.7      46.7237      46.7237      46.7237 
    7000    107.42771   -8430.0966   -7745.1426   -656.93426     102002.7      46.7237      46.7237      46.7237 
    8000    107.34519   -8449.4922   -7765.0643   -812.09159     102002.7      46.7237      46.7237      46.7237 
    9000    111.56119   -8465.0519    -7753.743   -577.66717     102002.7      46.7237      46.7237      46.7237 
   10000    110.29693   -8429.1094   -7725.8614    -597.1663     102002.7      46.7237      46.7237      46.7237 
   11000    111.14388   -8449.9766   -7741.3285   -721.65584     102002.7      46.7237      46.7237      46.7237 
   12000    109.65567   -8433.2367   -7734.0773   -601.61843     102002.7      46.7237      46.7237      46.7237 
   13000    113.84303   -8452.2418    -7726.384    -487.7584     102002.7      46.7237      46.7237      46.7237 
   14000    110.46765   -8420.7407   -7716.4042   -549.02913     102002.7      46.7237      46.7237      46.7237 
   15000     109.3625   -8442.3311    -7745.041   -704.52021     102002.7      46.7237      46.7237      46.7237 
   16000    111.65711   -8432.8357   -7720.9153   -911.68481     102002.7      46.7237      46.7237      46.7237 
   17000    110.56508   -8417.9368   -7712.9791   -760.55862     102002.7      46.7237      46.7237      46.7237 
   18000    108.98915   -8441.3046    -7746.395   -845.49861     102002.7      46.7237      46.7237      46.7237 
   19000     109.2624   -8452.9673   -7756.3154   -761.74422     102002.7      46.7237      46.7237      46.7237 
   20000    109.87936   -8444.4581   -7743.8724   -554.76498     102002.7      46.7237      46.7237      46.7237 
   21000     108.4707   -8444.6782   -7753.0741   -530.83851     102002.7      46.7237      46.7237      46.7237 
   22000     113.1954   -8465.4437   -7743.7152   -632.98378     102002.7      46.7237      46.7237      46.7237 
   23000    110.68039   -8426.8256   -7721.1326   -590.50286     102002.7      46.7237      46.7237      46.7237 
   24000    108.53554   -8442.6611   -7750.6436   -663.51575     102002.7      46.7237      46.7237      46.7237 
   25000    108.40195   -8448.0476   -7756.8819   -658.16535     102002.7      46.7237      46.7237      46.7237 
   26000    111.03864    -8429.286   -7721.3089   -605.35833     102002.7      46.7237      46.7237      46.7237 
   27000     109.2485     -8426.95   -7730.3868   -786.36117     102002.7      46.7237      46.7237      46.7237 
   28000    111.92333   -8434.7515   -7721.1337   -657.28888     102002.7      46.7237      46.7237      46.7237 
   29000    113.21953   -8465.8252   -7743.9429   -866.63583     102002.7      46.7237      46.7237      46.7237 
   30000    110.78263   -8454.5509   -7748.2061   -534.53204     102002.7      46.7237      46.7237      46.7237 
   31000    109.19044   -8438.5722   -7742.3792   -554.88415     102002.7      46.7237      46.7237      46.7237 
   32000    107.54109    -8436.129   -7750.4522    -674.1466     102002.7      46.7237      46.7237      46.7237 
   33000    109.96087   -8427.7886   -7726.6833   -592.02483     102002.7      46.7237      46.7237      46.7237 
   34000    111.01375   -8460.7465   -7752.9281   -693.33326     102002.7      46.7237      46.7237      46.7237 
   35000    110.30293   -8439.0593    -7735.773   -843.00232     102002.7      46.7237      46.7237      46.7237 
   36000    107.80672   -8423.3488   -7735.9783   -714.40395     102002.7      46.7237      46.7237      46.7237 
   37000    110.60935   -8462.4074   -7757.1675   -410.77512     102002.7      46.7237      46.7237      46.7237 
   38000    105.86456   -8431.2764    -7756.289   -585.55283     102002.7      46.7237      46.7237      46.7237 
   39000    110.83352    -8425.091   -7718.4217   -998.16643     102002.7      46.7237      46.7237      46.7237 
   40000    112.77391   -8450.7345   -7731.6934   -704.51434     102002.7      46.7237      46.7237      46.7237 
   41000    106.53006   -8419.8511   -7740.6205   -704.32472     102002.7      46.7237      46.7237      46.7237 
   42000    114.23045   -8429.1496   -7700.8217   -708.27783     102002.7      46.7237      46.7237      46.7237 
   43000    109.87608   -8444.1509   -7743.5862   -777.76027     102002.7      46.7237      46.7237      46.7237 
   44000     111.0301   -8421.1137    -7713.191   -646.29977     102002.7      46.7237      46.7237      46.7237 
   45000    111.14115   -8449.7837    -7741.153   -777.77538     102002.7      46.7237      46.7237      46.7237 
   46000     110.1945   -8439.4809    -7736.886   -677.46344     102002.7      46.7237      46.7237      46.7237 
   47000    110.08915   -8433.1092    -7731.186   -555.37398     102002.7      46.7237      46.7237      46.7237 
   48000    108.55453   -8446.4685     -7754.33   -918.68435     102002.7      46.7237      46.7237      46.7237 
   49000    108.65885   -8467.4936   -7774.6899   -568.08228     102002.7      46.7237      46.7237      46.7237 
   50000    109.67408    -8459.655   -7760.3782   -757.79517     102002.7      46.7237      46.7237      46.7237 
   51000    107.80258   -8445.5325   -7758.1883   -969.39131     102002.7      46.7237      46.7237      46.7237 
   52000    111.03001   -8423.9123   -7715.9903   -798.31942     102002.7      46.7237      46.7237      46.7237 
   53000    112.24176   -8450.0423   -7734.3941   -715.03251     102002.7      46.7237      46.7237      46.7237 
   54000     108.8615   -8470.2843   -7776.1885    -688.4336     102002.7      46.7237      46.7237      46.7237 
   55000    110.68624   -8448.2011   -7742.4708   -457.58862     102002.7      46.7237      46.7237      46.7237 
   56000    110.32897    -8443.544   -7740.0918   -898.97298     102002.7      46.7237      46.7237      46.7237 
   57000    108.76074   -8465.0952   -7771.6418   -821.67949     102002.7      46.7237      46.7237      46.7237 
   58000    107.35866    -8420.238   -7735.7242   -410.85091     102002.7      46.7237      46.7237      46.7237 
   59000    108.15603   -8441.0876   -7751.4899   -853.75314     102002.7      46.7237      46.7237      46.7237 
   60000    111.79909   -8440.0592   -7727.2335     -787.253     102002.7      46.7237      46.7237      46.7237 
   61000    105.51929   -8441.6656   -7768.8796    -1011.767     102002.7      46.7237      46.7237      46.7237 
   62000    109.86012   -8418.0472   -7717.5843      -630.41     102002.7      46.7237      46.7237      46.7237 
   63000    106.49253   -8434.3091   -7755.3178   -824.31395     102002.7      46.7237      46.7237      46.7237 
   64000    111.54066   -8443.1353   -7731.9574     -610.279     102002.7      46.7237      46.7237      46.7237 
   65000    113.07763   -8449.8184   -7728.8407   -626.71428     102002.7      46.7237      46.7237      46.7237 
   66000    108.62798   -8434.9137   -7742.3068   -636.15517     102002.7      46.7237      46.7237      46.7237 
   67000    107.92969   -8426.6873   -7738.5327   -474.36487     102002.7      46.7237      46.7237      46.7237 
   68000    110.08947   -8458.6807   -7756.7554    -701.1883     102002.7      46.7237      46.7237      46.7237 
   69000    109.82183   -8463.9942   -7763.7754    -583.2729     102002.7      46.7237      46.7237      46.7237 
   70000    111.80937   -8448.6451   -7735.7538   -504.51365     102002.7      46.7237      46.7237      46.7237 
   71000    112.44312    -8457.382     -7740.45   -838.23383     102002.7      46.7237      46.7237      46.7237 
   72000    106.13899   -8437.0813   -7760.3441    -553.6539     102002.7      46.7237      46.7237      46.7237 
   73000    111.63388   -8456.4367   -7744.6644   -684.13458     102002.7      46.7237      46.7237      46.7237 
   74000    113.94115   -8440.9504    -7714.467   -678.66189     102002.7      46.7237      46.7237      46.7237 
   75000    109.23153   -8444.2466   -7747.7915   -668.26252     102002.7      46.7237      46.7237      46.7237 
   76000    107.39017   -8417.5563   -7732.8417   -882.63244     102002.7      46.7237      46.7237      46.7237 
   77000    108.51634   -8458.4309   -7766.5358   -456.38154     102002.7      46.7237      46.7237      46.7237 
   78000    111.97573   -8441.8555   -7727.9035   -925.33238     102002.7      46.7237      46.7237      46.7237 
   79000    108.76346   -8456.7209   -7763.2502   -682.89516     102002.7      46.7237      46.7237      46.7237 
   80000    110.73584   -8444.7775   -7738.7311   -449.45105     102002.7      46.7237      46.7237      46.7237 
   81000    111.17429   -8441.9653   -7733.1233   -649.90647     102002.7      46.7237      46.7237      46.7237 
   82000    109.32398   -8434.3981   -7737.3536   -443.20569     102002.7      46.7237      46.7237      46.7237 
   83000    112.04948   -8427.1495   -7712.7274   -637.67133     102002.7      46.7237      46.7237      46.7237 
   84000     106.5652   -8421.5107    -7742.056   -688.18245     102002.7      46.7237      46.7237      46.7237 
   85000    109.99974   -8451.0905   -7749.7374   -596.73302     102002.7      46.7237      46.7237      46.7237 
   86000    109.37448   -8449.3998   -7752.0333   -562.08161     102002.7      46.7237      46.7237      46.7237 
   87000    108.87563   -8414.8213   -7720.6354   -723.07343     102002.7      46.7237      46.7237      46.7237 
   88000    109.83155   -8462.3421   -7762.0614    -736.6429     102002.7      46.7237      46.7237      46.7237 
   89000    111.60422   -8442.0878   -7730.5046   -477.82518     102002.7      46.7237      46.7237      46.7237 
   90000    109.51005   -8422.6846   -7724.4537   -718.39165     102002.7      46.7237      46.7237      46.7237 
   91000    110.47969    -8435.991   -7731.5777   -657.53319     102002.7      46.7237      46.7237      46.7237 
   92000     107.4354   -8442.6852   -7757.6822   -715.67817     102002.7      46.7237      46.7237      46.7237 
   93000    108.21207   -8462.3085   -7772.3534   -716.79579     102002.7      46.7237      46.7237      46.7237 
   94000    108.25944   -8427.8755   -7737.6184   -384.60122     102002.7      46.7237      46.7237      46.7237 
   95000    112.34108    -8418.593   -7702.3116   -836.65524     102002.7      46.7237      46.7237      46.7237 
   96000    110.54041   -8414.3894    -7709.589   -394.76018     102002.7      46.7237      46.7237      46.7237 
   97000      108.515   -8420.8312   -7728.9447   -871.30789     102002.7      46.7237      46.7237      46.7237 
   98000    110.84905   -8448.2467   -7741.4784   -903.44181     102002.7      46.7237      46.7237      46.7237 
   99000    108.87856   -8457.7068   -7763.5023    -599.6825     102002.7      46.7237      46.7237      46.7237 
  100000    110.67182   -8449.6211   -7743.9828   -777.07353     102002.7      46.7237      46.7237      46.7237 
  101000    110.66014   -8445.0939   -7739.5301   -439.49767     102002.7      46.7237      46.7237      46.7237 
  102000    111.35138   -8407.4488   -7697.4777   -467.29238     102002.7      46.7237      46.7237      46.7237 
  103000    111.70541   -8448.8847   -7736.6563   -650.79971     102002.7      46.7237      46.7237      46.7237 
  104000    110.79144   -8450.7968   -7744.3958    -645.2333     102002.7      46.7237      46.7237      46.7237 
  105000    113.08053   -8433.6835   -7712.6874   -721.78781     102002.7      46.7237      46.7237      46.7237 
  106000    108.54953   -8445.3444   -7753.2377   -598.47389     102002.7      46.7237      46.7237      46.7237 
  107000    109.85847   -8449.1693   -7748.7169   -470.19694     102002.7      46.7237      46.7237      46.7237 
  108000    110.51659   -8466.3719   -7761.7234   -590.84164     102002.7      46.7237      46.7237      46.7237 
  109000     109.4689   -8432.8598   -7734.8913   -507.58867     102002.7      46.7237      46.7237      46.7237 
  110000     110.7964    -8453.815   -7747.3824     -772.056     102002.7      46.7237      46.7237      46.7237 
  111000     112.5802   -8438.7155   -7720.9095   -537.91991     102002.7      46.7237      46.7237      46.7237 
  112000    107.96472   -8475.0308   -7786.6529   -709.59623     102002.7      46.7237      46.7237      46.7237 
  113000    112.22318   -8452.7703   -7737.2407   -711.58287     102002.7      46.7237      46.7237      46.7237 
  114000    108.53419   -8413.0422   -7721.0333   -659.15296     102002.7      46.7237      46.7237      46.7237 
  115000    115.41255   -8431.1994   -7695.3344   -1017.5776     102002.7      46.7237      46.7237      46.7237 
  116000     110.1471   -8429.3477    -7727.055   -536.18841     102002.7      46.7237      46.7237      46.7237 
  117000    109.81558   -8441.6114   -7741.4325   -845.43461     102002.7      46.7237      46.7237      46.7237 
  118000    113.28199   -8452.3963   -7730.1157   -633.18873     102002.7      46.7237      46.7237      46.7237 
  119000    109.48416   -8444.6282   -7746.5624   -830.16777     102002.7      46.7237      46.7237      46.7237 
  120000    109.17171    -8424.409   -7728.3353   -892.24403     102002.7      46.7237      46.7237      46.7237 
  121000    108.31986   -8428.4332   -7737.7909   -649.15405     102002.7      46.7237      46.7237      46.7237 
  122000    109.12416   -8425.9814   -7730.2109   -570.71822     102002.7      46.7237      46.7237      46.7237 
  123000    112.82395   -8442.1977   -7722.8375   -866.33379     102002.7      46.7237      46.7237      46.7237 
  124000    107.34797   -8449.3158   -7764.8702   -547.77595     102002.7      46.7237      46.7237      46.7237 
  125000    110.69459   -8427.3765    -7721.593   -622.59006     102002.7      46.7237      46.7237      46.7237 
  126000     110.0341   -8432.1698   -7730.5976   -687.13976     102002.7      46.7237      46.7237      46.7237 
  127000     110.2122     -8437.26   -7734.5522   -991.11042     102002.7      46.7237      46.7237      46.7237 
  128000    112.14706   -8399.7514    -7684.707   -719.29559     102002.7      46.7237      46.7237      46.7237 
  129000    111.14568    -8420.076   -7711.4164   -778.87303     102002.7      46.7237      46.7237      46.7237 
  130000    112.22882   -8416.6822   -7701.1166   -851.19859     102002.7      46.7237      46.7237      46.7237 
  131000    108.33434   -8456.9937    -7766.259   -827.16897     102002.7      46.7237      46.7237      46.7237 
  132000     111.9607   -8425.5602   -7711.7041   -967.87994     102002.7      46.7237      46.7237      46.7237 
  133000    113.38119   -8442.0819   -7719.1688   -986.70222     102002.7      46.7237      46.7237      46.7237 
  134000    107.80694   -8425.4604   -7738.0884   -617.69418     102002.7      46.7237      46.7237      46.7237 
  135000    112.12431   -8418.5745   -7703.6752   -778.85327     102002.7      46.7237      46.7237      46.7237 
  136000    108.80618   -8434.2577   -7740.5146    -451.6812     102002.7      46.7237      46.7237      46.7237 
  137000    111.74073   -8423.7257   -7711.2721   -891.21763     102002.7      46.7237      46.7237      46.7237 
  138000    108.30814   -8413.4396    -7722.872   -1098.2396     102002.7      46.7237      46.7237      46.7237 
  139000    106.92558   -8472.5152   -7790.7627   -865.90603     102002.7      46.7237      46.7237      46.7237 
  140000    106.29827   -8435.8634   -7758.1107   -849.01215     102002.7      46.7237      46.7237      46.7237 
  141000    109.75001    -8430.795   -7731.0342   -837.44015     102002.7      46.7237      46.7237      46.7237 
  142000     112.0907   -8425.2964   -7710.6114   -970.55927     102002.7      46.7237      46.7237      46.7237 
  143000    111.99128   -8433.7723   -7719.7212   -798.81741     102002.7      46.7237      46.7237      46.7237 
  144000    109.98225   -8418.6364   -7717.3948   -800.36994     102002.7      46.7237      46.7237      46.7237 
  145000    109.64882   -8416.9983   -7717.8826   -922.07514     102002.7      46.7237      46.7237      46.7237 
  146000     108.8952   -8431.3786    -7737.068   -672.98444     102002.7      46.7237      46.7237      46.7237 
  147000     111.9036   -8408.3009   -7694.8088   -930.50674     102002.7      46.7237      46.7237      46.7237 
  148000    108.95212   -8416.3009   -7721.6273   -841.78211     102002.7      46.7237      46.7237      46.7237 
  149000    109.65969   -8439.8463   -7740.6613   -892.63857     102002.7      46.7237      46.7237      46.7237 
  150000    112.63797    -8444.105   -7725.9306   -786.08015     102002.7      46.7237      46.7237      46.7237 
  151000    110.20348   -8431.7426   -7729.0905    -419.3649     102002.7      46.7237      46.7237      46.7237 
  152000    110.68059   -8429.5699   -7723.8757   -853.56344     102002.7      46.7237      46.7237      46.7237 
  153000    113.66522   -8422.8332   -7698.1091   -834.14086     102002.7      46.7237      46.7237      46.7237 
  154000    116.41808   -8457.2793   -7715.0032   -900.02578     102002.7      46.7237      46.7237      46.7237 
  155000    110.45087   -8430.8726   -7726.6431   -927.28223     102002.7      46.7237      46.7237      46.7237 
  156000    113.45803   -8426.8627   -7703.4597   -767.75363     102002.7      46.7237      46.7237      46.7237 
  157000    105.54454   -8450.9669   -7778.0199   -716.16617     102002.7      46.7237      46.7237      46.7237 
  158000    109.66078   -8417.4769   -7718.2849   -725.86218     102002.7      46.7237      46.7237      46.7237 
  159000    107.11089   -8429.8003   -7746.8663   -558.74045     102002.7      46.7237      46.7237      46.7237 
  160000      109.749   -8438.1021   -7738.3477    -722.1539     102002.7      46.7237      46.7237      46.7237 
  161000    111.33803   -8427.4993   -7717.6133   -698.75679     102002.7      46.7237      46.7237      46.7237 
  162000    109.50587   -8397.6155   -7699.4112   -575.09349     102002.7      46.7237      46.7237      46.7237 
  163000    107.90333   -8423.0419   -7735.0554   -798.01934     102002.7      46.7237      46.7237      46.7237 
  164000    109.91016   -8429.0092   -7728.2272   -678.32502     102002.7      46.7237      46.7237      46.7237 
  165000    108.11837   -8437.5645   -7748.2069   -634.52065     102002.7      46.7237      46.7237      46.7237 
  166000     106.5089   -8436.5768   -7757.4811   -686.53224     102002.7      46.7237      46.7237      46.7237 
  167000    111.91432   -8440.8047   -7727.2443   -834.48306     102002.7      46.7237      46.7237      46.7237 
  168000    111.25789   -8447.7913   -7738.4163   -808.05426     102002.7      46.7237      46.7237      46.7237 
  169000    107.65883   -8440.9497   -7754.5221   -732.73871     102002.7      46.7237      46.7237      46.7237 
  170000     110.1611   -8418.9166   -7716.5347   -820.64516     102002.7      46.7237      46.7237      46.7237 
  171000    110.12301   -8422.7368   -7720.5977   -626.08207     102002.7      46.7237      46.7237      46.7237 
  172000    110.32171   -8429.1869   -7725.7809   -673.60616     102002.7      46.7237      46.7237      46.7237 
  173000    111.05802   -8424.7492   -7716.6485   -534.38138     102002.7      46.7237      46.7237      46.7237 
  174000    109.16279   -8426.2163   -7730.1995   -656.02408     102002.7      46.7237      46.7237      46.7237 
  175000    107.95704   -8439.3199   -7750.9909   -480.37187     102002.7      46.7237      46.7237      46.7237 
  176000    108.08483   -8418.4777    -7729.334   -416.74196     102002.7      46.7237      46.7237      46.7237 
  177000    111.76492   -8440.7531   -7728.1453   -956.91527     102002.7      46.7237      46.7237      46.7237 
  178000    108.41891   -8400.4494   -7709.1755   -676.17286     102002.7      46.7237      46.7237      46.7237 
  179000    112.77247   -8456.6342   -7737.6023   -587.83288     102002.7      46.7237      46.7237      46.7237 
  180000    113.22324    -8416.945    -7695.039   -778.63425     102002.7      46.7237      46.7237      46.7237 
  181000     112.1597    -8440.402    -7725.277   -470.19131     102002.7      46.7237      46.7237      46.7237 
  182000     109.7254   -8423.9205   -7724.3166    -998.4412     102002.7      46.7237      46.7237      46.7237 
  183000    108.76141    -8437.293   -7743.8354   -798.95013     102002.7      46.7237      46.7237      46.7237 
  184000      111.453   -8432.2842   -7721.6652   -741.49032     102002.7      46.7237      46.7237      46.7237 
  185000    112.38829   -8459.1734    -7742.591   -783.52988     102002.7      46.7237      46.7237      46.7237 
  186000    109.67197   -8406.9623    -7707.699   -739.10996     102002.7      46.7237      46.7237      46.7237 
  187000    108.48029   -8431.4072    -7739.742   -1121.2985     102002.7      46.7237      46.7237      46.7237 
  188000    107.37703   -8427.0107   -7742.3799   -635.27092     102002.7      46.7237      46.7237      46.7237 
  189000    109.96669   -8410.4675   -7709.3251   -631.31066     102002.7      46.7237      46.7237      46.7237 
  190000    107.32927   -8410.4099   -7726.0835   -1081.9788     102002.7      46.7237      46.7237      46.7237 
  191000    109.66086   -8431.9768   -7732.7843   -673.92635     102002.7      46.7237      46.7237      46.7237 
  192000    112.09307   -8449.5507   -7734.8506   -678.34853     102002.7      46.7237      46.7237      46.7237 
  193000    106.68101   -8411.5648   -7731.3717   -871.82017     102002.7      46.7237      46.7237      46.7237 
  194000    109.73954   -8413.3099   -7713.6158   -910.77982     102002.7      46.7237      46.7237      46.7237 
  195000    105.35617   -8441.4409    -7769.695    -461.2137     102002.7      46.7237      46.7237      46.7237 
  196000     109.8125   -8438.3537   -7738.1943   -856.73035     102002.7      46.7237      46.7237      46.7237 
  197000    109.75576   -8430.7025   -7730.9049   -505.10018     102002.7      46.7237      46.7237      46.7237 
  198000    110.84439    -8430.033   -7723.2944   -599.52156     102002.7      46.7237      46.7237      46.7237 
  199000    108.95165    -8433.356   -7738.6854   -1027.4971     102002.7      46.7237      46.7237      46.7237 
  200000    107.83853   -8425.7775   -7738.2042   -970.45544     102002.7      46.7237      46.7237      46.7237 
  201000    108.55201   -8417.2435    -7725.121   -1017.6139     102002.7      46.7237      46.7237      46.7237 
  202000    107.62149   -8414.5829   -7728.3933    -817.8982     102002.7      46.7237      46.7237      46.7237 
  203000    108.85573   -8417.5289   -7723.4699   -771.20373     102002.7      46.7237      46.7237      46.7237 
  204000    108.13721    -8429.616   -7740.1383   -589.27105     102002.7      46.7237      46.7237      46.7237 
  205000    111.66458   -8427.0464   -7715.0784   -674.99153     102002.7      46.7237      46.7237      46.7237 
  206000    111.39849    -8428.925   -7718.6535   -885.19356     102002.7      46.7237      46.7237      46.7237 
  207000    110.68445    -8420.319   -7714.6002   -762.82185     102002.7      46.7237      46.7237      46.7237 
  208000    107.58346   -8423.1361   -7737.1891   -892.35161     102002.7      46.7237      46.7237      46.7237 
  209000    109.47545   -8420.6423   -7722.6321   -865.03933     102002.7      46.7237      46.7237      46.7237 
  210000     108.9045   -8428.8409   -7734.4709   -1156.9355     102002.7      46.7237      46.7237      46.7237 
  211000    110.94431   -8432.6548   -7725.2791   -597.96548     102002.7      46.7237      46.7237      46.7237 
  212000    108.69361   -8412.2437   -7719.2184   -731.79499     102002.7      46.7237      46.7237      46.7237 
  213000     110.4222   -8438.5691   -7734.5224   -730.99221     102002.7      46.7237      46.7237      46.7237 
  214000    111.22104   -8426.3108   -7717.1707   -741.20008     102002.7      46.7237      46.7237      46.7237 
  215000    112.67202   -8414.8284    -7696.437   -1055.1352     102002.7      46.7237      46.7237      46.7237 
  216000    110.72439    -8433.092   -7727.1185   -639.69745     102002.7      46.7237      46.7237      46.7237 
  217000    107.69644   -8420.1783    -7733.511   -817.16688     102002.7      46.7237      46.7237      46.7237 
  218000    106.79062   -8411.7848   -7730.8928   -722.11222     102002.7      46.7237      46.7237      46.7237 
  219000    110.82304   -8435.7768   -7729.1743   -663.94694     102002.7      46.7237      46.7237      46.7237 
  220000    111.16989   -8436.7056   -7727.8916    -857.1098     102002.7      46.7237      46.7237      46.7237 
  221000    110.35515     -8412.83   -7709.2108    -784.2355     102002.7      46.7237      46.7237      46.7237 
  222000    110.88689   -8424.4264   -7717.4169   -490.77745     102002.7      46.7237      46.7237      46.7237 
  223000    111.73829   -8430.9314   -7718.4934   -818.36003     102002.7      46.7237      46.7237      46.7237 
  224000    108.58828   -8426.7814   -7734.4277   -634.07972     102002.7      46.7237      46.7237      46.7237 
  225000    107.49384   -8397.5624   -7712.1867   -798.78322     102002.7      46.7237      46.7237      46.7237 
  226000    109.53089   -8428.6779   -7730.3141   -672.60525     102002.7      46.7237      46.7237      46.7237 
  227000    111.28752   -8407.0864   -7697.5225    -745.5938     102002.7      46.7237      46.7237      46.7237 
  228000    110.48713   -8429.5834   -7725.1227   -817.18015     102002.7      46.7237      46.7237      46.7237 
  229000    111.09592   -8420.1723     -7711.83   -802.66759     102002.7      46.7237      46.7237      46.7237 
  230000    111.64627   -8394.9257   -7683.0743   -701.94169     102002.7      46.7237      46.7237      46.7237 
  231000    108.50765   -8424.2728   -7732.4331   -780.43022     102002.7      46.7237      46.7237      46.7237 
  232000    108.66625   -8437.6327   -7744.7818   -1124.2066     102002.7      46.7237      46.7237      46.7237 
  233000    106.87196   -8417.7964   -7736.3858   -1087.5702     102002.7      46.7237      46.7237      46.7237 
  234000     111.9338   -8409.5229   -7695.8383   -887.63708     102002.7      46.7237      46.7237      46.7237 
  235000     110.0217   -8413.1181   -7711.6249   -866.19455     102002.7      46.7237      46.7237      46.7237 
  236000    108.76669   -8413.7121   -7720.2209   -920.69997     102002.7      46.7237      46.7237      46.7237 
  237000    111.91687   -8434.8545   -7721.2778   -1017.1052     102002.7      46.7237      46.7237      46.7237 
  238000    109.24174   -8389.9419   -7693.4217   -908.08397     102002.7      46.7237      46.7237      46.7237 
  239000     109.2246   -8394.9544   -7698.5436   -930.98978     102002.7      46.7237      46.7237      46.7237 
  240000    112.05825   -8416.8234   -7702.3453   -697.68208     102002.7      46.7237      46.7237      46.7237 
  241000    111.94743    -8461.239   -7747.4675   -736.91232     102002.7      46.7237      46.7237      46.7237 
  242000    110.00403   -8423.4315   -7722.0509   -548.43606     102002.7      46.7237      46.7237      46.7237 
  243000    108.05387   -8438.4832   -7749.5368   -511.61231     102002.7      46.7237      46.7237      46.7237 
  244000    112.47392   -8435.6618   -7718.5334   -894.54202     102002.7      46.7237      46.7237      46.7237 
  245000    107.35304   -8450.1758   -7765.6979   -565.28915     102002.7      46.7237      46.7237      46.7237 
  246000    109.25704   -8431.6656   -7735.0479   -662.66383     102002.7      46.7237      46.7237      46.7237 
  247000    106.99191   -8433.9863   -7751.8109   -810.30395     102002.7      46.7237      46.7237      46.7237 
  248000    113.89604   -8434.5191   -7708.3234   -671.00652     102002.7      46.7237      46.7237      46.7237 
  249000    107.90886   -8408.1131   -7720.0913   -643.53551     102002.7      46.7237      46.7237      46.7237 
  250000    107.24974   -8442.8585   -7759.0392   -831.02175     102002.7      46.7237      46.7237      46.7237 
  251000    107.65422   -8448.8578   -7762.4596   -668.30293     102002.7      46.7237      46.7237      46.7237 
  252000    111.40099   -8445.1255    -7734.838   -836.69551     102002.7      46.7237      46.7237      46.7237 
  253000     106.5483   -8435.5438   -7756.1969   -711.83302     102002.7      46.7237      46.7237      46.7237 
  254000    112.93199   -8395.1187   -7675.0697   -606.64319     102002.7      46.7237      46.7237      46.7237 
  255000    108.07113   -8421.4125   -7732.3561   -725.57013     102002.7      46.7237      46.7237      46.7237 
  256000    111.74535   -8436.1866   -7723.7035   -606.75113     102002.7      46.7237      46.7237      46.7237 
  257000    108.85297   -8442.2885    -7748.247   -839.96933     102002.7      46.7237      46.7237      46.7237 
  258000     110.8585   -8449.3097   -7742.4812   -751.14189     102002.7      46.7237      46.7237      46.7237 
  259000    108.86924    -8455.419   -7761.2739   -798.26406     102002.7      46.7237      46.7237      46.7237 
  260000    112.24545   -8419.4516     -7703.78   -780.42761     102002.7      46.7237      46.7237      46.7237 
  261000    112.70793   -8417.3694    -7698.749   -907.48649     102002.7      46.7237      46.7237      46.7237 
  262000    107.80326   -8444.3642   -7757.0157   -699.35645     102002.7      46.7237      46.7237      46.7237 
  263000     108.8361   -8421.1888    -7727.255   -774.65107     102002.7      46.7237      46.7237      46.7237 
  264000     110.2389   -8432.4047   -7729.5267   -873.49936     102002.7      46.7237      46.7237      46.7237 
  265000     111.6757   -8447.6727   -7735.6337    -1095.344     102002.7      46.7237      46.7237      46.7237 
  266000    112.47349   -8449.1867    -7732.061   -754.69332     102002.7      46.7237      46.7237      46.7237 
  267000    109.05692   -8427.4228    -7732.081   -762.95536     102002.7      46.7237      46.7237      46.7237 
  268000    107.63918   -8443.5525   -7757.2501   -1166.0808     102002.7      46.7237      46.7237      46.7237 
  269000     109.8721   -8429.6709   -7729.1316   -705.02784     102002.7      46.7237      46.7237      46.7237 
  270000    112.79085   -8454.1868   -7735.0376   -616.26908     102002.7      46.7237      46.7237      46.7237 
  271000    109.54884   -8397.7689   -7699.2907   -702.31426     102002.7      46.7237      46.7237      46.7237 
  272000    107.84767   -8445.8459   -7758.2143   -602.38647     102002.7      46.7237      46.7237      46.7237 
  273000    108.27172   -8420.8257   -7730.4903   -569.38523     102002.7      46.7237      46.7237      46.7237 
  274000    110.25004   -8429.9399   -7726.9909   -658.39527     102002.7      46.7237      46.7237      46.7237 
  275000    113.38357   -8428.0809   -7705.1526   -365.13543     102002.7      46.7237      46.7237      46.7237 
  276000    109.60923   -8443.9219   -7745.0587    -560.5525     102002.7      46.7237      46.7237      46.7237 
  277000    110.04422   -8423.8389   -7722.2022   -550.17548     102002.7      46.7237      46.7237      46.7237 
  278000    109.73873   -8443.5165   -7743.8275   -537.34548     102002.7      46.7237      46.7237      46.7237 
  279000    110.70469   -8429.7207   -7723.8729   -388.52469     102002.7      46.7237      46.7237      46.7237 
  280000    112.62986   -8417.6603   -7699.5377   -547.38392     102002.7      46.7237      46.7237      46.7237 
  281000    112.11741   -8423.2277   -7708.3723   -583.07034     102002.7      46.7237      46.7237      46.7237 
  282000    111.95699   -8440.8166   -7726.9842   -625.86852     102002.7      46.7237      46.7237      46.7237 
  283000    111.01113   -8408.9285   -7701.1268   -823.89334     102002.7      46.7237      46.7237      46.7237 
  284000    111.12699   -8421.2048   -7712.6644   -906.99708     102002.7      46.7237      46.7237      46.7237 
  285000    112.58236   -8434.4165   -7716.5968   -955.01921     102002.7      46.7237      46.7237      46.7237 
  286000    105.71604   -8445.9598   -7771.9194   -549.85268     102002.7      46.7237      46.7237      46.7237 
  287000    108.87627   -8405.5149   -7711.3249   -739.98509     102002.7      46.7237      46.7237      46.7237 
  288000    108.36481   -8426.5612   -7735.6323   -656.90743     102002.7      46.7237      46.7237      46.7237 
  289000    107.69985   -8417.0116   -7730.3224   -660.06874     102002.7      46.7237      46.7237      46.7237 
  290000    109.46435   -8431.3964   -7733.4569   -679.22075     102002.7      46.7237      46.7237      46.7237 
  291000    111.99343   -8405.9062   -7691.8414   -791.79507     102002.7      46.7237      46.7237      46.7237 
  292000    109.65657   -8437.4932   -7738.3281   -639.12434     102002.7      46.7237      46.7237      46.7237 
  293000    107.26586   -8399.8678   -7715.9457   -721.13144     102002.7      46.7237      46.7237      46.7237 
  294000    105.54652   -8439.3518   -7766.3922   -800.53169     102002.7      46.7237      46.7237      46.7237 
  295000    111.56334   -8409.6678   -7698.3452   -890.02707     102002.7      46.7237      46.7237      46.7237 
  296000    110.12046   -8434.8333   -7732.7105   -495.18762     102002.7      46.7237      46.7237      46.7237 
  297000    113.39296   -8421.8003   -7698.8121     -541.944     102002.7      46.7237      46.7237      46.7237 
  298000    109.59437   -8422.6063   -7723.8378   -564.35668     102002.7      46.7237      46.7237      46.7237 
  299000    107.50417   -8419.8496   -7734.4081   -890.52351     102002.7      46.7237      46.7237      46.7237 
  300000    111.90753   -8416.8201    -7703.303   -999.32307     102002.7      46.7237      46.7237      46.7237 
  301000    113.31475   -8429.0778   -7706.5884   -466.61153     102002.7      46.7237      46.7237      46.7237 
  302000    107.72856   -8397.7393   -7710.8671   -802.93578     102002.7      46.7237      46.7237      46.7237 
  303000     107.1086   -8393.6537   -7710.7343   -793.75851     102002.7      46.7237      46.7237      46.7237 
  304000    111.95819   -8392.3077   -7678.4676   -314.81289     102002.7      46.7237      46.7237      46.7237 
  305000    112.12137   -8420.0851   -7705.2045   -513.86239     102002.7      46.7237      46.7237      46.7237 
  306000    111.20854   -8397.0984    -7688.038   -674.12767     102002.7      46.7237      46.7237      46.7237 
  307000    109.24203    -8420.367    -7723.845   -666.56248     102002.7      46.7237      46.7237      46.7237 
  308000    109.14383   -8433.7187   -7737.8228   -659.18873     102002.7      46.7237      46.7237      46.7237 
  309000    113.58368   -8405.8465   -7681.6424   -780.19993     102002.7      46.7237      46.7237      46.7237 
  310000    113.24553   -8432.8506   -7710.8025   -882.35033     102002.7      46.7237      46.7237      46.7237 
  311000    110.40264    -8437.921    -7733.999   -689.81593     102002.7      46.7237      46.7237      46.7237 
  312000    113.12581   -8413.3709   -7692.0861    -727.3629     102002.7      46.7237      46.7237      46.7237 
  313000    111.75305   -8424.5062   -7711.9741   -642.33509     102002.7      46.7237      46.7237      46.7237 
  314000    110.24015   -8445.0032   -7742.1173   -641.10717     102002.7      46.7237      46.7237      46.7237 
  315000    108.80128   -8424.0926   -7730.3808   -644.25115     102002.7      46.7237      46.7237      46.7237 
  316000     108.5461   -8419.4012   -7727.3164   -712.13214     102002.7      46.7237      46.7237      46.7237 
  317000    112.11445   -8385.0561   -7670.2196   -726.68071     102002.7      46.7237      46.7237      46.7237 
  318000    111.85535   -8433.9829   -7720.7985   -785.05251     102002.7      46.7237      46.7237      46.7237 
  319000     107.1984   -8417.1297   -7733.6377    -673.2399     102002.7      46.7237      46.7237      46.7237 
  320000    111.19141   -8439.2554   -7730.3043   -633.39243     102002.7      46.7237      46.7237      46.7237 
  321000    112.74249   -8426.4457   -7707.6049   -812.66464     102002.7      46.7237      46.7237      46.7237 
  322000    111.83818     -8426.03   -7712.9551   -982.70588     102002.7      46.7237      46.7237      46.7237 
  323000    111.35121   -8421.2602   -7711.2902   -686.88686     102002.7      46.7237      46.7237      46.7237 
  324000    107.29455   -8419.1421   -7735.0372   -956.98312     102002.7      46.7237      46.7237      46.7237 
  325000    106.07141    -8415.406   -7739.0997    -806.7372     102002.7      46.7237      46.7237      46.7237 
  326000    107.99045   -8437.0399   -7748.4979   -692.10839     102002.7      46.7237      46.7237      46.7237 
  327000    111.77242    -8436.401   -7723.7453   -678.09071     102002.7      46.7237      46.7237      46.7237 
  328000    108.69043   -8429.1795   -7736.1745   -724.71936     102002.7      46.7237      46.7237      46.7237 
  329000    110.96684   -8406.2712   -7698.7518   -901.91404     102002.7      46.7237      46.7237      46.7237 
  330000    110.50856    -8436.309   -7731.7116    -1057.279     102002.7      46.7237      46.7237      46.7237 
  331000    110.73347   -8455.2406   -7749.2093    -631.4139     102002.7      46.7237      46.7237      46.7237 
  332000    110.21354   -8434.2259   -7731.5096   -764.52327     102002.7      46.7237      46.7237      46.7237 
  333000    107.74333    -8432.922   -7745.9556   -906.19199     102002.7      46.7237      46.7237      46.7237 
  334000    108.66078   -8458.1883   -7765.3723   -1018.2093     102002.7      46.7237      46.7237      46.7237 
  335000    112.27805   -8421.2081   -7705.3286   -827.80623     102002.7      46.7237      46.7237      46.7237 
  336000    107.10323   -8433.9188   -7751.0337   -612.58839     102002.7      46.7237      46.7237      46.7237 
  337000    111.18071   -8429.6676   -7720.7846   -754.66372     102002.7      46.7237      46.7237      46.7237 
  338000    111.52392   -8420.1845   -7709.1132   -577.71502     102002.7      46.7237      46.7237      46.7237 
  339000    113.83762   -8438.1417   -7712.3184   -546.09217     102002.7      46.7237      46.7237      46.7237 
  340000     108.3321   -8426.4962   -7735.7758   -686.50631     102002.7      46.7237      46.7237      46.7237 
  341000    107.19716   -8408.7051   -7725.2211   -775.15477     102002.7      46.7237      46.7237      46.7237 
  342000    110.09949   -8422.5195   -7720.5304   -655.85071     102002.7      46.7237      46.7237      46.7237 
  343000    110.20028   -8416.1007   -7713.4689   -852.39675     102002.7      46.7237      46.7237      46.7237 
  344000    109.29749   -8418.4355   -7721.5599    -733.6515     102002.7      46.7237      46.7237      46.7237 
  345000    109.29911   -8424.4852   -7727.5993   -853.86859     102002.7      46.7237      46.7237      46.7237 
  346000    109.30213   -8430.9074   -7734.0021   -595.27433     102002.7      46.7237      46.7237      46.7237 
  347000    108.58686   -8416.7203   -7724.3756   -782.80166     102002.7      46.7237      46.7237      46.7237 
  348000    107.43429   -8441.4517   -7756.4557   -945.83729     102002.7      46.7237      46.7237      46.7237 
  349000    109.10952    -8427.784   -7732.1069   -610.12587     102002.7      46.7237      46.7237      46.7237 
  350000    112.31729   -8437.9411   -7721.8114   -660.75002     102002.7      46.7237      46.7237      46.7237 
  351000    107.29024   -8440.7731   -7756.6956   -917.90427     102002.7      46.7237      46.7237      46.7237 
  352000     110.2941   -8420.3952   -7717.1653   -463.73926     102002.7      46.7237      46.7237      46.7237 
  353000     110.1301    -8438.767   -7736.5827    -873.7477     102002.7      46.7237      46.7237      46.7237 
  354000    108.29249    -8437.801   -7747.3332   -723.52607     102002.7      46.7237      46.7237      46.7237 
  355000     110.3968   -8424.2483   -7720.3635   -913.24712     102002.7      46.7237      46.7237      46.7237 
  356000    108.21581   -8435.4716   -7745.4928   -940.21111     102002.7      46.7237      46.7237      46.7237 
  357000     111.2575   -8425.1421   -7715.7696   -800.28146     102002.7      46.7237      46.7237      46.7237 
  358000    112.18275    -8432.082   -7716.8101   -936.18808     102002.7      46.7237      46.7237      46.7237 
  359000    108.41919    -8416.213   -7724.9373   -929.60879     102002.7      46.7237      46.7237      46.7237 
  360000     107.7019   -8418.1401   -7731.4379   -724.56509     102002.7      46.7237      46.7237      46.7237 
  361000    108.72257   -8395.3948   -7702.1849   -763.83168     102002.7      46.7237      46.7237      46.7237 
  362000    111.09906    -8413.053   -7704.6906   -790.77465     102002.7      46.7237      46.7237      46.7237 
  363000    110.10364   -8443.9778   -7741.9622   -749.94664     102002.7      46.7237      46.7237      46.7237 
  364000     111.7251    -8433.964     -7721.61   -889.26218     102002.7      46.7237      46.7237      46.7237 
  365000    110.76359   -8438.0367   -7731.8133   -753.18976     102002.7      46.7237      46.7237      46.7237 
  366000    109.14094    -8413.531   -7717.6536   -747.20446     102002.7      46.7237      46.7237      46.7237 
  367000     113.0071   -8434.9775   -7714.4496   -677.70309     102002.7      46.7237      46.7237      46.7237 
  368000    110.03367   -8418.6373   -7717.0679    -767.2188     102002.7      46.7237      46.7237      46.7237 
  369000    110.63992   -8430.9454   -7725.5105   -796.57609     102002.7      46.7237      46.7237      46.7237 
  370000    108.34493   -8437.7039   -7746.9018   -755.28587     102002.7      46.7237      46.7237      46.7237 
  371000    111.15126   -8442.7802   -7734.0851   -840.42194     102002.7      46.7237      46.7237      46.7237 
  372000    110.72458    -8402.108   -7696.1333   -592.74538     102002.7      46.7237      46.7237      46.7237 
  373000    111.97504   -8432.9868   -7719.0392   -635.63549     102002.7      46.7237      46.7237      46.7237 
  374000    108.69467   -8433.0376   -7740.0055   -734.24212     102002.7      46.7237      46.7237      46.7237 
  375000    109.32909    -8406.487   -7709.4099   -767.40038     102002.7      46.7237      46.7237      46.7237 
  376000    111.25662   -8434.3552   -7724.9882   -832.65271     102002.7      46.7237      46.7237      46.7237 
  377000    109.58369   -8418.3913   -7719.6909   -571.75922     102002.7      46.7237      46.7237      46.7237 
  378000    111.46489   -8426.8989    -7716.204   -935.71703     102002.7      46.7237      46.7237      46.7237 
  379000    109.91985   -8441.7379   -7740.8941   -802.86524     102002.7      46.7237      46.7237      46.7237 
  380000    110.55854   -8424.1412   -7719.2252   -789.76083     102002.7      46.7237      46.7237      46.7237 
  381000    110.11643   -8414.7345   -7712.6374   -628.05996     102002.7      46.7237      46.7237      46.7237 
  382000    109.55593   -8406.5205   -7707.9971   -533.86401     102002.7      46.7237      46.7237      46.7237 
  383000     108.2843   -8445.6119   -7755.1963   -807.66554     102002.7      46.7237      46.7237      46.7237 
  384000    108.96381   -8416.4571   -7721.7091   -1005.0777     102002.7      46.7237      46.7237      46.7237 
  385000    108.59172   -8417.1491   -7724.7734   -989.43811     102002.7      46.7237      46.7237      46.7237 
  386000    110.13178   -8401.9584   -7699.7634   -680.52409     102002.7      46.7237      46.7237      46.7237 
  387000    110.34977    -8423.003   -7719.4181   -924.11844     102002.7      46.7237      46.7237      46.7237 
  388000    107.09171   -8450.7713   -7767.9596   -628.95754     102002.7      46.7237      46.7237      46.7237 
  389000    113.08408   -8440.8238   -7719.8051   -591.89153     102002.7      46.7237      46.7237      46.7237 
  390000    110.35031   -8417.9467   -7714.3583   -424.61461     102002.7      46.7237      46.7237      46.7237 
  391000    112.75768   -8430.1144   -7711.1768   -840.81793     102002.7      46.7237      46.7237      46.7237 
  392000    109.05694   -8447.3677   -7752.0258   -503.97147     102002.7      46.7237      46.7237      46.7237 
  393000    111.37477   -8425.0409   -7714.9206    -314.6612     102002.7      46.7237      46.7237      46.7237 
  394000    111.91332   -8449.7242   -7736.1702   -603.77053     102002.7      46.7237      46.7237      46.7237 
  395000    111.35692    -8427.935   -7717.9286   -395.02488     102002.7      46.7237      46.7237      46.7237 
  396000    110.32832   -8428.4187   -7724.9706   -483.75256     102002.7      46.7237      46.7237      46.7237 
  397000    113.31697    -8441.508   -7719.0043   -539.16656     102002.7      46.7237      46.7237      46.7237 
  398000    110.64534   -8432.2984    -7726.829   -935.84558     102002.7      46.7237      46.7237      46.7237 
  399000    108.98844    -8419.641   -7724.7359   -970.06399     102002.7      46.7237      46.7237      46.7237 
  400000    107.34882   -8424.5152   -7740.0642   -893.49055     102002.7      46.7237      46.7237      46.7237 
  401000    112.88915   -8421.0645   -7701.2886   -870.82482     102002.7      46.7237      46.7237      46.7237 
  402000    109.18273   -8437.0044   -7740.8605   -904.95937     102002.7      46.7237      46.7237      46.7237 
  403000    108.57436   -8417.0776   -7724.8127   -439.68614     102002.7      46.7237      46.7237      46.7237 
  404000    114.48452    -8428.604   -7698.6561   -818.86913     102002.7      46.7237      46.7237      46.7237 
  405000    111.40658   -8447.8643   -7737.5412    -791.0612     102002.7      46.7237      46.7237      46.7237 
  406000    111.84795   -8424.5011   -7711.3638   -949.01055     102002.7      46.7237      46.7237      46.7237 
  407000    112.38924   -8440.6841   -7724.0956   -931.46303     102002.7      46.7237      46.7237      46.7237 
  408000    112.54951   -8457.6191   -7740.0088   -825.36929     102002.7      46.7237      46.7237      46.7237 
  409000    112.08593   -8429.2806    -7714.626   -833.47248     102002.7      46.7237      46.7237      46.7237 
  410000    109.55012   -8439.2266   -7740.7402   -584.76652     102002.7      46.7237      46.7237      46.7237 
  411000    109.22893   -8423.8433   -7727.4048   -651.90708     102002.7      46.7237      46.7237      46.7237 
  412000     108.6691   -8444.7254   -7751.8563    -492.0634     102002.7      46.7237      46.7237      46.7237 
  413000    108.10736    -8422.054   -7732.7666   -788.52602     102002.7      46.7237      46.7237      46.7237 
  414000     107.3541   -8454.6955   -7770.2108   -733.41378     102002.7      46.7237      46.7237      46.7237 
  415000    109.72413   -8445.1944   -7745.5986   -782.19172     102002.7      46.7237      46.7237      46.7237 
  416000     108.7499   -8413.9494   -7720.5652   -680.37057     102002.7      46.7237      46.7237      46.7237 
  417000    113.00425   -8425.7412   -7705.2315   -566.39098     102002.7      46.7237      46.7237      46.7237 
  418000    108.14174   -8460.5891   -7771.0824   -903.89439     102002.7      46.7237      46.7237      46.7237 
  419000     108.3978   -8429.6133   -7738.4741   -813.58908     102002.7      46.7237      46.7237      46.7237 
  420000    111.26607   -8425.4618   -7716.0346   -633.00116     102002.7      46.7237      46.7237      46.7237 
  421000     113.7871   -8426.8642    -7701.363   -1102.2888     102002.7      46.7237      46.7237      46.7237 
  422000    111.07413   -8426.7798   -7718.5764   -745.91352     102002.7      46.7237      46.7237      46.7237 
  423000    110.92501    -8441.162   -7733.9093   -876.44294     102002.7      46.7237      46.7237      46.7237 
  424000    107.70365   -8406.9421   -7720.2287   -736.04009     102002.7      46.7237      46.7237      46.7237 
  425000    110.79079   -8440.2496   -7733.8527   -902.03669     102002.7      46.7237      46.7237      46.7237 
  426000    110.84073   -8419.9936   -7713.2784   -978.13395     102002.7      46.7237      46.7237      46.7237 
  427000    110.22346   -8417.8531   -7715.0735   -799.76448     102002.7      46.7237      46.7237      46.7237 
  428000    104.43886   -8443.1157   -7777.2184   -807.71299     102002.7      46.7237      46.7237      46.7237 
  429000    111.19008    -8428.357   -7719.4144   -605.12664     102002.7      46.7237      46.7237      46.7237 
  430000    111.73936   -8440.4863   -7728.0414   -798.03091     102002.7      46.7237      46.7237      46.7237 
  431000    107.82836   -8450.2063   -7762.6978   -835.96954     102002.7      46.7237      46.7237      46.7237 
  432000    110.52017   -8424.9857   -7720.3143   -883.69993     102002.7      46.7237      46.7237      46.7237 
  433000    107.90982   -8430.3365   -7742.3086   -599.93931     102002.7      46.7237      46.7237      46.7237 
  434000    109.00958    -8425.941    -7730.901   -683.95716     102002.7      46.7237      46.7237      46.7237 
  435000    111.13789   -8427.7188   -7719.1089   -595.76327     102002.7      46.7237      46.7237      46.7237 
  436000    106.40231   -8433.4314   -7755.0153   -732.78263     102002.7      46.7237      46.7237      46.7237 
  437000    110.40766   -8438.4494   -7734.4954   -683.51627     102002.7      46.7237      46.7237      46.7237 
  438000    110.54725    -8415.886    -7711.042   -546.08791     102002.7      46.7237      46.7237      46.7237 
  439000    109.01452   -8402.7747   -7707.7033   -493.07686     102002.7      46.7237      46.7237      46.7237 
  440000    107.05176    -8421.815    -7739.258   -739.99977     102002.7      46.7237      46.7237      46.7237 
  441000    110.57665    -8417.393   -7712.3615   -798.86841     102002.7      46.7237      46.7237      46.7237 
  442000    109.95731   -8425.5648   -7724.4822   -669.69531     102002.7      46.7237      46.7237      46.7237 
  443000    108.77559   -8436.2396   -7742.6916   -381.48617     102002.7      46.7237      46.7237      46.7237 
  444000    111.00705   -8416.3519   -7708.5763   -609.48779     102002.7      46.7237      46.7237      46.7237 
  445000    110.70531   -8455.3729   -7749.5211   -611.38239     102002.7      46.7237      46.7237      46.7237 
  446000    109.99619   -8412.5322   -7711.2016   -404.18565     102002.7      46.7237      46.7237      46.7237 
  447000    110.82907   -8432.1695   -7725.5287   -692.41441     102002.7      46.7237      46.7237      46.7237 
  448000    110.43419    -8416.215   -7712.0919   -551.86388     102002.7      46.7237      46.7237      46.7237 
  449000    113.24921   -8425.2586   -7703.1871   -275.43131     102002.7      46.7237      46.7237      46.7237 
  450000    111.15093   -8413.8164   -7705.1233   -559.06321     102002.7      46.7237      46.7237      46.7237 
  451000    109.09315   -8429.8223   -7734.2495   -544.74197     102002.7      46.7237      46.7237      46.7237 
  452000    105.17437   -8437.1696   -7766.5828   -990.80113     102002.7      46.7237      46.7237      46.7237 
  453000    110.45031   -8413.6813   -7709.4554   -547.83739     102002.7      46.7237      46.7237      46.7237 
  454000    108.70182   -8439.5918   -7746.5142   -749.21753     102002.7      46.7237      46.7237      46.7237 
  455000    110.25375   -8441.9607    -7738.988   -735.23339     102002.7      46.7237      46.7237      46.7237 
  456000    106.28751   -8416.5232   -7738.8391    -601.9513     102002.7      46.7237      46.7237      46.7237 
  457000    108.90094   -8410.2656   -7715.9184   -1008.8032     102002.7      46.7237      46.7237      46.7237 
  458000    109.89716   -8397.1694   -7696.4704   -547.55483     102002.7      46.7237      46.7237      46.7237 
  459000    108.08259   -8428.9523   -7739.8228   -622.24922     102002.7      46.7237      46.7237      46.7237 
  460000    112.28454   -8400.8381   -7684.9171   -690.47206     102002.7      46.7237      46.7237      46.7237 
  461000    108.41502   -8429.6803   -7738.4312   -596.15911     102002.7      46.7237      46.7237      46.7237 
  462000    110.27269   -8413.0916   -7709.9982   -986.11842     102002.7      46.7237      46.7237      46.7237 
  463000    110.41731   -8418.2129   -7714.1974   -779.21906     102002.7      46.7237      46.7237      46.7237 
  464000    111.40007   -8424.7528   -7714.4712   -942.66428     102002.7      46.7237      46.7237      46.7237 
  465000    110.16344    -8446.255   -7743.8581   -1123.0216     102002.7      46.7237      46.7237      46.7237 
  466000    107.94118   -8418.6007   -7730.3728   -598.07666     102002.7      46.7237      46.7237      46.7237 
  467000    110.47298   -8429.7367   -7725.3662   -613.10066     102002.7      46.7237      46.7237      46.7237 
  468000    110.78205   -8426.3517   -7720.0106   -789.85188     102002.7      46.7237      46.7237      46.7237 
  469000    111.95784   -8419.5412   -7705.7033   -886.34811     102002.7      46.7237      46.7237      46.7237 
  470000    109.20514   -8451.4198    -7755.133   -885.30994     102002.7      46.7237      46.7237      46.7237 
  471000    108.79575   -8440.3015    -7746.625   -1079.8167     102002.7      46.7237      46.7237      46.7237 
  472000    109.26092    -8408.067   -7711.4245    -698.6298     102002.7      46.7237      46.7237      46.7237 
  473000     109.1346   -8420.3752   -7724.5381    -848.2328     102002.7      46.7237      46.7237      46.7237 
  474000    112.25432    -8421.926   -7706.1978   -595.61802     102002.7      46.7237      46.7237      46.7237 
  475000    109.69664   -8415.1082   -7715.6876     -819.722     102002.7      46.7237      46.7237      46.7237 
  476000    111.34414   -8461.4392   -7751.5142   -839.88286     102002.7      46.7237      46.7237      46.7237 
  477000    108.84698   -8417.7221   -7723.7189   -857.63967     102002.7      46.7237      46.7237      46.7237 
  478000    110.83011   -8432.7624   -7726.1148   -927.64688     102002.7      46.7237      46.7237      46.7237 
  479000    111.43315   -8436.7479   -7726.2554   -1068.9209     102002.7      46.7237      46.7237      46.7237 
  480000    108.08075   -8423.2286   -7734.1108   -862.98575     102002.7      46.7237      46.7237      46.7237 
  481000    110.94988   -8432.2732    -7724.862   -881.05984     102002.7      46.7237      46.7237      46.7237 
  482000    108.96662   -8440.0776   -7745.3116   -823.50298     102002.7      46.7237      46.7237      46.7237 
  483000    111.27532    -8427.047   -7717.5608   -756.47957     102002.7      46.7237      46.7237      46.7237 
  484000     111.5215    -8423.274   -7712.2182    -862.2764     102002.7      46.7237      46.7237      46.7237 
  485000    109.39754   -8425.7949   -7728.2814    -538.3988     102002.7      46.7237      46.7237      46.7237 
  486000    110.88419   -8394.5351   -7687.5428   -1043.4195     102002.7      46.7237      46.7237      46.7237 
  487000    113.31833   -8439.2597   -7716.7474   -839.97961     102002.7      46.7237      46.7237      46.7237 
  488000    109.34494   -8433.1395   -7735.9614   -459.07593     102002.7      46.7237      46.7237      46.7237 
  489000    110.65705   -8425.7542   -7720.2101   -829.48514     102002.7      46.7237      46.7237      46.7237 
  490000    108.86691   -8430.1973    -7736.067   -611.52122     102002.7      46.7237      46.7237      46.7237 
  491000    111.54061    -8449.566   -7738.3883   -740.71763     102002.7      46.7237      46.7237      46.7237 
  492000    106.75863   -8459.0764   -7778.3885   -814.24711     102002.7      46.7237      46.7237      46.7237 
  493000    110.39528   -8431.5653   -7727.6902   -717.55703     102002.7      46.7237      46.7237      46.7237 
  494000    107.92496   -8443.7461   -7755.6217   -809.61067     102002.7      46.7237      46.7237      46.7237 
  495000    110.78151   -8414.1188   -7707.7811   -842.07943     102002.7      46.7237      46.7237      46.7237 
  496000    112.96675   -8405.0907   -7684.8201   -630.05448     102002.7      46.7237      46.7237      46.7237 
  497000    111.80363   -8429.1879   -7716.3332   -678.88246     102002.7      46.7237      46.7237      46.7237 
  498000    107.54746    -8408.709   -7722.9915   -1072.3125     102002.7      46.7237      46.7237      46.7237 
  499000    108.36656   -8424.1066   -7733.1666   -623.45422     102002.7      46.7237      46.7237      46.7237 
  500000    108.94944   -8422.2346   -7727.5782   -828.67023     102002.7      46.7237      46.7237      46.7237 
  500500    110.55945   -8408.5557   -7703.6339   -967.51431     102002.7      46.7237      46.7237      46.7237 
Loop time of 663.059 on 24 procs for 500000 steps with 2140 atoms

Performance: 65.153 ns/day, 0.368 hours/ns, 754.081 timesteps/s
99.3% CPU use with 24 MPI tasks x no OpenMP threads

MPI task timing breakdown:
Section |  min time  |  avg time  |  max time  |%varavg| %total
---------------------------------------------------------------
Pair    | 210.97     | 320.72     | 448.81     | 361.7 | 48.37
Bond    | 59.355     | 78.811     | 98.899     | 150.1 | 11.89
Neigh   | 3.8457     | 3.8749     | 3.8964     |   0.9 |  0.58
Comm    | 108.33     | 250.82     | 376.12     | 454.6 | 37.83
Output  | 0.40787    | 0.40814    | 0.41185    |   0.1 |  0.06
Modify  | 3.8251     | 4.2304     | 4.539      |   8.1 |  0.64
Other   |            | 4.194      |            |       |  0.63

Nlocal:    89.1667 ave 121 max 60 min
Histogram: 1 3 2 3 2 6 4 0 2 1
Nghost:    2415.67 ave 2539 max 2339 min
Histogram: 8 3 5 0 0 0 0 0 5 3
Neighs:    7644.83 ave 12550 max 3121 min
Histogram: 2 2 2 3 5 4 1 1 1 3

Total # of neighbors = 183476
Ave neighs/atom = 85.7364
Ave special neighs/atom = 5.38318
Neighbor list builds = 4424
Dangerous builds = 0
Neighbor list info ...
  update every 1 steps, delay 10 steps, check yes
  max neighbors/atom: 2000, page size: 100000
  master list distance cutoff = 16
  ghost atom cutoff = 16
  binsize = 8, bins = 6 6 6
  3 neighbor lists, perpetual/occasional/extra = 3 0 0
  (1) pair buck6d/coul/gauss/dsf, perpetual, skip from (3)
      attributes: half, newton on
      pair build: skip
      stencil: none
      bin: none
  (2) pair lj/cut, perpetual, skip from (3)
      attributes: half, newton on
      pair build: skip
      stencil: none
      bin: none
  (3) neighbor class addition, perpetual
      attributes: half, newton on
      pair build: half/bin/newton
      stencil: half/bin/3d/newton
      bin: standard
Setting up Verlet run ...
  Unit style    : real
  Current step  : 500500
  Time step     : 1
WARNING: Inconsistent image flags (../domain.cpp:786)
Per MPI rank memory allocation (min/avg/max) = 24.13 | 24.51 | 24.6 Mbytes
Step Time TotEng KinEng PotEng E_mol E_pair Temp Pxx Pyy Pzz Pxy Pxz Pyz Cella Cellb Cellc CellAlpha CellBeta CellGamma Volume Press 
  500500       500000   -7703.6339    704.92183   -8408.5557     4275.195   -12683.751    110.55945   -1179.5926   -713.36244   -1009.5879    236.05121   -56.605323   -356.25385      46.7237      46.7237      46.7237           90           90           90     102002.7   -967.51431 
  501000       500500   -7720.5082    698.86163   -8419.3698     4285.631   -12705.001    109.60897   -857.38799   -1205.0772   -442.19743    189.49433    164.87656   -247.02627      46.7237      46.7237      46.7237           90           90           90     102002.7   -834.88755 
  502000       501500   -7704.2058    695.30933   -8399.5152     4299.408   -12698.923    109.05183   -876.87647   -1107.6006   -1099.3653    132.30958    246.12343    44.859984      46.7237      46.7237      46.7237           90           90           90     102002.7   -1027.9475 
  503000       502500   -7746.8154    693.01692   -8439.8323    4252.9588   -12692.791    108.69229   -974.47495   -684.11558   -1282.9429    262.64818    288.25329   -146.79285      46.7237      46.7237      46.7237           90           90           90     102002.7   -980.51113 
  504000       503500   -7721.6908    703.97039   -8425.6612    4259.5311   -12685.192    110.41023   -832.15825   -847.39006   -1093.9804    100.71385   -242.75454    5.8246516      46.7237      46.7237      46.7237           90           90           90     102002.7   -924.50956 
  505000       504500   -7711.9887    704.27015   -8416.2588    4305.5098   -12721.769    110.45724    -947.3239   -58.873164   -874.00907   -140.09145    103.84644    143.59757      46.7237      46.7237      46.7237           90           90           90     102002.7   -626.73538 
  506000       505500   -7747.1411    687.20874   -8434.3498    4271.2687   -12705.619    107.78134   -710.30225    -437.9326   -812.75654   -59.007159   -83.635306   -13.911108      46.7237      46.7237      46.7237           90           90           90     102002.7    -653.6638 
  507000       506500   -7731.7087    710.33525    -8442.044    4278.9444   -12720.988    111.40849   -767.57062    -698.3476   -312.27511   -11.114743   -5.2015517    89.977604      46.7237      46.7237      46.7237           90           90           90     102002.7   -592.73111 
  508000       507500   -7716.0861    710.43655   -8426.5227    4277.5715   -12704.094    111.42438   -641.78315   -1040.1475   -786.14534    156.59909    64.122118   -84.575135      46.7237      46.7237      46.7237           90           90           90     102002.7   -822.69199 
  509000       508500   -7726.4291    686.44178   -8412.8708     4277.843   -12690.714    107.66105   -813.17001   -643.72168   -209.78618    117.71371    41.235284   -83.384278      46.7237      46.7237      46.7237           90           90           90     102002.7   -555.55929 
  510000       509500    -7689.421    721.92403    -8411.345    4301.1359   -12712.481    113.22606   -299.70679    -566.4205   -278.43196   -49.941438    -112.1727   -100.55894      46.7237      46.7237      46.7237           90           90           90     102002.7   -381.51975 
  511000       510500   -7714.8852    712.17584    -8427.061    4276.5247   -12703.586    111.69717   -405.10545   -950.00139   -1197.4808   -43.258747    148.03643    94.692046      46.7237      46.7237      46.7237           90           90           90     102002.7   -850.86256 
  512000       511500   -7736.1145    695.31932   -8431.4338    4281.1352   -12712.569     109.0534   -638.64487   -132.88033   -719.30678   -88.647676     317.4126    143.97778      46.7237      46.7237      46.7237           90           90           90     102002.7   -496.94399 
  513000       512500    -7714.169    714.94302    -8429.112     4287.263   -12716.375    112.13117   -411.33264   -351.14794   -1170.4957    229.07492   -5.5293142   -236.55619      46.7237      46.7237      46.7237           90           90           90     102002.7   -644.32542 
  514000       513500   -7694.7042    695.56663   -8390.2708    4298.3936   -12688.664    109.09219    -305.0606   -701.31266   -898.06074    54.877323    69.960447   -83.193543      46.7237      46.7237      46.7237           90           90           90     102002.7   -634.81133 
  515000       514500   -7723.6883    707.89597   -8431.5843    4259.4226   -12691.007    111.02591   -554.87167   -545.12502   -405.85102    65.853039   -312.02096    -97.87163      46.7237      46.7237      46.7237           90           90           90     102002.7   -501.94924 
  516000       515500   -7726.4909    703.88344   -8430.3744    4283.7266   -12714.101    110.39659   -749.79214   -661.39604   -1011.8049    195.08024   -21.933834   -173.89546      46.7237      46.7237      46.7237           90           90           90     102002.7   -807.66436 
  517000       516500   -7723.1386    695.57343    -8418.712      4287.44   -12706.152    109.09325   -970.39147    -528.2808   -646.99303    -266.0573   -37.800456    190.75662      46.7237      46.7237      46.7237           90           90           90     102002.7   -715.22177 
  518000       517500   -7728.3169    705.20084   -8433.5178    4259.1422    -12692.66    110.60321   -638.85015    -33.45814   -471.72146   -199.43825   -35.345515   -100.25402      46.7237      46.7237      46.7237           90           90           90     102002.7   -381.34325 
  519000       518500   -7702.9459      698.481   -8401.4269    4315.6473   -12717.074    109.54928   -1220.0924   -953.47332   -1024.2828   -1.5686061   -83.654511   -102.12057      46.7237      46.7237      46.7237           90           90           90     102002.7   -1065.9495 
  520000       519500   -7751.0921    678.12374   -8429.2159     4300.061   -12729.277    106.35646   -838.84053   -518.79945   -417.78801   -256.67184    94.514756    82.289585      46.7237      46.7237      46.7237           90           90           90     102002.7   -591.80933 
  521000       520500   -7733.7136    690.10187   -8423.8154    4286.6341    -12710.45     108.2351    -472.6309   -604.02956   -984.41965   -194.23752    109.71669    48.200459      46.7237      46.7237      46.7237           90           90           90     102002.7    -687.0267 
  522000       521500   -7712.7948    709.78252   -8422.5773    4274.5741   -12697.151     111.3218   -750.26016   -551.60458    -179.3715   -117.78769    64.969416    275.23199      46.7237      46.7237      46.7237           90           90           90     102002.7   -493.74542 
  523000       522500   -7706.7825    713.42175   -8420.2042    4285.1502   -12705.354    111.89257   -870.47799   -1074.6488   -792.89787    59.367168   -243.34232    115.92765      46.7237      46.7237      46.7237           90           90           90     102002.7   -912.67487 
  524000       523500   -7725.1011    702.04909   -8427.1502     4284.883   -12712.033    110.10889   -1112.0093   -560.00788   -379.76971    175.11544    229.98724    97.928924      46.7237      46.7237      46.7237           90           90           90     102002.7   -683.92895 
  525000       524500   -7712.6287    701.63888   -8414.2675    4297.7315   -12711.999    110.04456   -184.84631   -557.88259   -596.58586   -161.31617     163.1096   -108.73713      46.7237      46.7237      46.7237           90           90           90     102002.7   -446.43825 
  526000       525500   -7723.7712    681.68851   -8405.4597    4306.8827   -12712.342    106.91555   -650.29924   -734.56077   -695.26044    94.076367    224.05981    -67.56428      46.7237      46.7237      46.7237           90           90           90     102002.7   -693.37348 
  527000       526500   -7721.0741    703.89084    -8424.965    4285.0767   -12710.042    110.39775   -1075.4772   -841.69382   -827.19361   -187.08845    14.593163    142.82473      46.7237      46.7237      46.7237           90           90           90     102002.7    -914.7882 
  528000       527500   -7710.9049    715.25145   -8426.1563    4287.9099   -12714.066    112.17954   -557.62206   -923.86175   -704.49318    118.55893   -18.967223    13.621659      46.7237      46.7237      46.7237           90           90           90     102002.7     -728.659 
  529000       528500   -7711.5006    693.30155   -8404.8021    4305.1015   -12709.904    108.73693   -1064.4243   -1038.7643    -897.9318   -196.30032    84.851669     183.0131      46.7237      46.7237      46.7237           90           90           90     102002.7   -1000.3735 
  530000       529500   -7722.9858    692.47596   -8415.4618    4294.0391   -12709.501    108.60745   -1161.4565   -1196.2973   -908.69076    71.507706   -84.001441    150.07131      46.7237      46.7237      46.7237           90           90           90     102002.7   -1088.8148 
  531000       530500   -7765.8033    698.68917   -8464.4924    4234.3066   -12698.799    109.58192   -233.17361   -942.12161   -453.07248    153.17158     92.62001    202.95501      46.7237      46.7237      46.7237           90           90           90     102002.7   -542.78924 
  532000       531500   -7727.5306    700.77737   -8428.3079    4261.1314   -12689.439    109.90944   -436.53982   -912.49963   -1069.9145   -35.169002    14.928464    92.267361      46.7237      46.7237      46.7237           90           90           90     102002.7   -806.31799 
  533000       532500   -7739.5356      690.366   -8429.9016    4284.4925   -12714.394    108.27652    -937.4056   -532.11923   -878.95808    77.058072    72.148388   -38.512778      46.7237      46.7237      46.7237           90           90           90     102002.7   -782.82764 
  534000       533500   -7760.3296    688.74075   -8449.0703    4276.0045   -12725.075    108.02162   -691.75815   -707.43181    -967.8112    -265.4569   -203.27455   -295.95928      46.7237      46.7237      46.7237           90           90           90     102002.7   -789.00039 
  535000       534500   -7703.0829    716.29733   -8419.3802    4297.0552   -12716.435    112.34358   -905.77231   -744.23476   -1025.4866    68.964302   -55.384388    60.465749      46.7237      46.7237      46.7237           90           90           90     102002.7   -891.83122 
  536000       535500   -7728.7995    725.72792   -8454.5274    4261.0862   -12715.614    113.82266   -1113.6191   -959.54849    -919.3654    233.44819    159.98242   -145.02667      46.7237      46.7237      46.7237           90           90           90     102002.7   -997.51099 
  537000       536500   -7724.6397    694.90906   -8419.5487    4294.5932   -12714.142    108.98906   -839.42921   -1129.4155   -797.08737    94.447685   -54.305533   -138.14684      46.7237      46.7237      46.7237           90           90           90     102002.7   -921.97735 
  538000       537500   -7712.3419    702.34086   -8414.6828    4289.7101   -12704.393    110.15465   -859.35616   -918.30167   -1018.1925   -58.063165    16.334363   -255.25311      46.7237      46.7237      46.7237           90           90           90     102002.7   -931.95009 
  539000       538500   -7682.4277    733.35375   -8415.7814    4296.7862   -12712.568    115.01869   -1065.9736   -644.41614   -1161.2327   0.20175479   -13.527552    38.785389      46.7237      46.7237      46.7237           90           90           90     102002.7   -957.20748 
  540000       539500   -7723.8543    695.21725   -8419.0715    4292.5722   -12711.644    109.03739   -862.89342   -958.09663   -834.72414   -19.898788    72.690246    104.40512      46.7237      46.7237      46.7237           90           90           90     102002.7   -885.23806 
  541000       540500    -7695.481    709.95281   -8405.4338    4311.5187   -12716.952    111.34851   -1113.8505   -535.04429   -973.13661   -88.876641   -68.409946    43.336035      46.7237      46.7237      46.7237           90           90           90     102002.7   -874.01048 
  542000       541500   -7709.0986    719.59465   -8428.6933    4278.6761   -12707.369    112.86073   -954.29455   -703.45949   -927.82725     89.54332   -223.01896    -147.4807      46.7237      46.7237      46.7237           90           90           90     102002.7   -861.86043 
  543000       542500   -7759.2049    689.84607    -8449.051    4262.7002   -12711.751    108.19498   -698.18549    -635.0787   -879.03435    149.83983    302.33832    151.76098      46.7237      46.7237      46.7237           90           90           90     102002.7   -737.43285 
  544000       543500   -7687.4756    727.93868   -8415.4143    4286.7136   -12702.128     114.1694   -661.05424   -928.13819   -859.96441    -3.556086   -243.05216   -145.44138      46.7237      46.7237      46.7237           90           90           90     102002.7   -816.38561 
  545000       544500   -7735.5057    695.85326   -8431.3589    4263.4475   -12694.806    109.13714   -710.79923   -1006.2814    -677.2598    98.386134   -52.713686   0.94497801      46.7237      46.7237      46.7237           90           90           90     102002.7   -798.11348 
  546000       545500   -7715.8511    695.45877   -8411.3099    4303.7791   -12715.089    109.07527   -878.06699    -457.1504   -537.09247   -341.40535    36.373133    324.13369      46.7237      46.7237      46.7237           90           90           90     102002.7   -624.10329 
  547000       546500   -7700.6924     694.8877   -8395.5801    4313.9259   -12709.506     108.9857   -523.22884   -740.37118   -526.27451   -108.97899   -44.861711    149.45003      46.7237      46.7237      46.7237           90           90           90     102002.7   -596.62484 
  548000       547500    -7725.346    701.47508   -8426.8211    4287.8701   -12714.691    110.01887   -1112.6358   -731.63738   -361.50492    107.34877   -170.09272    80.196508      46.7237      46.7237      46.7237           90           90           90     102002.7   -735.25936 
  549000       548500    -7709.965    699.55337   -8409.5183     4288.371   -12697.889    109.71747   -934.44061   -747.43978   -463.80074    134.36224   -30.583142    -110.5018      46.7237      46.7237      46.7237           90           90           90     102002.7   -715.22705 
  550000       549500   -7703.6571    688.52338   -8392.1804    4316.4327   -12708.613    107.98753    -429.2008   -957.21474   -723.21723    12.318597    159.94001    -110.4423      46.7237      46.7237      46.7237           90           90           90     102002.7   -703.21092 
  551000       550500   -7724.2992     688.4296   -8412.7288    4292.5822   -12705.311    107.97282    -662.6367    -871.9746   -481.48015    42.406993    117.69687    53.205391      46.7237      46.7237      46.7237           90           90           90     102002.7   -672.03048 
  552000       551500   -7736.7781    707.46229   -8444.2404    4279.1945   -12723.435     110.9579    -810.9333   -1244.7327   -871.62512     78.68269   -14.944542    39.428147      46.7237      46.7237      46.7237           90           90           90     102002.7   -975.76372 
  553000       552500   -7761.8397    685.61085   -8447.4506    4280.7478   -12728.198    107.53073   -528.93418   -596.17886   -746.37704    153.19988    93.105622     239.7017      46.7237      46.7237      46.7237           90           90           90     102002.7   -623.83003 
  554000       553500   -7730.7603    695.58752   -8426.3478    4305.8575   -12732.205    109.09546   -689.24363   -1095.8978   -905.25756    65.466207   -94.573701    45.670914      46.7237      46.7237      46.7237           90           90           90     102002.7   -896.79966 
  555000       554500   -7702.0281    722.25568   -8424.2838    4275.7666    -12700.05    113.27808   -634.08819   -1018.5823   -839.26703   -36.244844    100.47212    131.41753      46.7237      46.7237      46.7237           90           90           90     102002.7   -830.64585 
[...]
  936000       935500   -7717.0002    695.65547   -8412.6557         4298   -12710.656    109.10612   -991.66429   -1107.8371   -592.89605    176.92499   -32.510862   -81.003555      46.7237      46.7237      46.7237           90           90           90     102002.7   -897.46581 
  937000       936500   -7732.2192    678.49055   -8410.7098     4299.185   -12709.895    106.41399   -542.27705   -700.39614   -380.22302   -243.66845    46.297973    175.58434      46.7237      46.7237      46.7237           90           90           90     102002.7    -540.9654 
  938000       937500   -7692.2896    706.89844    -8399.188    4307.4508   -12706.639    110.86946   -587.49726   -587.11653   -811.14763    7.9828365    302.23753    74.656292      46.7237      46.7237      46.7237           90           90           90     102002.7   -661.92048 
  939000       938500   -7737.7926    687.59266   -8425.3852    4278.6344    -12704.02    107.84156   -435.08844   -898.51454   -187.52191   -1.9131387    133.00703    58.465066      46.7237      46.7237      46.7237           90           90           90     102002.7   -507.04163 
  940000       939500   -7733.3307    692.14693   -8425.4776      4273.56   -12699.038    108.55584   -726.70718   -510.23233   -824.96874   -215.08292    2.1540977    133.14746      46.7237      46.7237      46.7237           90           90           90     102002.7   -687.30275 
  941000       940500   -7716.8961    697.58708   -8414.4832    4311.1617   -12725.645    109.40907   -574.76795   -689.09517   -561.94751   -24.052306    19.581023    379.32707      46.7237      46.7237      46.7237           90           90           90     102002.7   -608.60354 
  942000       941500   -7721.9409    693.53533   -8415.4762    4299.8069   -12715.283     108.7736   -1008.8053   -1020.0807   -870.30334   -112.21399   -201.67752   -300.01181      46.7237      46.7237      46.7237           90           90           90     102002.7   -966.39645 
  943000       942500   -7708.9542    697.20143   -8406.1556    4301.1779   -12707.333    109.34859     -913.416   -322.90931   -1028.9595   -45.996141    144.51688   -152.41611      46.7237      46.7237      46.7237           90           90           90     102002.7   -755.09493 
  944000       943500   -7724.4355    717.02268   -8441.4582    4271.5162   -12712.974    112.45734   -693.74764   -720.11037   -709.60248   -138.53903   -52.822267   -234.85157      46.7237      46.7237      46.7237           90           90           90     102002.7   -707.82016 
  945000       944500   -7718.3647     698.4048   -8416.7695    4294.9382   -12711.708    109.53733   -1112.8724    -1204.301    -1191.632    34.212071    21.053958    32.808039      46.7237      46.7237      46.7237           90           90           90     102002.7   -1169.6018 
  946000       945500   -7724.7841    694.09189    -8418.876     4297.647   -12716.523    108.86089   -1540.9705   -546.68408   -675.26014    248.57374    13.326501    45.632765      46.7237      46.7237      46.7237           90           90           90     102002.7   -920.97157 
  947000       946500   -7733.3932    684.12494   -8417.5182    4288.5515    -12706.07    107.29768   -714.38808   -521.80448    -945.2405   -152.39311    33.615066    273.74423      46.7237      46.7237      46.7237           90           90           90     102002.7   -727.14435 
  948000       947500   -7712.8735    720.34991   -8433.2234    4277.2855   -12710.509    112.97918   -1071.7759   -970.55525   -952.95049    216.58046   -129.00008    7.2004427      46.7237      46.7237      46.7237           90           90           90     102002.7    -998.4272 
  949000       948500   -7715.0755     695.2234   -8410.2989    4281.5475   -12691.846    109.03836   -662.27371   -729.67491   -676.16519   -30.626545   -235.18051   -72.283849      46.7237      46.7237      46.7237           90           90           90     102002.7   -689.37127 
  950000       949500   -7730.4695      692.321   -8422.7905    4280.3139   -12703.104    108.58315   -978.12662   -572.34289   -985.18534    145.44305    43.054632    17.254413      46.7237      46.7237      46.7237           90           90           90     102002.7   -845.21828 
  951000       950500   -7704.8626    718.83317   -8423.6958    4280.5689   -12704.265     112.7413   -1162.4094   -537.21165   -719.08416    368.18617    57.067477   -135.23227      46.7237      46.7237      46.7237           90           90           90     102002.7   -806.23505 
  952000       951500   -7738.3021    691.53277   -8429.8348    4293.6766   -12723.511    108.45952   -699.38951   -301.06381   -711.56695    13.438526   -263.38028    13.015769      46.7237      46.7237      46.7237           90           90           90     102002.7   -570.67342 
  953000       952500   -7712.1071    712.71451   -8424.8216    4290.8427   -12715.664    111.78165   -1097.9085   -932.41578   -779.39026    124.34012   -15.077706    99.155304      46.7237      46.7237      46.7237           90           90           90     102002.7   -936.57153 
  954000       953500   -7732.0086    704.96617   -8436.9748    4271.7942   -12708.769    110.56641   -65.237879   -898.67772   -512.80396   -87.247497    151.54019   -237.67257      46.7237      46.7237      46.7237           90           90           90     102002.7   -492.23985 
  955000       954500   -7708.6816    700.64813   -8409.3297    4310.0925   -12719.422    109.88917   -624.02866   -387.95158   -607.34704   -23.930167   -89.250612   -133.06414      46.7237      46.7237      46.7237           90           90           90     102002.7   -539.77576 
  956000       955500   -7728.9263    693.76187   -8422.6882    4283.1831   -12705.871    108.80913   -342.12098   -496.51187   -763.95096   -13.201441   -57.587269   -3.3284665      46.7237      46.7237      46.7237           90           90           90     102002.7    -534.1946 
  957000       956500   -7687.4893    731.04043   -8418.5297    4286.9705     -12705.5    114.65587   -874.03608   -460.09704   -801.74806     214.9657   -362.75342   -90.794018      46.7237      46.7237      46.7237           90           90           90     102002.7   -711.96039 
  958000       957500   -7745.9426    681.38627   -8427.3289    4255.7665   -12683.095    106.86815   -622.92015   -447.25664   -358.83243    57.538789   -195.63512    44.159217      46.7237      46.7237      46.7237           90           90           90     102002.7   -476.33641 
  959000       958500   -7744.5233     698.2265   -8442.7498    4266.2196   -12708.969    109.50936   -969.50443   -1374.4351   -337.58638    102.16864   -80.942958    30.513442      46.7237      46.7237      46.7237           90           90           90     102002.7   -893.84198 
  960000       959500   -7762.2951    677.30187    -8439.597    4277.8846   -12717.482    106.22756   -698.94753   -742.48608    -908.8474     70.01354   -329.11138   -113.91907      46.7237      46.7237      46.7237           90           90           90     102002.7     -783.427 
  961000       960500    -7709.399    707.61837   -8417.0173     4298.968   -12715.985    110.98237   -668.68802   -900.02725   -824.18397   -99.975083   -33.048144     89.53996      46.7237      46.7237      46.7237           90           90           90     102002.7   -797.63308 
  962000       961500   -7737.8727    697.82195   -8435.6947    4269.1973   -12704.892    109.44591   -896.09931   -992.74329   -1066.0217    46.832322   -31.238787    250.50713      46.7237      46.7237      46.7237           90           90           90     102002.7   -984.95476 
  963000       962500   -7687.8261    716.41097    -8404.237    4287.6883   -12691.925     112.3614   -1209.8393   -543.37385   -873.16989   -283.26132   -156.31206   -106.63037      46.7237      46.7237      46.7237           90           90           90     102002.7   -875.46102 
  964000       963500   -7712.8754    697.12597   -8410.0014    4292.6866   -12702.688    109.33675   -679.17888   -633.52912     -1151.67    55.516496     106.6528    23.270326      46.7237      46.7237      46.7237           90           90           90     102002.7   -821.45935 
  965000       964500   -7720.1977    687.20287   -8407.4006    4305.6468   -12713.047    107.78042   -993.51668   -995.81249   -1031.6915    43.215024   -31.474941    139.42003      46.7237      46.7237      46.7237           90           90           90     102002.7   -1007.0069 
  966000       965500   -7729.8228    671.32903   -8401.1518    4295.9371   -12697.089    105.29078   -1186.4069   -645.33058    -988.1324    167.84521    53.979966    102.29864      46.7237      46.7237      46.7237           90           90           90     102002.7   -939.95663 
  967000       966500    -7714.994    710.75295   -8425.7469    4279.4243   -12705.171      111.474   -1063.2661   -996.06479   -937.39397   -114.50886   -121.11073   -276.93952      46.7237      46.7237      46.7237           90           90           90     102002.7   -998.90828 
  968000       967500   -7695.7909    709.85278   -8405.6437    4285.3856   -12691.029    111.33282    -536.9376   -119.12838   -532.18325    -204.8163    173.54289   -16.914363      46.7237      46.7237      46.7237           90           90           90     102002.7   -396.08307 
  969000       968500    -7707.091    719.87177   -8426.9628    4274.8122   -12701.775    112.90419   -872.74063   -450.02958   -1122.0452    142.88167    75.950447    317.55902      46.7237      46.7237      46.7237           90           90           90     102002.7   -814.93847 
  970000       969500   -7735.5738     698.2079   -8433.7817     4280.596   -12714.378    109.50644   -655.60442   -915.94178   -750.91044   -49.597384    83.009012   -3.3912676      46.7237      46.7237      46.7237           90           90           90     102002.7   -774.15221 
  971000       970500   -7668.3996     721.7582   -8390.1578    4306.4436   -12696.601    113.20006   -663.18823   -613.71749   -837.91681    49.617004   -74.314568   -17.763834      46.7237      46.7237      46.7237           90           90           90     102002.7   -704.94084 
  972000       971500   -7687.7548    711.64634   -8399.4011    4297.7485    -12697.15    111.61412   -806.62896   -875.39802   -651.01981   -157.57645   -170.92999     94.49357      46.7237      46.7237      46.7237           90           90           90     102002.7   -777.68226 
  973000       972500   -7704.3222     713.5712   -8417.8934    4284.9452   -12702.839    111.91601   -1234.7087   -687.51617   -908.44053    93.619275   -68.686408     122.9401      46.7237      46.7237      46.7237           90           90           90     102002.7   -943.55512 
  974000       973500   -7736.9235    690.95772   -8427.8812    4284.0936   -12711.975    108.36933   -858.70782   -564.80749   -693.97407     10.49072    40.587019    -6.991338      46.7237      46.7237      46.7237           90           90           90     102002.7   -705.82979 
  975000       974500   -7708.5756    695.74663   -8404.3222    4315.7306   -12720.053    109.12042   -492.47437   -1029.6638    -1564.459    51.969999     -132.218   -153.67181      46.7237      46.7237      46.7237           90           90           90     102002.7   -1028.8657 
  976000       975500   -7709.9651    718.02108   -8427.9861    4284.8264   -12712.813    112.61393   -506.24817   -830.66412   -589.75007   -41.234777    137.14154   -90.187096      46.7237      46.7237      46.7237           90           90           90     102002.7   -642.22079 
  977000       976500    -7717.867     702.0717   -8419.9386    4274.0544   -12693.993    110.11244   -1112.3298   -884.31759   -1251.6897   -37.389222   -101.15769    164.46757      46.7237      46.7237      46.7237           90           90           90     102002.7    -1082.779 
  978000       977500   -7716.5392     717.0563   -8433.5955    4288.9695   -12722.565    112.46261   -440.52555   -504.46906   -928.28182   -28.563542    70.252957   -202.53923      46.7237      46.7237      46.7237           90           90           90     102002.7   -624.42547 
  979000       978500   -7659.6163    732.77345   -8392.3898    4295.6908   -12688.081    114.92768   -615.89703   -1096.1337   -974.15651    46.128715    154.26348   -227.49356      46.7237      46.7237      46.7237           90           90           90     102002.7   -895.39576 
  980000       979500   -7724.8709    698.49479   -8423.3657    4286.4023   -12709.768    109.55144   -902.34781   -725.15978   -666.53021   -128.96389    24.982562    37.492663      46.7237      46.7237      46.7237           90           90           90     102002.7   -764.67927 
  981000       980500   -7711.6677    697.50406   -8409.1718    4284.0295   -12693.201    109.39605   -662.87381   -896.27043   -381.63764   -67.819761     127.4871   -224.74443      46.7237      46.7237      46.7237           90           90           90     102002.7   -646.92729 
  982000       981500   -7701.8185    707.37716   -8409.1957    4290.9067   -12700.102    110.94454   -867.38281   -817.97087   -729.05071   -84.757805   -113.22411    91.427454      46.7237      46.7237      46.7237           90           90           90     102002.7   -804.80146 
  983000       982500    -7738.432    701.07143   -8439.5034    4269.3929   -12708.896    109.95556   -586.39774   -219.44424     -1257.66    82.725426   -71.352119   -171.80923      46.7237      46.7237      46.7237           90           90           90     102002.7   -687.83397 
  984000       983500   -7735.1242     709.6935   -8444.8177    4286.5745   -12731.392    111.30784   -1358.1641   -541.63705   -606.18912    67.947034    47.143724    343.10235      46.7237      46.7237      46.7237           90           90           90     102002.7    -835.3301 
  985000       984500   -7716.1505    708.83042   -8424.9809    4274.9562   -12699.937    111.17247   -282.92125   -825.69375   -704.52512    234.81728   -30.644236    1.3264775      46.7237      46.7237      46.7237           90           90           90     102002.7   -604.38004 
  986000       985500   -7705.8277    704.14798   -8409.9757    4300.7177   -12710.693    110.43808   -266.19628   -707.47483   -318.95263    172.06186    5.2349067    298.95017      46.7237      46.7237      46.7237           90           90           90     102002.7   -430.87458 
  987000       986500   -7732.1325    704.20092   -8436.3335    4254.1142   -12690.448    110.44638   -574.62976   -445.47672   -550.96113   -231.49263   -152.07403   -64.750022      46.7237      46.7237      46.7237           90           90           90     102002.7    -523.6892 
  988000       987500   -7726.8344    687.53485   -8414.3693    4284.1843   -12698.554    107.83249    -658.4337   -328.26386   -590.05553   -41.741576    29.022864   -150.33872      46.7237      46.7237      46.7237           90           90           90     102002.7   -525.58436 
  989000       988500   -7743.2839    693.01097   -8436.2948    4281.6758   -12717.971    108.69136   -394.71941   -642.29202   -570.66633    227.16722    78.580475    151.43669      46.7237      46.7237      46.7237           90           90           90     102002.7   -535.89259 
  990000       989500   -7718.6987    734.36934    -8453.068     4276.807   -12729.875    115.17798   -947.40603   -886.90051   -472.17164   -13.273554     16.90606   -128.82953      46.7237      46.7237      46.7237           90           90           90     102002.7   -768.82606 
  991000       990500   -7713.0527    710.91588   -8423.9685    4269.1756   -12693.144    111.49955   -865.15744   -277.15113   -842.17728    173.44826   -73.158348   -211.17293      46.7237      46.7237      46.7237           90           90           90     102002.7   -661.49528 
  992000       991500   -7725.2889    695.32298   -8420.6119    4267.8389   -12688.451    109.05397   -662.57748   -408.46406   -489.91995    38.771667    104.26998    71.226438      46.7237      46.7237      46.7237           90           90           90     102002.7   -520.32049 
  993000       992500   -7722.8184    700.22718   -8423.0456    4282.2227   -12705.268    109.82315   -791.06366   -702.08902   -625.10145   -13.992905   -32.403843   -374.52409      46.7237      46.7237      46.7237           90           90           90     102002.7   -706.08471 
  994000       993500   -7730.5244    708.14026   -8438.6646     4280.918   -12719.583    111.06423   -557.24717   -911.38951   -1013.2928   -63.437319   -25.303003    219.79116      46.7237      46.7237      46.7237           90           90           90     102002.7   -827.30983 
  995000       994500   -7718.0927    707.06023   -8425.1529    4291.2601   -12716.413    110.89484     -959.505   -844.99724   -1134.4156   -12.614586   -28.955382   -1.9424264      46.7237      46.7237      46.7237           90           90           90     102002.7   -979.63929 
  996000       995500   -7710.9404    720.50641   -8431.4468    4272.5115   -12703.958    113.00373   -685.66025    -811.8711    -609.2549   -81.004032    279.18471   -182.11969      46.7237      46.7237      46.7237           90           90           90     102002.7   -702.26208 
  997000       996500   -7736.9359    682.70858   -8419.6445    4272.4175   -12692.062    107.07554   -728.38963   -671.22902   -1008.6584    112.49176    139.05276    52.549304      46.7237      46.7237      46.7237           90           90           90     102002.7     -802.759 
  998000       997500   -7715.7917    704.38205   -8420.1737    4287.7069   -12707.881    110.47479   -385.85998   -1100.5346   -792.41892    192.49812    16.656554    301.07924      46.7237      46.7237      46.7237           90           90           90     102002.7   -759.60449 
  999000       998500    -7728.531    703.87433   -8432.4053    4277.7598   -12710.165    110.39516   -552.53038   -808.89613   -719.82178   -79.875624    14.064469   -39.705349      46.7237      46.7237      46.7237           90           90           90     102002.7   -693.74943 
 1000000       999500   -7740.0881    693.60749   -8433.6956     4282.528   -12716.224    108.78492    -805.8505   -769.59364      -886.44   -106.75835    77.492452   -47.232734      46.7237      46.7237      46.7237           90           90           90     102002.7   -820.62805 
 1000500      1000000   -7720.5594    689.56544   -8410.1248    4306.9792   -12717.104    108.15097   -812.28977   -756.39416   -50.450206   -87.647426    46.009881    11.742341      46.7237      46.7237      46.7237           90           90           90     102002.7   -539.71138 
Loop time of 717.83 on 24 procs for 500000 steps with 2140 atoms

Performance: 60.181 ns/day, 0.399 hours/ns, 696.543 timesteps/s
99.3% CPU use with 24 MPI tasks x no OpenMP threads

MPI task timing breakdown:
Section |  min time  |  avg time  |  max time  |%varavg| %total
---------------------------------------------------------------
Pair    | 261.31     | 367.62     | 474.38     | 309.0 | 51.21
Bond    | 72.919     | 82.921     | 92.937     |  61.2 | 11.55
Neigh   | 3.7188     | 3.7449     | 3.7643     |   0.8 |  0.52
Comm    | 138.47     | 246.68     | 347.81     | 376.0 | 34.37
Output  | 0.41861    | 0.45194    | 0.45351    |   1.0 |  0.06
Modify  | 11.859     | 12.255     | 12.541     |   5.0 |  1.71
Other   |            | 4.155      |            |       |  0.58

Nlocal:    89.1667 ave 122 max 68 min
Histogram: 4 4 4 1 1 5 2 0 0 3
Nghost:    2420.04 ave 2589 max 2324 min
Histogram: 11 5 0 0 0 0 0 0 2 6
Neighs:    7639.25 ave 10068 max 5241 min
Histogram: 1 2 1 4 5 5 1 2 0 3

Total # of neighbors = 183342
Ave neighs/atom = 85.6738
Ave special neighs/atom = 5.38318
Neighbor list builds = 4432
Dangerous builds = 0
Total wall time: 0:23:02
