LAMMPS (30 Mar 2018)
Reading data file ...
  orthogonal box = (0 0 0) to (46.7237 46.7237 46.7237)
  2 by 2 by 4 MPI processor grid
  reading atoms ...
  1735 atoms
  scanning bonds ...
  5 = max bonds/atom
  scanning angles ...
  10 = max angles/atom
  scanning dihedrals ...
  32 = max dihedrals/atom
  scanning impropers ...
  3 = max impropers/atom
  reading bonds ...
  2064 bonds
  reading angles ...
  3696 angles
  reading dihedrals ...
  6240 dihedrals
  reading impropers ...
  1008 impropers
Finding 1-2 1-3 1-4 neighbors ...
  special bond factors lj:   0          0          0         
  special bond factors coul: 0          0          0         
  5 = max # of 1-2 neighbors
  8 = max # of 1-3 neighbors
  20 = max # of 1-4 neighbors
  19 = max # of special neighbors
Finding 1-2 1-3 1-4 neighbors ...
  special bond factors lj:   0          0          1         
  special bond factors coul: 1          1          1         
  5 = max # of 1-2 neighbors
  8 = max # of 1-3 neighbors
  19 = max # of special neighbors
WARNING: Using 'neigh_modify every 1 delay 0 check yes' setting during minimization (../min.cpp:168)
Neighbor list info ...
  update every 1 steps, delay 0 steps, check yes
  max neighbors/atom: 2000, page size: 100000
  master list distance cutoff = 16
  ghost atom cutoff = 16
  binsize = 8, bins = 6 6 6
  3 neighbor lists, perpetual/occasional/extra = 3 0 0
  (1) pair buck6d/coul/gauss/dsf, perpetual, skip from (3)
      attributes: half, newton on
      pair build: skip
      stencil: none
      bin: none
  (2) pair lj/cut, perpetual, skip from (3)
      attributes: half, newton on
      pair build: skip
      stencil: none
      bin: none
  (3) neighbor class addition, perpetual
      attributes: half, newton on
      pair build: half/bin/newton
      stencil: half/bin/3d/newton
      bin: standard
Setting up cg style minimization ...
  Unit style    : real
  Current step  : 0
WARNING: Inconsistent image flags (../domain.cpp:786)
Per MPI rank memory allocation (min/avg/max) = 22.89 | 23.35 | 23.79 Mbytes
Step Temp E_pair E_mol TotEng Press 
       0            0   -11531.271    6482.8914   -5048.3797    6279.0658 
     504            0   -11562.348    3742.6041    -7819.744   -494.04697 
Loop time of 2.82593 on 16 procs for 504 steps with 1735 atoms

99.7% CPU use with 16 MPI tasks x no OpenMP threads

Minimization stats:
  Stopping criterion = max force evaluations
  Energy initial, next-to-last, final = 
        -5048.37972671      -7819.7399759     -7819.74403049
  Force two-norm initial, final = 2576.98 2.94215
  Force max component initial, final = 151.971 0.529333
  Final line search alpha, max atom move = 0.0599931 0.0317563
  Iterations, force evaluations = 504 1001

MPI task timing breakdown:
Section |  min time  |  avg time  |  max time  |%varavg| %total
---------------------------------------------------------------
Pair    | 1.2194     | 1.5733     | 1.9417     |  16.7 | 55.67
Bond    | 0.29359    | 0.36263    | 0.43173    |   6.4 | 12.83
Neigh   | 0.010692   | 0.010763   | 0.01082    |   0.0 |  0.38
Comm    | 0.44765    | 0.83913    | 1.1489     |  21.7 | 29.69
Output  | 0          | 0          | 0          |   0.0 |  0.00
Modify  | 0          | 0          | 0          |   0.0 |  0.00
Other   |            | 0.04009    |            |       |  1.42

Nlocal:    108.438 ave 120 max 95 min
Histogram: 2 1 1 1 1 1 5 1 0 3
Nghost:    2195.06 ave 2212 max 2181 min
Histogram: 2 2 3 0 2 3 1 0 0 3
Neighs:    11430.5 ave 16638 max 6875 min
Histogram: 1 1 4 2 0 2 3 1 1 1

Total # of neighbors = 182888
Ave neighs/atom = 105.411
Ave special neighs/atom = 6.63977
Neighbor list builds = 9
Dangerous builds = 0
Neighbor list info ...
  update every 1 steps, delay 10 steps, check yes
  max neighbors/atom: 2000, page size: 100000
  master list distance cutoff = 16
  ghost atom cutoff = 16
  binsize = 8, bins = 6 6 6
  3 neighbor lists, perpetual/occasional/extra = 3 0 0
  (1) pair buck6d/coul/gauss/dsf, perpetual, skip from (3)
      attributes: half, newton on
      pair build: skip
      stencil: none
      bin: none
  (2) pair lj/cut, perpetual, skip from (3)
      attributes: half, newton on
      pair build: skip
      stencil: none
      bin: none
  (3) neighbor class addition, perpetual
      attributes: half, newton on
      pair build: half/bin/newton
      stencil: half/bin/3d/newton
      bin: standard
Setting up Verlet run ...
  Unit style    : real
  Current step  : 504
  Time step     : 1
WARNING: Inconsistent image flags (../domain.cpp:786)
Per MPI rank memory allocation (min/avg/max) = 22.54 | 22.64 | 22.92 Mbytes
Step Temp PotEng TotEng Press Volume Lx Ly Lz 
     504          130    -7819.744   -7147.8098    -192.9212     102002.7      46.7237      46.7237      46.7237 
    1000     115.8257   -7228.2918   -6629.6207   -875.37207     102002.7      46.7237      46.7237      46.7237 
    2000    124.69237   -7084.5286   -6440.0281    -565.6367     102002.7      46.7237      46.7237      46.7237 
    3000     124.6654   -7123.7848   -6479.4236   -828.09009     102002.7      46.7237      46.7237      46.7237 
    4000    128.60033   -7142.5723   -6477.8726   -640.62392     102002.7      46.7237      46.7237      46.7237 
    5000    129.92868   -7125.2612   -6453.6957   -566.35348     102002.7      46.7237      46.7237      46.7237 
    6000    127.49375   -7135.4026   -6476.4225   -354.34021     102002.7      46.7237      46.7237      46.7237 
    7000    128.04138   -7132.2221   -6470.4115   -399.10069     102002.7      46.7237      46.7237      46.7237 
    8000    131.21183   -7132.1867   -6453.9889   -526.68326     102002.7      46.7237      46.7237      46.7237 
    9000    129.42702   -7138.2378   -6469.2652   -293.62175     102002.7      46.7237      46.7237      46.7237 
   10000    132.35914   -7112.3871   -6428.2591   -561.26575     102002.7      46.7237      46.7237      46.7237 
   11000     133.0824   -7142.0249   -6454.1586   -853.67426     102002.7      46.7237      46.7237      46.7237 
   12000    131.25398   -7143.2709   -6464.8552   -913.09241     102002.7      46.7237      46.7237      46.7237 
   13000    128.11339   -7123.2333   -6461.0504   -778.39547     102002.7      46.7237      46.7237      46.7237 
   14000    126.35928   -7148.8415   -6495.7252   -985.87128     102002.7      46.7237      46.7237      46.7237 
   15000    133.39093    -7156.576    -6467.115   -428.19485     102002.7      46.7237      46.7237      46.7237 
   16000    135.36998   -7136.9442   -6437.2541   -679.10069     102002.7      46.7237      46.7237      46.7237 
   17000    126.83441   -7139.5902   -6484.0181   -337.43474     102002.7      46.7237      46.7237      46.7237 
   18000     127.8819   -7121.8002   -6460.8139   -582.06254     102002.7      46.7237      46.7237      46.7237 
   19000    129.49829   -7126.1642   -6456.8233    -532.2792     102002.7      46.7237      46.7237      46.7237 
   20000    128.11097   -7134.5571   -6472.3868   -492.83621     102002.7      46.7237      46.7237      46.7237 
   21000    129.71887   -7129.7154   -6459.2343   -781.18357     102002.7      46.7237      46.7237      46.7237 
   22000    128.04009   -7145.8681   -6484.0641    -591.2953     102002.7      46.7237      46.7237      46.7237 
   23000    133.59794   -7138.6004   -6448.0695   -672.42554     102002.7      46.7237      46.7237      46.7237 
   24000    127.65004   -7116.8874   -6457.0995   -653.91265     102002.7      46.7237      46.7237      46.7237 
   25000    125.52032   -7132.2095   -6483.4295   -715.78469     102002.7      46.7237      46.7237      46.7237 
   26000     127.5552   -7097.9753   -6438.6777   -393.97409     102002.7      46.7237      46.7237      46.7237 
   27000    131.12986     -7135.91   -6458.1359   -917.27622     102002.7      46.7237      46.7237      46.7237 
   28000    126.33437   -7140.9721   -6487.9845   -496.43736     102002.7      46.7237      46.7237      46.7237 
   29000    131.46996   -7115.8983   -6436.3662   -733.29688     102002.7      46.7237      46.7237      46.7237 
   30000    124.75206   -7148.5052   -6503.6962   -902.55612     102002.7      46.7237      46.7237      46.7237 
   31000    130.55479   -7131.8276   -6457.0258   -631.46862     102002.7      46.7237      46.7237      46.7237 
   32000    133.82785    -7118.844   -6427.1247   -1072.0938     102002.7      46.7237      46.7237      46.7237 
   33000    133.99651   -7145.0957   -6452.5046   -813.58856     102002.7      46.7237      46.7237      46.7237 
   34000    125.61586    -7128.666   -6479.3922   -988.55445     102002.7      46.7237      46.7237      46.7237 
   35000     131.8795   -7175.5624   -6493.9135   -670.79549     102002.7      46.7237      46.7237      46.7237 
   36000    129.31231   -7123.6206   -6455.2408   -582.06159     102002.7      46.7237      46.7237      46.7237 
   37000     130.5064   -7131.7769   -6457.2253   -496.49645     102002.7      46.7237      46.7237      46.7237 
   38000    129.47333   -7153.1999   -6483.9879   -706.86538     102002.7      46.7237      46.7237      46.7237 
   39000    133.35799   -7124.3268    -6435.036   -720.27336     102002.7      46.7237      46.7237      46.7237 
   40000     132.9362   -7141.6985   -6454.5879   -563.33951     102002.7      46.7237      46.7237      46.7237 
   41000    133.25333   -7144.3832   -6455.6334   -664.15789     102002.7      46.7237      46.7237      46.7237 
   42000    128.84426   -7125.5598   -6459.5993    -794.6645     102002.7      46.7237      46.7237      46.7237 
   43000    133.33422   -7134.5469   -6445.3791   -804.04425     102002.7      46.7237      46.7237      46.7237 
   44000    130.75516   -7159.7886   -6483.9512    -816.5839     102002.7      46.7237      46.7237      46.7237 
   45000    129.20556   -7136.4053   -6468.5773   -1005.0126     102002.7      46.7237      46.7237      46.7237 
   46000    125.28722   -7143.4645   -6495.8894   -622.00022     102002.7      46.7237      46.7237      46.7237 
   47000    129.04928   -7120.5027   -6453.4825   -1037.0726     102002.7      46.7237      46.7237      46.7237 
   48000    130.23338   -7155.8678   -6482.7273   -758.00035     102002.7      46.7237      46.7237      46.7237 
   49000    132.77142   -7150.7961   -6464.5372   -825.59401     102002.7      46.7237      46.7237      46.7237 
   50000    129.33067   -7153.7899   -6485.3153   -703.00496     102002.7      46.7237      46.7237      46.7237 
   51000    131.82673   -7145.5248   -6464.1487   -879.11734     102002.7      46.7237      46.7237      46.7237 
   52000    130.93253   -7127.3073   -6450.5531   -520.89084     102002.7      46.7237      46.7237      46.7237 
   53000    129.90989   -7154.8915    -6483.423    -749.5125     102002.7      46.7237      46.7237      46.7237 
   54000    128.98261   -7136.0295   -6469.3539   -841.11029     102002.7      46.7237      46.7237      46.7237 
   55000    129.40597   -7127.0519    -6458.188    -766.4833     102002.7      46.7237      46.7237      46.7237 
   56000    126.08733   -7146.2676    -6494.557   -791.24855     102002.7      46.7237      46.7237      46.7237 
   57000    125.40491   -7127.0463   -6478.8629   -570.43803     102002.7      46.7237      46.7237      46.7237 
   58000     134.1421   -7121.8681   -6428.5245   -826.57534     102002.7      46.7237      46.7237      46.7237 
   59000    129.51233   -7126.3275    -6456.914   -608.07819     102002.7      46.7237      46.7237      46.7237 
   60000    133.98343   -7144.8901   -6452.3666   -580.11785     102002.7      46.7237      46.7237      46.7237 
   61000    133.67401   -7148.2903   -6457.3661   -609.81317     102002.7      46.7237      46.7237      46.7237 
   62000    133.52892   -7129.3464   -6439.1722   -951.79908     102002.7      46.7237      46.7237      46.7237 
   63000    129.64569   -7144.9802   -6474.8774   -590.71584     102002.7      46.7237      46.7237      46.7237 
   64000    130.18623   -7127.1861   -6454.2893   -943.83595     102002.7      46.7237      46.7237      46.7237 
   65000    126.96385   -7158.7181   -6502.4769   -467.00299     102002.7      46.7237      46.7237      46.7237 
   66000    130.56057   -7129.1837   -6454.3521   -653.64613     102002.7      46.7237      46.7237      46.7237 
   67000     124.9376   -7118.1575   -6472.3895   -838.56198     102002.7      46.7237      46.7237      46.7237 
   68000    131.22993   -7134.4573    -6456.166   -763.51808     102002.7      46.7237      46.7237      46.7237 
   69000    131.80241   -7117.7141   -6436.4637   -1089.0306     102002.7      46.7237      46.7237      46.7237 
   70000    131.09128   -7129.3603   -6451.7855   -613.09439     102002.7      46.7237      46.7237      46.7237 
   71000    131.12004   -7127.3364   -6449.6131   -563.68284     102002.7      46.7237      46.7237      46.7237 
   72000    130.15444   -7138.0233   -6465.2909   -863.30384     102002.7      46.7237      46.7237      46.7237 
   73000    124.58505    -7154.062   -6510.1162   -751.78405     102002.7      46.7237      46.7237      46.7237 
   74000    131.96879   -7119.2629   -6437.1526   -775.63398     102002.7      46.7237      46.7237      46.7237 
   75000    129.53912   -7128.0464   -6458.4944   -729.67227     102002.7      46.7237      46.7237      46.7237 
   76000    124.71392   -7133.5058   -6488.8938   -864.20815     102002.7      46.7237      46.7237      46.7237 
   77000    132.56976   -7145.0021   -6459.7855   -599.20404     102002.7      46.7237      46.7237      46.7237 
   78000    132.27452    -7139.685   -6455.9945    -976.3543     102002.7      46.7237      46.7237      46.7237 
   79000    125.51688   -7138.5982    -6489.836   -454.13571     102002.7      46.7237      46.7237      46.7237 
   80000    128.57306    -7119.759   -6455.2003   -723.66665     102002.7      46.7237      46.7237      46.7237 
   81000    132.72054   -7161.3879    -6475.392   -479.92235     102002.7      46.7237      46.7237      46.7237 
   82000     130.0389   -7134.1778   -6462.0425   -765.32727     102002.7      46.7237      46.7237      46.7237 
   83000    128.80643   -7155.4617   -6489.6967   -541.26183     102002.7      46.7237      46.7237      46.7237 
   84000    131.26914   -7141.7214   -6463.2273   -550.77333     102002.7      46.7237      46.7237      46.7237 
   85000    131.75533   -7147.4938   -6466.4867   -856.40925     102002.7      46.7237      46.7237      46.7237 
   86000    130.17778   -7123.5554   -6450.7024   -686.25497     102002.7      46.7237      46.7237      46.7237 
   87000    127.38209   -7151.8342   -6493.4312   -544.56013     102002.7      46.7237      46.7237      46.7237 
   88000    129.27805    -7126.788   -6458.5853   -569.01404     102002.7      46.7237      46.7237      46.7237 
   89000    134.59092   -7145.5867   -6449.9233   -732.53477     102002.7      46.7237      46.7237      46.7237 
   90000    129.29399   -7120.6445   -6452.3595   -778.53719     102002.7      46.7237      46.7237      46.7237 
   91000    130.50098   -7132.3509   -6457.8273   -866.85684     102002.7      46.7237      46.7237      46.7237 
   92000    131.77605   -7144.3529   -6463.2388   -968.73852     102002.7      46.7237      46.7237      46.7237 
   93000    131.54022   -7126.0505   -6446.1553   -789.15018     102002.7      46.7237      46.7237      46.7237 
   94000    130.60163   -7131.7059   -6456.6621   -700.66678     102002.7      46.7237      46.7237      46.7237 
   95000    126.85355   -7127.2424   -6471.5713   -770.58254     102002.7      46.7237      46.7237      46.7237 
   96000    131.90857   -7133.3328   -6451.5338    -878.4564     102002.7      46.7237      46.7237      46.7237 
   97000    129.81835   -7116.8684   -6445.8731   -559.34494     102002.7      46.7237      46.7237      46.7237 
   98000    125.44641   -7145.8014   -6497.4035   -834.43007     102002.7      46.7237      46.7237      46.7237 
   99000    129.21364   -7125.3398   -6457.4701   -636.08136     102002.7      46.7237      46.7237      46.7237 
  100000    129.66381   -7142.5266   -6472.3301   -698.97646     102002.7      46.7237      46.7237      46.7237 
  101000    128.93596   -7143.1065   -6476.6721   -868.38741     102002.7      46.7237      46.7237      46.7237 
  102000    131.53657   -7148.7256   -6468.8493   -623.31811     102002.7      46.7237      46.7237      46.7237 
  103000    129.36904   -7136.0157   -6467.3427    -723.4048     102002.7      46.7237      46.7237      46.7237 
  104000    129.02759   -7139.2047   -6472.2966   -666.82905     102002.7      46.7237      46.7237      46.7237 
  105000    132.35707   -7110.0188   -6425.9016   -656.53469     102002.7      46.7237      46.7237      46.7237 
  106000    130.70817   -7127.7083   -6452.1138    -755.1805     102002.7      46.7237      46.7237      46.7237 
  107000    126.32099   -7145.2261   -6492.3077   -701.24926     102002.7      46.7237      46.7237      46.7237 
  108000    133.25068   -7135.4988   -6446.7627   -1026.8126     102002.7      46.7237      46.7237      46.7237 
  109000    128.48258   -7129.1918   -6465.1007   -792.43036     102002.7      46.7237      46.7237      46.7237 
  110000    134.17995   -7128.9631   -6435.4239   -997.87431     102002.7      46.7237      46.7237      46.7237 
  111000    127.84605   -7122.6355   -6461.8344   -843.13698     102002.7      46.7237      46.7237      46.7237 
  112000    126.79412   -7140.4375   -6485.0736   -915.00719     102002.7      46.7237      46.7237      46.7237 
  113000     135.1006   -7150.5616   -6452.2638   -587.82267     102002.7      46.7237      46.7237      46.7237 
  114000    126.16956   -7142.5159   -6490.3802   -930.82565     102002.7      46.7237      46.7237      46.7237 
  115000     129.5501   -7143.7105   -6474.1017    -1045.797     102002.7      46.7237      46.7237      46.7237 
  116000    135.59762   -7126.2714   -6425.4046   -921.82108     102002.7      46.7237      46.7237      46.7237 
  117000    129.20511   -7126.3219   -6458.4963   -883.94121     102002.7      46.7237      46.7237      46.7237 
  118000    127.95493   -7146.8718   -6485.5079   -555.15754     102002.7      46.7237      46.7237      46.7237 
  119000    128.17405   -7136.5671   -6474.0707   -893.15389     102002.7      46.7237      46.7237      46.7237 
  120000    132.16678   -7137.8852   -6454.7515   -911.50565     102002.7      46.7237      46.7237      46.7237 
  121000    130.34527   -7141.4387     -6467.72   -648.26524     102002.7      46.7237      46.7237      46.7237 
  122000    125.68454   -7143.3071   -6493.6783   -786.37939     102002.7      46.7237      46.7237      46.7237 
  123000    130.90403   -7126.2326   -6449.6257   -781.95834     102002.7      46.7237      46.7237      46.7237 
  124000    125.51784   -7136.2659   -6487.4988   -775.74729     102002.7      46.7237      46.7237      46.7237 
  125000     129.0825   -7123.1188    -6455.927   -861.11573     102002.7      46.7237      46.7237      46.7237 
  126000    133.96457   -7129.6858   -6437.2599   -812.28184     102002.7      46.7237      46.7237      46.7237 
  127000    130.21899   -7146.1535   -6473.0874   -963.77974     102002.7      46.7237      46.7237      46.7237 
  128000    131.68941   -7116.7193    -6436.053   -612.71767     102002.7      46.7237      46.7237      46.7237 
  129000    127.22017   -7136.7702   -6479.2042   -962.50462     102002.7      46.7237      46.7237      46.7237 
  130000    131.92976   -7144.8195   -6462.9109   -936.57455     102002.7      46.7237      46.7237      46.7237 
  131000    127.14351   -7146.0113   -6488.8415   -765.92398     102002.7      46.7237      46.7237      46.7237 
  132000     133.7467   -7153.1515   -6461.8516   -887.26642     102002.7      46.7237      46.7237      46.7237 
  133000    130.31571   -7137.8116   -6464.2456   -556.21867     102002.7      46.7237      46.7237      46.7237 
  134000    128.91779   -7136.0869   -6469.7463   -665.78479     102002.7      46.7237      46.7237      46.7237 
  135000    127.84171   -7139.1433   -6478.3647   -773.57957     102002.7      46.7237      46.7237      46.7237 
  136000    130.29614   -7105.8803   -6432.4154   -680.43364     102002.7      46.7237      46.7237      46.7237 
  137000    134.14234   -7155.5152   -6462.1704   -527.87148     102002.7      46.7237      46.7237      46.7237 
  138000    132.53402   -7139.4906   -6454.4587   -743.61661     102002.7      46.7237      46.7237      46.7237 
  139000    132.73563   -7125.1314   -6439.0574   -884.61032     102002.7      46.7237      46.7237      46.7237 
  140000    127.48946     -7137.36   -6478.4021   -942.92876     102002.7      46.7237      46.7237      46.7237 
  141000      130.529   -7130.5025    -6455.834   -734.41341     102002.7      46.7237      46.7237      46.7237 
  142000    127.38748    -7144.409   -6485.9782   -586.13047     102002.7      46.7237      46.7237      46.7237 
  143000    131.28604   -7132.8879   -6454.3065   -800.56562     102002.7      46.7237      46.7237      46.7237 
  144000    128.53789   -7145.6119   -6481.2349   -975.59482     102002.7      46.7237      46.7237      46.7237 
  145000    135.16541     -7127.47   -6428.8372   -756.96514     102002.7      46.7237      46.7237      46.7237 
  146000    128.76714   -7137.8737   -6472.3118   -689.28392     102002.7      46.7237      46.7237      46.7237 
  147000    128.82603   -7118.6666   -6452.8003   -778.54368     102002.7      46.7237      46.7237      46.7237 
  148000    127.95805   -7130.1457   -6468.7658   -1027.6317     102002.7      46.7237      46.7237      46.7237 
  149000    127.07212   -7137.7215   -6480.9207   -821.82447     102002.7      46.7237      46.7237      46.7237 
  150000    128.47556   -7141.6318   -6477.5771   -805.42916     102002.7      46.7237      46.7237      46.7237 
  151000    126.06748   -7138.2471    -6486.639   -765.23579     102002.7      46.7237      46.7237      46.7237 
  152000     136.0922   -7119.3147   -6415.8916   -644.23233     102002.7      46.7237      46.7237      46.7237 
  153000    124.87207   -7131.3056   -6485.8763   -542.42683     102002.7      46.7237      46.7237      46.7237 
  154000    132.74353   -7139.5134   -6453.3986   -643.86472     102002.7      46.7237      46.7237      46.7237 
  155000     126.7053   -7122.8552   -6467.9504   -900.52061     102002.7      46.7237      46.7237      46.7237 
  156000    133.68676   -7148.3231   -6457.3331   -392.47556     102002.7      46.7237      46.7237      46.7237 
  157000    130.49101   -7149.8447   -6475.3726    -942.1351     102002.7      46.7237      46.7237      46.7237 
  158000    128.89617   -7138.4282   -6472.1994   -688.00631     102002.7      46.7237      46.7237      46.7237 
  159000    129.78415   -7117.9741   -6447.1556   -930.07963     102002.7      46.7237      46.7237      46.7237 
  160000    132.25696   -7149.8053   -6466.2055    -662.0268     102002.7      46.7237      46.7237      46.7237 
  161000    128.13544   -7128.3614   -6466.0646   -1048.9651     102002.7      46.7237      46.7237      46.7237 
  162000     128.6439   -7143.5582   -6478.6333   -928.75648     102002.7      46.7237      46.7237      46.7237 
  163000     126.3275   -7123.7954   -6470.8434   -1135.0742     102002.7      46.7237      46.7237      46.7237 
  164000    129.46031   -7111.2824   -6442.1377   -581.41573     102002.7      46.7237      46.7237      46.7237 
  165000      130.348   -7139.5936   -6465.8607   -970.61041     102002.7      46.7237      46.7237      46.7237 
  166000    130.09605    -7125.982   -6453.5513   -478.93985     102002.7      46.7237      46.7237      46.7237 
  167000    130.69879   -7152.9642   -6477.4181   -635.22293     102002.7      46.7237      46.7237      46.7237 
  168000    128.78096   -7134.8777   -6469.2443   -616.09642     102002.7      46.7237      46.7237      46.7237 
  169000    132.36323   -7135.5301    -6451.381   -714.11248     102002.7      46.7237      46.7237      46.7237 
  170000    127.60256   -7126.2628   -6466.7203   -779.94549     102002.7      46.7237      46.7237      46.7237 
  171000    132.77671   -7155.5215   -6469.2353   -581.42207     102002.7      46.7237      46.7237      46.7237 
  172000    130.90847   -7121.4224   -6444.7926   -738.67672     102002.7      46.7237      46.7237      46.7237 
  173000     128.2942   -7145.3849   -6482.2675   -952.01397     102002.7      46.7237      46.7237      46.7237 
  174000    129.48946   -7142.7017   -6473.4063   -688.20765     102002.7      46.7237      46.7237      46.7237 
  175000    132.25279   -7137.5829   -6454.0046   -1097.2632     102002.7      46.7237      46.7237      46.7237 
  176000    133.31909   -7133.2618   -6444.1721   -1103.0222     102002.7      46.7237      46.7237      46.7237 
  177000    133.03855    -7135.579   -6447.9393   -806.80514     102002.7      46.7237      46.7237      46.7237 
  178000    131.74381   -7143.2999   -6462.3525   -738.54221     102002.7      46.7237      46.7237      46.7237 
  179000    129.51861   -7132.8036   -6463.3576   -1062.5544     102002.7      46.7237      46.7237      46.7237 
  180000    130.99383   -7126.5868   -6449.5158   -698.82825     102002.7      46.7237      46.7237      46.7237 
  181000    127.67975   -7128.8596   -6468.9182   -849.90118     102002.7      46.7237      46.7237      46.7237 
  182000     124.8209   -7158.0155   -6512.8506   -577.11954     102002.7      46.7237      46.7237      46.7237 
  183000    133.88787   -7144.8129   -6452.7833   -640.36551     102002.7      46.7237      46.7237      46.7237 
  184000    128.25015     -7148.77   -6485.8803   -447.12846     102002.7      46.7237      46.7237      46.7237 
  185000    126.70074   -7114.7474   -6459.8662   -651.15904     102002.7      46.7237      46.7237      46.7237 
  186000     133.9297   -7121.2373   -6428.9916   -724.62695     102002.7      46.7237      46.7237      46.7237 
  187000    128.68473   -7133.4972   -6468.3613   -764.82635     102002.7      46.7237      46.7237      46.7237 
  188000    132.06845   -7129.9343   -6447.3089   -760.32756     102002.7      46.7237      46.7237      46.7237 
  189000    127.68319   -7124.5921   -6464.6329   -821.05961     102002.7      46.7237      46.7237      46.7237 
  190000    131.67001   -7155.9386   -6475.3726   -645.22739     102002.7      46.7237      46.7237      46.7237 
  191000    128.50009   -7132.4894   -6468.3078   -605.44224     102002.7      46.7237      46.7237      46.7237 
  192000    133.03462   -7119.0749   -6431.4555   -733.48417     102002.7      46.7237      46.7237      46.7237 
  193000    131.28277   -7124.9715    -6446.407   -911.10943     102002.7      46.7237      46.7237      46.7237 
  194000    129.39774   -7142.9847   -6474.1634   -643.40294     102002.7      46.7237      46.7237      46.7237 
  195000    132.87893   -7148.3867   -6461.5721   -732.89092     102002.7      46.7237      46.7237      46.7237 
  196000    127.64554   -7150.2909   -6490.5263   -739.16968     102002.7      46.7237      46.7237      46.7237 
  197000     130.1903   -7151.9633   -6479.0456   -850.94629     102002.7      46.7237      46.7237      46.7237 
  198000    130.27585    -7128.848    -6455.488   -721.35905     102002.7      46.7237      46.7237      46.7237 
  199000     127.9984   -7144.2846   -6482.6961     -947.384     102002.7      46.7237      46.7237      46.7237 
  200000    128.28089   -7108.1403   -6445.0917   -672.18424     102002.7      46.7237      46.7237      46.7237 
  201000    130.73883   -7123.3631   -6447.6101   -701.44907     102002.7      46.7237      46.7237      46.7237 
  202000    129.71986   -7147.0164   -6476.5302   -653.65054     102002.7      46.7237      46.7237      46.7237 
  203000    129.32503   -7131.8758   -6463.4303   -1004.1955     102002.7      46.7237      46.7237      46.7237 
  204000    129.66423   -7103.9257   -6433.7269   -853.42231     102002.7      46.7237      46.7237      46.7237 
  205000    129.27202   -7138.7982   -6470.6267   -1147.1228     102002.7      46.7237      46.7237      46.7237 
  206000    132.90688    -7109.229     -6422.27   -1043.4998     102002.7      46.7237      46.7237      46.7237 
  207000    131.50383   -7156.7084   -6477.0013   -965.09903     102002.7      46.7237      46.7237      46.7237 
  208000    129.04985   -7115.0814   -6448.0583   -917.22248     102002.7      46.7237      46.7237      46.7237 
  209000    124.43425   -7138.9241   -6495.7577   -1028.4386     102002.7      46.7237      46.7237      46.7237 
  210000    129.17304   -7133.7006   -6466.0407   -831.09134     102002.7      46.7237      46.7237      46.7237 
  211000    128.06105    -7131.032   -6469.1197   -891.61518     102002.7      46.7237      46.7237      46.7237 
  212000    128.39341   -7115.7385   -6452.1083   -587.55243     102002.7      46.7237      46.7237      46.7237 
  213000    131.62774   -7158.0871   -6477.7396   -1025.5437     102002.7      46.7237      46.7237      46.7237 
  214000    129.32244   -7133.6835   -6465.2514   -1036.5492     102002.7      46.7237      46.7237      46.7237 
  215000    133.28625    -7134.481   -6445.5611   -825.32943     102002.7      46.7237      46.7237      46.7237 
  216000    131.80415    -7132.899   -6451.6397   -848.06849     102002.7      46.7237      46.7237      46.7237 
  217000    128.97577   -7120.2825   -6453.6423   -1002.9019     102002.7      46.7237      46.7237      46.7237 
  218000    129.08691   -7138.1517    -6470.937   -888.09537     102002.7      46.7237      46.7237      46.7237 
  219000    129.30204   -7130.9868   -6462.6602   -884.52579     102002.7      46.7237      46.7237      46.7237 
  220000    126.77371   -7126.1885   -6470.9302   -796.80029     102002.7      46.7237      46.7237      46.7237 
  221000    128.59159   -7152.8793   -6488.2248   -675.97027     102002.7      46.7237      46.7237      46.7237 
  222000     129.5688   -7120.2898   -6450.5843   -696.52436     102002.7      46.7237      46.7237      46.7237 
  223000    127.20558    -7131.329   -6473.8384   -831.33559     102002.7      46.7237      46.7237      46.7237 
  224000    129.80114   -7127.6994    -6456.793   -629.45682     102002.7      46.7237      46.7237      46.7237 
  225000    127.96528    -7153.244   -6491.8267   -708.13409     102002.7      46.7237      46.7237      46.7237 
  226000    129.41927   -7141.7836    -6472.851   -902.12372     102002.7      46.7237      46.7237      46.7237 
  227000    128.02885    -7125.259   -6463.5132   -842.79302     102002.7      46.7237      46.7237      46.7237 
  228000    129.08014   -7151.5678    -6484.388   -789.38017     102002.7      46.7237      46.7237      46.7237 
  229000    131.24857   -7148.0607    -6469.673   -629.36506     102002.7      46.7237      46.7237      46.7237 
  230000    129.12239   -7127.5232   -6460.1251   -690.95256     102002.7      46.7237      46.7237      46.7237 
  231000    125.12951   -7153.6008   -6506.8408   -988.55442     102002.7      46.7237      46.7237      46.7237 
  232000    132.25532   -7137.8577   -6454.2663   -649.25214     102002.7      46.7237      46.7237      46.7237 
  233000    129.90199   -7142.8762   -6471.4486   -682.83575     102002.7      46.7237      46.7237      46.7237 
  234000    123.27951    -7137.846   -6500.6482   -842.80485     102002.7      46.7237      46.7237      46.7237 
  235000    131.20838   -7132.5246   -6454.3446   -794.19523     102002.7      46.7237      46.7237      46.7237 
  236000    129.11201   -7129.0275   -6461.6831   -783.27323     102002.7      46.7237      46.7237      46.7237 
  237000    127.22189   -7110.0891   -6452.5142   -414.03072     102002.7      46.7237      46.7237      46.7237 
  238000    127.67885   -7148.2715   -6488.3347   -707.67715     102002.7      46.7237      46.7237      46.7237 
  239000    134.01264   -7140.7241   -6448.0496   -910.70923     102002.7      46.7237      46.7237      46.7237 
  240000    127.78279   -7145.0109   -6484.5368   -595.57648     102002.7      46.7237      46.7237      46.7237 
  241000      129.136   -7137.0763   -6469.6079    -974.4244     102002.7      46.7237      46.7237      46.7237 
  242000    129.72369    -7124.267    -6453.761   -647.74587     102002.7      46.7237      46.7237      46.7237 
  243000    128.05295    -7141.725   -6479.8546    -778.6474     102002.7      46.7237      46.7237      46.7237 
  244000     128.7728   -7148.2265   -6482.6354   -820.43896     102002.7      46.7237      46.7237      46.7237 
  245000    132.29962   -7147.0271   -6463.2068   -664.12821     102002.7      46.7237      46.7237      46.7237 
  246000    131.12847   -7142.2676   -6464.5006   -917.18745     102002.7      46.7237      46.7237      46.7237 
  247000    128.49071   -7138.4685   -6474.3354   -828.40914     102002.7      46.7237      46.7237      46.7237 
  248000     128.2205   -7118.6249   -6455.8884   -742.50517     102002.7      46.7237      46.7237      46.7237 
  249000    131.13055   -7141.1731   -6463.3954   -855.33097     102002.7      46.7237      46.7237      46.7237 
  250000    125.70934   -7142.0588   -6492.3019   -984.83801     102002.7      46.7237      46.7237      46.7237 
  251000    132.76321   -7144.1538   -6457.9373   -753.35363     102002.7      46.7237      46.7237      46.7237 
  252000    131.86943   -7167.4614   -6485.8646   -683.11549     102002.7      46.7237      46.7237      46.7237 
  253000    131.26428   -7096.5947   -6418.1257   -633.23447     102002.7      46.7237      46.7237      46.7237 
  254000    129.58333   -7137.9597   -6468.1792   -466.15254     102002.7      46.7237      46.7237      46.7237 
  255000    126.47467   -7143.9366   -6490.2238   -819.55128     102002.7      46.7237      46.7237      46.7237 
  256000    134.53003   -7152.5045   -6457.1558   -646.91533     102002.7      46.7237      46.7237      46.7237 
  257000    134.18141   -7121.2891   -6427.7423   -738.13465     102002.7      46.7237      46.7237      46.7237 
  258000    128.34566   -7131.7607   -6468.3773   -553.28415     102002.7      46.7237      46.7237      46.7237 
  259000    127.17065   -7146.5877   -6489.2776   -656.33327     102002.7      46.7237      46.7237      46.7237 
  260000    128.18551    -7145.237   -6482.6814   -382.51076     102002.7      46.7237      46.7237      46.7237 
  261000    130.14951   -7129.0726   -6456.3656   -764.15389     102002.7      46.7237      46.7237      46.7237 
  262000    131.89628   -7138.7729   -6457.0373   -568.60617     102002.7      46.7237      46.7237      46.7237 
  263000     125.0295   -7137.7489   -6491.5059   -708.47213     102002.7      46.7237      46.7237      46.7237 
  264000    134.67039   -7144.1279   -6448.0538   -995.83866     102002.7      46.7237      46.7237      46.7237 
  265000    129.11852   -7146.1937   -6478.8156   -903.29766     102002.7      46.7237      46.7237      46.7237 
  266000    129.45376   -7141.5205   -6472.4097   -724.74459     102002.7      46.7237      46.7237      46.7237 
  267000    127.24773   -7134.4517   -6476.7433   -1035.1823     102002.7      46.7237      46.7237      46.7237 
  268000    127.61368   -7127.0373   -6467.4374   -590.29544     102002.7      46.7237      46.7237      46.7237 
  269000    131.56028   -7158.1098   -6478.1109    -866.4898     102002.7      46.7237      46.7237      46.7237 
  270000    126.04772   -7108.5764   -6457.0704   -822.58194     102002.7      46.7237      46.7237      46.7237 
  271000    129.82428   -7150.7081   -6479.6821   -887.52997     102002.7      46.7237      46.7237      46.7237 
  272000    131.91457   -7140.0117   -6458.1816   -882.88211     102002.7      46.7237      46.7237      46.7237 
  273000    135.07405   -7129.6881   -6431.5276   -801.95946     102002.7      46.7237      46.7237      46.7237 
  274000    129.84299   -7146.0644   -6474.9418    -868.0572     102002.7      46.7237      46.7237      46.7237 
  275000    131.79842   -7136.3152   -6455.0854    -749.3092     102002.7      46.7237      46.7237      46.7237 
  276000    129.48007   -7145.0612   -6475.8143   -901.48465     102002.7      46.7237      46.7237      46.7237 
  277000    129.59802   -7113.9746   -6444.1181   -694.94903     102002.7      46.7237      46.7237      46.7237 
  278000    131.77116   -7165.2401   -6484.1512    -727.8154     102002.7      46.7237      46.7237      46.7237 
  279000    127.73422   -7126.7595   -6466.5365   -769.95284     102002.7      46.7237      46.7237      46.7237 
  280000    134.64437    -7116.225   -6420.2853     -684.804     102002.7      46.7237      46.7237      46.7237 
  281000    125.63826    -7131.011   -6481.6215   -718.24213     102002.7      46.7237      46.7237      46.7237 
  282000    128.29568   -7121.6336   -6458.5086   -675.92211     102002.7      46.7237      46.7237      46.7237 
  283000    126.67831   -7145.2287   -6490.4635   -607.47835     102002.7      46.7237      46.7237      46.7237 
  284000    127.98106    -7121.429   -6459.9302   -846.88354     102002.7      46.7237      46.7237      46.7237 
  285000     123.0863    -7155.874   -6519.6748   -708.48732     102002.7      46.7237      46.7237      46.7237 
  286000    131.02302   -7135.8535   -6458.6316   -617.70352     102002.7      46.7237      46.7237      46.7237 
  287000    126.26785   -7130.6445   -6478.0008   -936.93933     102002.7      46.7237      46.7237      46.7237 
  288000    127.58731   -7118.9304   -6459.4667   -492.15805     102002.7      46.7237      46.7237      46.7237 
  289000    130.35535   -7092.1682   -6418.3973   -793.56746     102002.7      46.7237      46.7237      46.7237 
  290000    132.10609   -7128.4332   -6445.6132   -649.39008     102002.7      46.7237      46.7237      46.7237 
  291000    132.96892   -7131.9692   -6444.6895   -821.06747     102002.7      46.7237      46.7237      46.7237 
  292000    130.39227   -7145.4629   -6471.5012   -425.39054     102002.7      46.7237      46.7237      46.7237 
  293000    133.72379    -7107.498   -6416.3165   -711.35427     102002.7      46.7237      46.7237      46.7237 
  294000    131.99367   -7158.4482   -6476.2093   -844.81524     102002.7      46.7237      46.7237      46.7237 
  295000    130.91066   -7116.4677   -6439.8266   -775.42201     102002.7      46.7237      46.7237      46.7237 
  296000    130.60788   -7141.5486   -6466.4724   -616.68858     102002.7      46.7237      46.7237      46.7237 
  297000    133.93516   -7107.5475   -6415.2735   -941.76655     102002.7      46.7237      46.7237      46.7237 
  298000    132.15071   -7160.2525   -6477.2019   -966.00096     102002.7      46.7237      46.7237      46.7237 
  299000    129.75019   -7124.1356   -6453.4926   -604.76738     102002.7      46.7237      46.7237      46.7237 
  300000    130.45784     -7157.71   -6483.4093   -943.61639     102002.7      46.7237      46.7237      46.7237 
  301000    136.00619   -7133.9649   -6430.9863   -650.47548     102002.7      46.7237      46.7237      46.7237 
  302000    130.86316   -7133.2677   -6456.8721   -1036.8655     102002.7      46.7237      46.7237      46.7237 
  303000    130.42315   -7147.0049   -6472.8835   -630.42257     102002.7      46.7237      46.7237      46.7237 
  304000    130.31837   -7124.5738   -6450.9941   -635.13014     102002.7      46.7237      46.7237      46.7237 
  305000    133.64667   -7120.9374   -6430.1545   -594.87564     102002.7      46.7237      46.7237      46.7237 
  306000    129.45377   -7138.0807   -6468.9698   -437.85445     102002.7      46.7237      46.7237      46.7237 
  307000    124.80941   -7150.7756   -6505.6701   -920.24179     102002.7      46.7237      46.7237      46.7237 
  308000    133.30791   -7147.4395   -6458.4077   -754.30284     102002.7      46.7237      46.7237      46.7237 
  309000    127.69724   -7156.5901   -6496.5583   -797.50244     102002.7      46.7237      46.7237      46.7237 
  310000    134.06354   -7139.3442   -6446.4066   -1046.8705     102002.7      46.7237      46.7237      46.7237 
  311000    132.90981   -7160.1717   -6473.1975   -650.61776     102002.7      46.7237      46.7237      46.7237 
  312000    127.52794   -7157.8069   -6498.6501    -779.4675     102002.7      46.7237      46.7237      46.7237 
  313000    134.31166   -7143.5446   -6449.3246   -678.30143     102002.7      46.7237      46.7237      46.7237 
  314000    133.07512   -7161.3468   -6473.5181   -966.35597     102002.7      46.7237      46.7237      46.7237 
  315000    128.94298   -7135.7238    -6469.253    -694.1597     102002.7      46.7237      46.7237      46.7237 
  316000    132.77114    -7146.643   -6460.3856   -1014.0881     102002.7      46.7237      46.7237      46.7237 
  317000    130.51837   -7140.2897   -6465.6761   -1146.8506     102002.7      46.7237      46.7237      46.7237 
  318000    128.38323   -7149.5651   -6485.9876    -663.1665     102002.7      46.7237      46.7237      46.7237 
  319000    129.78426   -7122.8122   -6451.9931   -895.35212     102002.7      46.7237      46.7237      46.7237 
  320000    131.71744   -7133.3885   -6452.5773   -947.69872     102002.7      46.7237      46.7237      46.7237 
  321000    131.36344   -7144.2495   -6465.2681   -497.33116     102002.7      46.7237      46.7237      46.7237 
  322000    127.59763   -7146.5771     -6487.06   -891.75124     102002.7      46.7237      46.7237      46.7237 
  323000    135.25286    -7118.752   -6419.6672   -640.60876     102002.7      46.7237      46.7237      46.7237 
  324000    132.83921   -7144.6758   -6458.0664   -677.09647     102002.7      46.7237      46.7237      46.7237 
  325000    128.74389   -7139.2687    -6473.827   -766.51323     102002.7      46.7237      46.7237      46.7237 
  326000    134.48886   -7144.3151   -6449.1792   -710.70213     102002.7      46.7237      46.7237      46.7237 
  327000    125.77132   -7114.4966   -6464.4192   -991.00632     102002.7      46.7237      46.7237      46.7237 
  328000    128.16908   -7145.3904   -6482.9197   -484.61694     102002.7      46.7237      46.7237      46.7237 
  329000     127.2105   -7146.1826   -6488.6666   -549.29153     102002.7      46.7237      46.7237      46.7237 
  330000    130.21246   -7156.5608   -6483.5284   -982.49866     102002.7      46.7237      46.7237      46.7237 
  331000     129.0043   -7112.6887    -6445.901   -1126.6283     102002.7      46.7237      46.7237      46.7237 
  332000    131.75372   -7124.2497    -6443.251   -800.04163     102002.7      46.7237      46.7237      46.7237 
  333000    128.43811   -7140.8791   -6477.0179    -650.8038     102002.7      46.7237      46.7237      46.7237 
  334000    127.94635   -7135.3669   -6474.0475   -1098.9428     102002.7      46.7237      46.7237      46.7237 
  335000    135.55971   -7121.4887   -6420.8179    -849.4322     102002.7      46.7237      46.7237      46.7237 
  336000    132.13889   -7151.5432   -6468.5536   -858.92207     102002.7      46.7237      46.7237      46.7237 
  337000    126.31405   -7151.8826   -6499.0001   -696.46298     102002.7      46.7237      46.7237      46.7237 
  338000    132.88225     -7141.47   -6454.6382   -716.76476     102002.7      46.7237      46.7237      46.7237 
  339000    125.30273   -7160.4647   -6512.8094   -1198.2633     102002.7      46.7237      46.7237      46.7237 
  340000    132.72889   -7140.7123   -6454.6733   -925.89715     102002.7      46.7237      46.7237      46.7237 
  341000    133.03509   -7125.0894   -6437.4677    -1020.636     102002.7      46.7237      46.7237      46.7237 
  342000    133.89544   -7146.0024   -6453.9338   -822.26982     102002.7      46.7237      46.7237      46.7237 
  343000    125.00609   -7137.5472   -6491.4252   -725.29055     102002.7      46.7237      46.7237      46.7237 
  344000    128.95959    -7117.172   -6450.6154   -798.55824     102002.7      46.7237      46.7237      46.7237 
  345000    128.74398   -7132.6143   -6467.1721   -664.96376     102002.7      46.7237      46.7237      46.7237 
  346000    134.51953   -7103.5523   -6408.2579   -946.02528     102002.7      46.7237      46.7237      46.7237 
  347000    129.26192   -7134.2217   -6466.1024   -475.67412     102002.7      46.7237      46.7237      46.7237 
  348000    130.83787   -7121.1402   -6444.8753   -646.98714     102002.7      46.7237      46.7237      46.7237 
  349000    128.16917   -7115.4153   -6452.9441   -829.45273     102002.7      46.7237      46.7237      46.7237 
  350000    127.82072    -7149.728   -6489.0579   -726.93178     102002.7      46.7237      46.7237      46.7237 
  351000    132.42744   -7126.1877   -6441.7067   -678.23122     102002.7      46.7237      46.7237      46.7237 
  352000    128.00047   -7141.2494   -6479.6503   -796.56711     102002.7      46.7237      46.7237      46.7237 
  353000    131.71844   -7124.8074   -6443.9911   -924.09173     102002.7      46.7237      46.7237      46.7237 
  354000    130.60714   -7150.7186   -6475.6463   -828.42311     102002.7      46.7237      46.7237      46.7237 
  355000    125.98746   -7152.6816   -6501.4871   -734.60418     102002.7      46.7237      46.7237      46.7237 
  356000    132.82887   -7134.3367   -6447.7808   -1025.0417     102002.7      46.7237      46.7237      46.7237 
  357000    128.98904    -7134.414   -6467.7052   -935.23011     102002.7      46.7237      46.7237      46.7237 
  358000    131.62054   -7128.9074   -6448.5971   -547.51998     102002.7      46.7237      46.7237      46.7237 
  359000    130.41316   -7127.2422   -6453.1725   -994.08701     102002.7      46.7237      46.7237      46.7237 
  360000    133.63882   -7131.9983   -6441.2561   -885.26453     102002.7      46.7237      46.7237      46.7237 
  361000    125.81102   -7144.8737   -6494.5912   -757.84812     102002.7      46.7237      46.7237      46.7237 
  362000    128.29226   -7122.1494    -6459.042   -545.15993     102002.7      46.7237      46.7237      46.7237 
  363000    129.52462   -7133.1668   -6463.6897   -778.23569     102002.7      46.7237      46.7237      46.7237 
  364000    127.02871   -7126.8531   -6470.2766   -648.38757     102002.7      46.7237      46.7237      46.7237 
  365000    124.16086   -7149.3314   -6507.5781   -606.01077     102002.7      46.7237      46.7237      46.7237 
  366000    129.36188   -7125.2789    -6456.643   -992.09426     102002.7      46.7237      46.7237      46.7237 
  367000    130.33913   -7125.8372   -6452.1501   -831.20581     102002.7      46.7237      46.7237      46.7237 
  368000    127.16441   -7122.5294   -6465.2515   -1119.2672     102002.7      46.7237      46.7237      46.7237 
  369000    128.74643   -7136.2682   -6470.8134   -1035.1527     102002.7      46.7237      46.7237      46.7237 
  370000    130.52528   -7141.4516   -6466.8023   -747.16693     102002.7      46.7237      46.7237      46.7237 
  371000    128.66607   -7127.0646   -6462.0251   -647.64408     102002.7      46.7237      46.7237      46.7237 
  372000    127.22643   -7128.6895   -6471.0911   -779.42606     102002.7      46.7237      46.7237      46.7237 
  373000    130.34993   -7134.8531   -6461.1102   -897.66238     102002.7      46.7237      46.7237      46.7237 
  374000    134.99745   -7139.2419   -6441.4772   -847.20188     102002.7      46.7237      46.7237      46.7237 
  375000    131.07922   -7132.6215   -6455.1091   -1011.0583     102002.7      46.7237      46.7237      46.7237 
  376000    129.54596   -7126.5155   -6456.9281   -780.81763     102002.7      46.7237      46.7237      46.7237 
  377000     126.1632   -7138.7359    -6486.633   -995.85252     102002.7      46.7237      46.7237      46.7237 
  378000    132.96346   -7127.0166   -6439.7651   -769.56739     102002.7      46.7237      46.7237      46.7237 
  379000    134.23703   -7158.2782    -6464.444   -818.39825     102002.7      46.7237      46.7237      46.7237 
  380000     133.3937   -7170.6274   -6481.1521   -728.77265     102002.7      46.7237      46.7237      46.7237 
  381000    130.53613   -7161.9161   -6487.2108   -1136.1518     102002.7      46.7237      46.7237      46.7237 
  382000    129.30974    -7122.914   -6454.5476   -771.68287     102002.7      46.7237      46.7237      46.7237 
  383000    129.62996   -7146.6426    -6476.621   -772.08883     102002.7      46.7237      46.7237      46.7237 
  384000    122.29476   -7122.8781   -6490.7701   -763.65664     102002.7      46.7237      46.7237      46.7237 
  385000    125.33358    -7151.693   -6503.8782   -832.60306     102002.7      46.7237      46.7237      46.7237 
  386000    132.14032   -7139.3385   -6456.3416   -866.57373     102002.7      46.7237      46.7237      46.7237 
  387000    132.66326   -7130.2137   -6444.5138   -997.70767     102002.7      46.7237      46.7237      46.7237 
  388000    123.22188   -7121.4976   -6484.5976   -983.50796     102002.7      46.7237      46.7237      46.7237 
  389000    132.00436   -7129.9524   -6447.6582   -925.29858     102002.7      46.7237      46.7237      46.7237 
  390000    131.38856   -7112.0913     -6432.98   -854.17214     102002.7      46.7237      46.7237      46.7237 
  391000    129.03744   -7149.9331   -6482.9742   -908.25614     102002.7      46.7237      46.7237      46.7237 
  392000    130.57669   -7122.9909   -6448.0759   -830.47026     102002.7      46.7237      46.7237      46.7237 
  393000    131.95871   -7140.8993    -6458.841     -688.721     102002.7      46.7237      46.7237      46.7237 
  394000    125.40069    -7125.265   -6477.1034    -778.4033     102002.7      46.7237      46.7237      46.7237 
  395000    132.57833   -7130.4515   -6445.1906   -569.57198     102002.7      46.7237      46.7237      46.7237 
  396000    131.93599   -7147.1886   -6465.2478    -489.3718     102002.7      46.7237      46.7237      46.7237 
  397000    122.38413   -7154.0444   -6521.4745   -728.65493     102002.7      46.7237      46.7237      46.7237 
  398000    130.63228   -7126.5221   -6451.3199   -609.41341     102002.7      46.7237      46.7237      46.7237 
  399000    127.79738   -7148.1416   -6487.5921   -762.44792     102002.7      46.7237      46.7237      46.7237 
  400000     132.4451   -7130.0334   -6445.4611   -789.87921     102002.7      46.7237      46.7237      46.7237 
  401000    126.30432   -7137.5496   -6484.7173   -684.86802     102002.7      46.7237      46.7237      46.7237 
  402000    128.33825   -7143.5526   -6480.2075   -563.79925     102002.7      46.7237      46.7237      46.7237 
  403000    128.66296   -7142.8955    -6477.872   -688.82351     102002.7      46.7237      46.7237      46.7237 
  404000    128.40595   -7136.9275   -6473.2325   -919.05336     102002.7      46.7237      46.7237      46.7237 
  405000    127.66778   -7150.2761   -6490.3965   -615.64891     102002.7      46.7237      46.7237      46.7237 
  406000    133.95426   -7163.8629   -6471.4902   -909.51955     102002.7      46.7237      46.7237      46.7237 
  407000    132.70797   -7142.8728   -6456.9418   -594.96286     102002.7      46.7237      46.7237      46.7237 
  408000    132.31642   -7139.1898   -6455.2827   -813.59777     102002.7      46.7237      46.7237      46.7237 
  409000    127.32735   -7127.6714   -6469.5514   -795.02061     102002.7      46.7237      46.7237      46.7237 
  410000    127.24966    -7137.816   -6480.0975   -814.19439     102002.7      46.7237      46.7237      46.7237 
  411000    130.90009   -7144.6717   -6468.0852   -865.82948     102002.7      46.7237      46.7237      46.7237 
  412000    134.08307   -7127.1431   -6434.1046    -581.5651     102002.7      46.7237      46.7237      46.7237 
  413000    134.25623    -7149.645   -6455.7116    -860.1463     102002.7      46.7237      46.7237      46.7237 
  414000    131.34107   -7132.7194   -6453.8536    -647.5353     102002.7      46.7237      46.7237      46.7237 
  415000    128.05751   -7136.5171   -6474.6231   -817.83013     102002.7      46.7237      46.7237      46.7237 
  416000     129.6788   -7144.4269   -6474.1529    -775.2719     102002.7      46.7237      46.7237      46.7237 
  417000    130.64894    -7122.535   -6447.2466   -665.34562     102002.7      46.7237      46.7237      46.7237 
  418000    131.73602   -7148.5313   -6467.6241   -935.62823     102002.7      46.7237      46.7237      46.7237 
  419000    132.55285   -7117.7703   -6432.6411   -771.35778     102002.7      46.7237      46.7237      46.7237 
  420000    131.38293   -7147.2681   -6468.1859   -751.80746     102002.7      46.7237      46.7237      46.7237 
  421000    130.09159   -7130.7661   -6458.3585   -886.07598     102002.7      46.7237      46.7237      46.7237 
  422000    130.60587   -7149.6873   -6474.6216    -618.8451     102002.7      46.7237      46.7237      46.7237 
  423000     131.2113   -7145.3607   -6467.1656   -859.18706     102002.7      46.7237      46.7237      46.7237 
  424000    131.06117   -7128.4852   -6451.0661   -916.88477     102002.7      46.7237      46.7237      46.7237 
  425000    130.70911   -7147.3191   -6471.7197   -476.04078     102002.7      46.7237      46.7237      46.7237 
  426000    135.83757    -7146.645    -6444.538   -666.40881     102002.7      46.7237      46.7237      46.7237 
  427000    126.04205   -7160.2414   -6508.7648    -629.6051     102002.7      46.7237      46.7237      46.7237 
  428000    130.26369   -7126.5065   -6453.2094   -775.99703     102002.7      46.7237      46.7237      46.7237 
  429000    132.13242   -7173.2873   -6490.3312   -948.21822     102002.7      46.7237      46.7237      46.7237 
  430000     134.0296   -7139.6725   -6446.9104   -1087.4813     102002.7      46.7237      46.7237      46.7237 
  431000     130.4179   -7152.1073   -6478.0131    -990.6188     102002.7      46.7237      46.7237      46.7237 
  432000    129.44874   -7127.2607   -6458.1758   -827.53243     102002.7      46.7237      46.7237      46.7237 
  433000    134.29047   -7141.3829   -6447.2725   -543.25864     102002.7      46.7237      46.7237      46.7237 
  434000    127.38027   -7141.5584   -6483.1648   -585.20115     102002.7      46.7237      46.7237      46.7237 
  435000    135.35987   -7136.1076   -6436.4696   -629.41424     102002.7      46.7237      46.7237      46.7237 
  436000     130.5467   -7144.9238   -6470.1638   -691.89701     102002.7      46.7237      46.7237      46.7237 
  437000    129.44546   -7133.0554   -6463.9875   -707.70506     102002.7      46.7237      46.7237      46.7237 
  438000    127.00918   -7146.2989   -6489.8234   -804.13221     102002.7      46.7237      46.7237      46.7237 
  439000    132.91953   -7144.4651   -6457.4407   -585.90059     102002.7      46.7237      46.7237      46.7237 
  440000    129.45607   -7138.8106   -6469.6878   -672.39215     102002.7      46.7237      46.7237      46.7237 
  441000    132.63161   -7116.0902    -6430.554   -729.32682     102002.7      46.7237      46.7237      46.7237 
  442000    131.33124   -7150.9432   -6472.1282   -685.53879     102002.7      46.7237      46.7237      46.7237 
  443000    130.57049   -7165.3158   -6490.4329   -597.70635     102002.7      46.7237      46.7237      46.7237 
  444000     131.7998   -7125.7675   -6444.5306   -613.53293     102002.7      46.7237      46.7237      46.7237 
  445000    129.51541   -7156.6033   -6487.1738   -771.90066     102002.7      46.7237      46.7237      46.7237 
  446000    132.59016   -7129.8987   -6444.5767   -709.81132     102002.7      46.7237      46.7237      46.7237 
  447000    132.46031   -7149.7878   -6465.1369    -823.4365     102002.7      46.7237      46.7237      46.7237 
  448000    130.30505   -7120.8901   -6447.3792   -952.20241     102002.7      46.7237      46.7237      46.7237 
  449000    126.06057   -7128.7335   -6477.1611   -720.83613     102002.7      46.7237      46.7237      46.7237 
  450000    129.54585   -7142.9257   -6473.3389   -1043.5977     102002.7      46.7237      46.7237      46.7237 
  451000    128.58796   -7116.1394   -6451.5036   -713.97752     102002.7      46.7237      46.7237      46.7237 
  452000    131.14451   -7124.4368   -6446.5869   -630.22819     102002.7      46.7237      46.7237      46.7237 
  453000     130.8695   -7144.0491   -6467.6207   -713.41047     102002.7      46.7237      46.7237      46.7237 
  454000    130.37924   -7119.8222   -6445.9278   -787.04916     102002.7      46.7237      46.7237      46.7237 
  455000    131.81284   -7105.5168   -6424.2126   -671.30605     102002.7      46.7237      46.7237      46.7237 
  456000     127.4936   -7126.1107   -6467.1314   -656.32441     102002.7      46.7237      46.7237      46.7237 
  457000    130.42783   -7126.6559   -6452.5104   -651.36088     102002.7      46.7237      46.7237      46.7237 
  458000    133.43737   -7142.3583   -6452.6573   -638.69529     102002.7      46.7237      46.7237      46.7237 
  459000    132.34284   -7131.8195   -6447.7758      -671.22     102002.7      46.7237      46.7237      46.7237 
  460000    132.91807   -7132.9981   -6445.9812   -672.27128     102002.7      46.7237      46.7237      46.7237 
  461000    131.45574   -7118.4902   -6439.0316   -789.82601     102002.7      46.7237      46.7237      46.7237 
  462000    130.26845   -7139.9131   -6466.5913   -835.27839     102002.7      46.7237      46.7237      46.7237 
  463000     126.8117   -7148.9717   -6493.5169   -668.97498     102002.7      46.7237      46.7237      46.7237 
  464000    130.24636   -7126.1913   -6452.9838    -663.0852     102002.7      46.7237      46.7237      46.7237 
  465000    128.27934   -7128.1445   -6465.1039   -772.46691     102002.7      46.7237      46.7237      46.7237 
  466000    128.87825    -7107.694   -6441.5578   -393.04446     102002.7      46.7237      46.7237      46.7237 
  467000    130.28316   -7131.4657   -6458.0679   -778.05023     102002.7      46.7237      46.7237      46.7237 
  468000    129.33543   -7160.3371   -6491.8379   -579.86924     102002.7      46.7237      46.7237      46.7237 
  469000     129.3292   -7123.8086   -6455.3415   -519.93783     102002.7      46.7237      46.7237      46.7237 
  470000    131.12401   -7125.2635   -6447.5196   -787.88922     102002.7      46.7237      46.7237      46.7237 
  471000    122.20233   -7139.8092    -6508.179   -529.78117     102002.7      46.7237      46.7237      46.7237 
  472000    128.82256   -7149.6678   -6483.8194   -401.99634     102002.7      46.7237      46.7237      46.7237 
  473000    129.66305    -7122.853   -6452.6604   -854.63064     102002.7      46.7237      46.7237      46.7237 
  474000    127.82756   -7161.5386   -6500.8332   -819.16618     102002.7      46.7237      46.7237      46.7237 
  475000    130.15812   -7127.6603   -6454.9089   -903.90591     102002.7      46.7237      46.7237      46.7237 
  476000    128.21008   -7147.1443   -6484.4617   -881.33238     102002.7      46.7237      46.7237      46.7237 
  477000    130.89132   -7124.2511   -6447.7099    -1148.503     102002.7      46.7237      46.7237      46.7237 
  478000    128.54851   -7148.9932   -6484.5613   -695.68607     102002.7      46.7237      46.7237      46.7237 
  479000    129.99775   -7135.3615   -6463.4389   -565.07837     102002.7      46.7237      46.7237      46.7237 
  480000     128.2107   -7137.6601   -6474.9743   -699.24701     102002.7      46.7237      46.7237      46.7237 
  481000    127.38405   -7143.4983   -6485.0852   -1009.4618     102002.7      46.7237      46.7237      46.7237 
  482000    127.96195   -7125.2034   -6463.8033   -913.04714     102002.7      46.7237      46.7237      46.7237 
  483000    129.10083   -7167.2274   -6499.9408   -772.78365     102002.7      46.7237      46.7237      46.7237 
  484000    132.25649   -7150.4013   -6466.8039   -831.45122     102002.7      46.7237      46.7237      46.7237 
  485000    130.46922   -7128.6568   -6454.2973   -705.64482     102002.7      46.7237      46.7237      46.7237 
  486000    133.82839     -7162.43   -6470.7079   -1053.8883     102002.7      46.7237      46.7237      46.7237 
  487000    130.44323   -7131.2418   -6457.0167   -1106.8025     102002.7      46.7237      46.7237      46.7237 
  488000    131.85046   -7106.7997    -6425.301   -821.15732     102002.7      46.7237      46.7237      46.7237 
  489000    128.87153   -7138.7507   -6472.6492   -774.56017     102002.7      46.7237      46.7237      46.7237 
  490000    133.89187    -7121.531   -6429.4808   -895.25524     102002.7      46.7237      46.7237      46.7237 
  491000    128.98295   -7132.5245   -6465.8472   -489.14909     102002.7      46.7237      46.7237      46.7237 
  492000    130.96979    -7153.477   -6476.5302   -749.50572     102002.7      46.7237      46.7237      46.7237 
  493000    130.72561   -7118.2762   -6442.5915   -946.42612     102002.7      46.7237      46.7237      46.7237 
  494000    134.29948    -7132.931   -6438.7739   -795.18905     102002.7      46.7237      46.7237      46.7237 
  495000    128.25152   -7131.7978    -6468.901   -844.83036     102002.7      46.7237      46.7237      46.7237 
  496000    124.48501    -7135.625   -6492.1963   -852.94285     102002.7      46.7237      46.7237      46.7237 
  497000    130.53539   -7144.2532   -6469.5517   -983.68189     102002.7      46.7237      46.7237      46.7237 
  498000    132.69709   -7119.5649   -6433.6902   -635.30787     102002.7      46.7237      46.7237      46.7237 
  499000    128.33669   -7135.1878   -6471.8508   -576.50368     102002.7      46.7237      46.7237      46.7237 
  500000    135.26324   -7103.4312   -6404.2927   -501.94693     102002.7      46.7237      46.7237      46.7237 
  500504    128.57881   -7142.8896   -6478.3011   -776.32935     102002.7      46.7237      46.7237      46.7237 
Loop time of 1282.86 on 16 procs for 500000 steps with 1735 atoms

Performance: 33.675 ns/day, 0.713 hours/ns, 389.755 timesteps/s
99.8% CPU use with 16 MPI tasks x no OpenMP threads

MPI task timing breakdown:
Section |  min time  |  avg time  |  max time  |%varavg| %total
---------------------------------------------------------------
Pair    | 505.29     | 686.16     | 858.01     | 450.9 | 53.49
Bond    | 170.5      | 173.97     | 179.22     |  18.9 | 13.56
Neigh   | 4.1047     | 4.121      | 4.1358     |   0.4 |  0.32
Comm    | 236.05     | 405.12     | 586.81     | 582.8 | 31.58
Output  | 0.02051    | 0.020909   | 0.024013   |   0.6 |  0.00
Modify  | 7.233      | 8.1212     | 8.964      |  18.2 |  0.63
Other   |            | 5.353      |            |       |  0.42

Nlocal:    108.438 ave 146 max 74 min
Histogram: 1 2 0 2 5 2 0 2 1 1
Nghost:    2204.56 ave 2240 max 2173 min
Histogram: 2 3 0 0 2 5 1 0 2 1
Neighs:    11456.8 ave 17119 max 7645 min
Histogram: 3 2 3 1 1 1 2 1 1 1

Total # of neighbors = 183308
Ave neighs/atom = 105.653
Ave special neighs/atom = 6.63977
Neighbor list builds = 3578
Dangerous builds = 0
Neighbor list info ...
  update every 1 steps, delay 10 steps, check yes
  max neighbors/atom: 2000, page size: 100000
  master list distance cutoff = 16
  ghost atom cutoff = 16
  binsize = 8, bins = 6 6 6
  3 neighbor lists, perpetual/occasional/extra = 3 0 0
  (1) pair buck6d/coul/gauss/dsf, perpetual, skip from (3)
      attributes: half, newton on
      pair build: skip
      stencil: none
      bin: none
  (2) pair lj/cut, perpetual, skip from (3)
      attributes: half, newton on
      pair build: skip
      stencil: none
      bin: none
  (3) neighbor class addition, perpetual
      attributes: half, newton on
      pair build: half/bin/newton
      stencil: half/bin/3d/newton
      bin: standard
Setting up Verlet run ...
  Unit style    : real
  Current step  : 500504
  Time step     : 1
WARNING: Inconsistent image flags (../domain.cpp:786)
Per MPI rank memory allocation (min/avg/max) = 23.33 | 23.33 | 23.33 Mbytes
Step Time TotEng KinEng PotEng E_mol E_pair Temp Pxx Pyy Pzz Pxy Pxz Pyz Cella Cellb Cellc CellAlpha CellBeta CellGamma Volume Press 
  500504       500000   -6478.3011    664.58846   -7142.8896    4430.0838   -11572.973    128.57881   -797.39261   -671.27478   -860.32065   -34.764576    74.232658   -1.5688178      46.7237      46.7237      46.7237           90           90           90     102002.7   -776.32935 
  501000       500496   -6483.2887    661.45193   -7144.7406     4415.036   -11559.777    127.97198   -533.24511   -970.70536   -750.38698    74.556422    82.665201    66.667558      46.7237      46.7237      46.7237           90           90           90     102002.7   -751.44582 
  502000       501496    -6500.339    653.95162   -7154.2906    4415.2974   -11569.588    126.52089   -597.89457   -410.80591   -495.05802    68.551596    90.073682    117.12512      46.7237      46.7237      46.7237           90           90           90     102002.7   -501.25283 
  503000       502496   -6460.6999     683.7796   -7144.4795    4416.5086   -11560.988    132.29174   -832.76469   -758.65166   -541.00036   -141.14362    110.07266     81.94054      46.7237      46.7237      46.7237           90           90           90     102002.7   -710.80557 
  504000       503496   -6481.6446    677.65054   -7159.2952    4417.5981   -11576.893    131.10595   -370.78944   -1487.3153   -1047.6971    70.589551     293.7514    18.532648      46.7237      46.7237      46.7237           90           90           90     102002.7    -968.6006 
  505000       504496   -6457.0562    656.68728   -7113.7435     4422.436    -11536.18    127.05016   -722.25865   -776.00506   -391.12917   -220.92163    121.82936   -168.73292      46.7237      46.7237      46.7237           90           90           90     102002.7   -629.79763 
  506000       505496   -6503.5109    646.16949   -7149.6803    4410.1377   -11559.818    125.01527   -328.13567    -820.5776   -994.12582   -112.43136    276.55294   -13.150124      46.7237      46.7237      46.7237           90           90           90     102002.7    -714.2797 
  507000       506496   -6460.6212    677.52319   -7138.1444    4415.1936   -11553.338    131.08131   -802.08202   -718.87188   -410.10002   -101.65218   -227.50484   -184.88607      46.7237      46.7237      46.7237           90           90           90     102002.7   -643.68464 
  508000       507496   -6475.4659     656.9475   -7132.4134    4430.4724   -11562.886     127.1005   -960.62207   -720.66562   -680.85109    6.0770573   -73.848558   -244.63823      46.7237      46.7237      46.7237           90           90           90     102002.7   -787.37959 
  509000       508496   -6428.5248    682.11287   -7110.6376    4455.0856   -11565.723    131.96928   -1082.0152   -255.12144   -438.09772    -178.1082    109.77442   -123.69355      46.7237      46.7237      46.7237           90           90           90     102002.7   -591.74477 
  510000       509496   -6442.4302    683.51025   -7125.9404    4422.3796    -11548.32    132.23963   -866.09991   -707.33382   -962.01539    123.83066    1.2901543     54.43756      46.7237      46.7237      46.7237           90           90           90     102002.7   -845.14971 
  511000       510496   -6475.0275    651.83652    -7126.864    4452.1752   -11579.039    126.11168   -1086.3331   -1100.2918   -513.52754    54.753475    163.82174   -74.410562      46.7237      46.7237      46.7237           90           90           90     102002.7    -900.0508 
  512000       511496   -6445.4175    684.63081   -7130.0483    4440.1242   -11570.172    132.45643   -818.79225   -1388.5534   -572.53987   -152.55451   -264.90056   -59.110133      46.7237      46.7237      46.7237           90           90           90     102002.7    -926.6285 
  513000       512496   -6488.9069    668.63115    -7157.538    4405.0894   -11562.627    129.36095   -939.51017   -704.06322   -399.11072    61.152022   -270.97237    105.61697      46.7237      46.7237      46.7237           90           90           90     102002.7   -680.89471 
  514000       513496   -6477.3288    682.22027    -7159.549    4399.3235   -11558.873    131.99006   -662.93677   -759.63397    -744.8656   -81.418094    59.722377   -27.719613      46.7237      46.7237      46.7237           90           90           90     102002.7   -722.47878 
  515000       514496   -6456.4056    669.22979   -7125.6354    4441.1053   -11566.741    129.47677   -1334.5121   -694.81684   -613.31924   -235.61864   -93.174267    34.823618      46.7237      46.7237      46.7237           90           90           90     102002.7   -880.88274 
  516000       515496   -6458.4233    674.33858   -7132.7619    4420.8012   -11553.563    130.46518   -939.51846   -384.42557   -746.70219    77.096966    41.896006    138.80739      46.7237      46.7237      46.7237           90           90           90     102002.7   -690.21541 
  517000       516496   -6481.5559     651.4651    -7133.021    4417.7896   -11550.811    126.03982   -564.83403   -244.11407   -337.52967     145.9827    229.82093    63.609968      46.7237      46.7237      46.7237           90           90           90     102002.7   -382.15926 
  518000       517496   -6436.8488    699.17271   -7136.0216    4419.9087    -11555.93    135.26987   -779.48255   -563.82979   -1234.3229   -11.279491   -126.27127   -273.78577      46.7237      46.7237      46.7237           90           90           90     102002.7   -859.21173 
  519000       518496   -6487.2524     660.9735   -7148.2259    4401.6586   -11549.885    127.87942   -1135.4901    -880.2556   -1127.0864    -223.5973   -212.07801   -75.567975      46.7237      46.7237      46.7237           90           90           90     102002.7   -1047.6107 
  520000       519496   -6465.3062    677.92647   -7143.2327    4423.9562   -11567.189    131.15933   -994.75777   -891.51405   -607.67828   -41.876404    -30.37974   -19.239243      46.7237      46.7237      46.7237           90           90           90     102002.7    -831.3167 
  521000       520496   -6486.3525    669.67376   -7156.0263    4374.6386   -11530.665    129.56267   -760.94491   -386.17609   -270.27512   -11.809101   -50.539927    92.896791      46.7237      46.7237      46.7237           90           90           90     102002.7   -472.46538 
  522000       521496   -6467.4048    673.18778   -7140.5926    4400.9213   -11541.514    130.24253   -510.99798   -691.48562   -295.38215   -28.294297   -180.24728   -37.448617      46.7237      46.7237      46.7237           90           90           90     102002.7   -499.28858 
  523000       522496   -6470.1958    678.60723    -7148.803    4403.2523   -11552.055    131.29104   -701.31326   -635.95043   -376.16175    69.092036    64.756387    170.61979      46.7237      46.7237      46.7237           90           90           90     102002.7   -571.14182 
  524000       523496   -6458.2351    682.20561   -7140.4407    4427.6527   -11568.093    131.98722   -690.66452   -401.51888   -958.12168   -31.084364   -205.70004    59.000224      46.7237      46.7237      46.7237           90           90           90     102002.7   -683.43503 
  525000       524496   -6461.7443    648.60451   -7110.3489    4439.1341   -11549.483    125.48637   -430.43005   -478.22506   -407.63546   -50.083725    204.87213    8.1812374      46.7237      46.7237      46.7237           90           90           90     102002.7   -438.76352 
  526000       525496   -6462.1429    688.51833   -7150.6613     4399.005   -11549.666    133.20855   -704.71326   -1117.5558   -360.10082    25.360851    226.20703    128.94763      46.7237      46.7237      46.7237           90           90           90     102002.7   -727.45664 
  527000       526496   -6469.7551     679.0308   -7148.7859    4405.2006   -11553.986    131.37299   -1163.5875   -867.39556   -888.99387   -128.39494   -233.00873   -168.74793      46.7237      46.7237      46.7237           90           90           90     102002.7   -973.32564 
  528000       527496   -6472.7247    665.68647   -7138.4112     4424.384   -11562.795    128.79124   -1337.6534    -1048.458   -856.95726     53.97444   -374.76589   -225.70037      46.7237      46.7237      46.7237           90           90           90     102002.7   -1081.0229 
  529000       528496   -6494.0187    659.65969   -7153.6784    4410.1592   -11563.838    127.62523   -689.57032   -799.09841   -1036.2871    153.58206    174.84193   -216.32304      46.7237      46.7237      46.7237           90           90           90     102002.7   -841.65195 
  530000       529496   -6452.6099    672.59603   -7125.2059    4437.3294   -11562.535    130.12805   -984.79455   -579.81047   -633.27258    160.16026    76.824392    159.79428      46.7237      46.7237      46.7237           90           90           90     102002.7   -732.62587 
  531000       530496   -6473.7363    662.86143   -7136.5977     4434.726   -11571.324    128.24468   -885.68398   -780.05589   -1137.3439    80.911404   -128.76507    61.422495      46.7237      46.7237      46.7237           90           90           90     102002.7   -934.36127 
  532000       531496   -6466.9216    656.64381   -7123.5654    4440.8859   -11564.451    127.04175   -1233.9142    -1283.394   -1163.9853    49.400444    61.486906     41.57231      46.7237      46.7237      46.7237           90           90           90     102002.7   -1227.0978 
  533000       532496   -6459.5332    690.62277    -7150.156    4421.3106   -11571.467     133.6157   -599.18317   -548.17476   -865.46105   -119.31433    247.15422    81.548175      46.7237      46.7237      46.7237           90           90           90     102002.7   -670.93966 
  534000       533496   -6459.5545    682.09204   -7141.6466    4418.7802   -11560.427    131.96525    -495.6837   -190.55024   -608.92398     57.49856   -28.385951    51.783148      46.7237      46.7237      46.7237           90           90           90     102002.7   -431.71931 
  535000       534496   -6436.1035    681.43716   -7117.5406    4437.5772   -11555.118    131.83855   -676.38285   -1051.3593   -583.84545    1.6009887    200.66664   -61.446505      46.7237      46.7237      46.7237           90           90           90     102002.7    -770.5292 
  536000       535496   -6513.0667    637.51853   -7150.5852    4395.4842   -11546.069    123.34156   -342.90199    -373.0036   -420.93812   -201.07076    90.651283   -248.61763      46.7237      46.7237      46.7237           90           90           90     102002.7   -378.94791 
  537000       536496   -6444.3268     672.4552    -7116.782    4458.2455   -11575.028     130.1008    -818.5553   -846.85663   -867.54618   -96.678684    218.35105   -141.10541      46.7237      46.7237      46.7237           90           90           90     102002.7   -844.31937 
  538000       537496    -6486.507    649.03562   -7135.5426    4413.4408   -11548.983    125.56978   -440.33006   -797.47446    -682.8763   -206.00822    292.44967   -22.054468      46.7237      46.7237      46.7237           90           90           90     102002.7   -640.22694 
  539000       538496   -6461.2532    663.75579    -7125.009     4420.688   -11545.697    128.41771   -527.25878   -840.17978   -116.23565   -74.854069    36.289094    89.083006      46.7237      46.7237      46.7237           90           90           90     102002.7   -494.55807 
  540000       539496    -6484.351    650.23114   -7134.5821    4423.9689   -11558.551    125.80108   -813.16373   -809.38582   -689.29445   -181.29975    162.92015   -89.424131      46.7237      46.7237      46.7237           90           90           90     102002.7   -770.61467 
  541000       540496   -6463.2741    662.40724   -7125.6813    4447.8066   -11573.488    128.15681   -1002.1564   -1192.9098   -688.35785    57.204964   -81.716254   -70.621507      46.7237      46.7237      46.7237           90           90           90     102002.7   -961.14133 
  542000       541496   -6470.0339    655.65807    -7125.692    4418.9639   -11544.656    126.85104   -753.90895   -629.87779   -787.93968    77.293653     95.54632    142.97184      46.7237      46.7237      46.7237           90           90           90     102002.7   -723.90881 
  543000       542496   -6467.3288    665.54167   -7132.8704    4425.2311   -11558.102    128.76323   -1002.3938   -539.05802   -912.60159   -214.35967   -103.25509   -308.95376      46.7237      46.7237      46.7237           90           90           90     102002.7   -818.01779 
  544000       543496   -6478.9376    646.68577   -7125.6234    4436.7279   -11562.351    125.11515   -705.25081   -721.33065   -478.93072   -89.515534   -39.920439    130.01765      46.7237      46.7237      46.7237           90           90           90     102002.7   -635.17073 
  545000       544496   -6466.3525    675.02094   -7141.3735    4420.6129   -11561.986     130.5972   -953.70652   -213.59432   -409.34322   -61.953328     103.4139    26.762614      46.7237      46.7237      46.7237           90           90           90     102002.7   -525.54802 
  546000       545496   -6463.3902    684.47305   -7147.8632    4407.8056   -11555.669    132.42591    -813.1389   -864.22978   -586.87221   -417.04514    33.822829   -48.992523      46.7237      46.7237      46.7237           90           90           90     102002.7   -754.74696 
  547000       546496   -6479.7401    665.14287    -7144.883    4429.7517   -11574.635    128.68607   -770.61712   -943.88966   -848.89053    71.686219    104.68445    75.651487      46.7237      46.7237      46.7237           90           90           90     102002.7   -854.46577 
  548000       547496   -6470.9177    666.99756   -7137.9153      4429.47   -11567.385     129.0449   -1226.8766   -673.53573   -1420.2737    159.07621   -56.195579    -60.09103      46.7237      46.7237      46.7237           90           90           90     102002.7   -1106.8953 
  549000       548496   -6477.3725    665.86773   -7143.2402    4399.2898    -11542.53    128.82631   -926.61614   -1123.2747   -1187.8057   -80.542689    83.413086   -73.992185      46.7237      46.7237      46.7237           90           90           90     102002.7   -1079.2322 
  550000       549496   -6451.3836    674.07734   -7125.4609    4422.8626   -11548.324    130.41464   -565.39006   -628.93196   -1110.2062    105.71431   -313.81935     -334.801      46.7237      46.7237      46.7237           90           90           90     102002.7   -768.17607 
  551000       550496   -6502.4872    651.69977    -7154.187    4379.5773   -11533.764    126.08522   -623.41156   -340.02457   -929.93638    66.491469   -49.367003    211.06083      46.7237      46.7237      46.7237           90           90           90     102002.7   -631.12417 
  552000       551496   -6461.6653    677.03495   -7138.7002    4405.4384   -11544.139    130.98685   -748.06344   -536.15028    -664.3046    18.519484    133.79903    115.82699      46.7237      46.7237      46.7237           90           90           90     102002.7   -649.50611 
  553000       552496   -6462.2203    667.67283   -7129.8932    4428.5335   -11558.427    129.17555   -498.88401   -965.58551   -382.09688   -135.11273    199.45306    129.56857      46.7237      46.7237      46.7237           90           90           90     102002.7   -615.52214 
  554000       553496   -6464.4406    662.82797   -7127.2685    4416.9642   -11544.233    128.23821   -445.99735   -806.98454   -527.60384   -158.54647    216.69575    46.182344      46.7237      46.7237      46.7237           90           90           90     102002.7   -593.52858 
  555000       554496   -6458.4599    683.02071   -7141.4806    4439.1362   -11580.617    132.14492    -745.0393   -488.00146   -463.88635    283.34576    180.39295    1.9103167      46.7237      46.7237      46.7237           90           90           90     102002.7   -565.64237 
[...]
  936000       935496    -6460.883    671.23434   -7132.1173     4430.728   -11562.845     129.8646   -818.12357   -1049.6637   -535.05481   -9.3313039   -254.58197    82.705918      46.7237      46.7237      46.7237           90           90           90     102002.7   -800.94735 
  937000       936496   -6489.8594    652.03426   -7141.8936    4397.6228   -11539.516    126.14993   -994.52006    -712.4409   -576.79967    275.29616    10.774994   -309.21809      46.7237      46.7237      46.7237           90           90           90     102002.7   -761.25354 
  938000       937496   -6470.9505    657.80233   -7128.7528    4436.1334   -11564.886    127.26589   -966.90967   -687.33066   -840.92293   -49.238682    85.493481    96.110908      46.7237      46.7237      46.7237           90           90           90     102002.7   -831.72109 
  939000       938496   -6425.1737    687.92894   -7113.1026    4428.1131   -11541.216    133.09452   -1175.2574   -572.97084   -633.19242    128.45264    149.81523    29.064409      46.7237      46.7237      46.7237           90           90           90     102002.7   -793.80689 
  940000       939496    -6451.455    679.52663   -7130.9816    4435.8225   -11566.804    131.46892   -1103.5631    -1121.948    -921.0283    93.830612   -62.444302    -150.0933      46.7237      46.7237      46.7237           90           90           90     102002.7   -1048.8465 
  941000       940496   -6498.3267    650.02004   -7148.3468    4421.9874   -11570.334    125.76024   -798.96261   -619.36069   -1334.8399   -214.45635   -282.13351   -29.477003      46.7237      46.7237      46.7237           90           90           90     102002.7   -917.72107 
  942000       941496   -6472.2683    669.16307   -7141.4314    4412.2815   -11553.713    129.46387   -820.22926    -584.8307   -955.56916   -212.29264   -6.4862958    57.169949      46.7237      46.7237      46.7237           90           90           90     102002.7   -786.87637 
  943000       942496   -6455.5368    682.73186   -7138.2687     4418.737   -11557.006    132.08904   -609.07204   -626.80066   -767.59209   -28.092986    195.52421    199.21186      46.7237      46.7237      46.7237           90           90           90     102002.7    -667.8216 
  944000       943496   -6488.5476       656.61   -7145.1576    4392.6732   -11537.831    127.03521   -794.14562   -618.23447   -570.23898    103.48712    120.66604    80.531167      46.7237      46.7237      46.7237           90           90           90     102002.7   -660.87302 
  945000       944496   -6451.3624    673.18957    -7124.552      4434.37   -11558.922    130.24288   -193.58254   -999.27405   -1139.8508    -15.62361     184.4285    33.795135      46.7237      46.7237      46.7237           90           90           90     102002.7   -777.56912 
  946000       945496   -6451.2964    681.83027   -7133.1267    4423.4676   -11556.594     131.9146   -746.30404    -476.1287    -707.0998    22.988773      -214.66    215.58394      46.7237      46.7237      46.7237           90           90           90     102002.7   -643.17751 
  947000       946496   -6438.3057    677.85988   -7116.1655    4449.2495   -11565.415    131.14645   -669.28573   -732.87376   -447.71307   -7.2430277   -2.8543685    323.30015      46.7237      46.7237      46.7237           90           90           90     102002.7   -616.62419 
  948000       947496   -6449.6552    678.57538   -7128.2306    4427.9295    -11556.16    131.28488   -521.07564    -538.2697    -848.5058   -108.61273   -82.190001    332.26359      46.7237      46.7237      46.7237           90           90           90     102002.7   -635.95038 
  949000       948496   -6485.8862     656.7755   -7142.6617    4412.3231   -11554.985    127.06723   -284.59701   -416.68975   -825.82572   -22.399065    183.65141    246.67334      46.7237      46.7237      46.7237           90           90           90     102002.7   -509.03749 
  950000       949496   -6456.0914    676.67201   -7132.7634    4412.0995   -11544.863    130.91663   -986.00158    33.176438   -465.52242   -19.272372    31.656979    270.04878      46.7237      46.7237      46.7237           90           90           90     102002.7   -472.78252 
  951000       950496   -6475.4098    653.59709   -7129.0068    4428.7456   -11557.752    126.45229   -979.43728   -618.96339    -234.7101   -53.171563   -13.932012   -6.3257508      46.7237      46.7237      46.7237           90           90           90     102002.7   -611.03692 
  952000       951496   -6468.6927    680.57286   -7149.2655    4402.6872   -11551.953    131.67133   -511.81391   -712.52213   -851.52951    122.36738    15.700681   -149.20537      46.7237      46.7237      46.7237           90           90           90     102002.7   -691.95518 
  953000       952496   -6420.9993    685.51673    -7106.516    4440.9431   -11547.459    132.62783   -871.71285   -918.19969    -376.2181   -28.687941   -217.10827    -69.22174      46.7237      46.7237      46.7237           90           90           90     102002.7   -722.04355 
  954000       953496   -6463.3858    667.56701   -7130.9528     4413.324   -11544.277    129.15507   -581.76748   -362.35127   -282.17122    192.10921    49.579032   -59.713579      46.7237      46.7237      46.7237           90           90           90     102002.7   -408.76332 
  955000       954496   -6500.6402    653.34645   -7153.9866    4409.4038    -11563.39     126.4038   -336.46215    -668.4435    -554.2318    16.146784   -65.965186   -98.937613      46.7237      46.7237      46.7237           90           90           90     102002.7   -519.71248 
  956000       955496   -6432.2892    681.57397   -7113.8632    4443.1429   -11557.006    131.86502   -940.24935   -1167.1432   -547.53447   -122.90819   -357.18506    102.01304      46.7237      46.7237      46.7237           90           90           90     102002.7   -884.97567 
  957000       956496   -6476.0893    657.33954   -7133.4288    4416.8259   -11550.255    127.17635   -528.24809   -509.33127   -688.87472    6.5461006    86.797193    104.92724      46.7237      46.7237      46.7237           90           90           90     102002.7   -575.48469 
  958000       957496    -6448.422    673.39616   -7121.8181    4447.5169   -11569.335    130.28285   -778.95569   -822.94889   -513.81969    16.940722   -19.265367   -195.72114      46.7237      46.7237      46.7237           90           90           90     102002.7   -705.24143 
  959000       958496   -6469.1635    674.63461   -7143.7981    4396.1381   -11539.936    130.52245   -870.92937   -725.33231   -354.96295    175.66845    98.389777   -22.155424      46.7237      46.7237      46.7237           90           90           90     102002.7   -650.40821 
  960000       959496   -6476.8164    681.90796   -7158.7244    4409.1351   -11567.859    131.92964   -773.30812   -1235.7576   -110.94387    105.34521   -76.671661   -354.49464      46.7237      46.7237      46.7237           90           90           90     102002.7   -706.66988 
  961000       960496   -6449.2033    662.33483   -7111.5381    4444.2999   -11555.838     128.1428   -1013.9607   -218.12977   -698.44231    102.63734   -169.28426    -182.9075      46.7237      46.7237      46.7237           90           90           90     102002.7   -643.51093 
  962000       961496   -6468.4937    659.47145   -7127.9651    4426.4454    -11554.41    127.58882    -618.2071   -711.50663   -191.95722   -355.24705   -199.38078    143.94755      46.7237      46.7237      46.7237           90           90           90     102002.7   -507.22365 
  963000       962496   -6450.4686    684.86635    -7135.335    4425.0496   -11560.385      132.502   -1004.3734   -917.49491   -1057.1186   -18.254957    191.15751    177.13639      46.7237      46.7237      46.7237           90           90           90     102002.7   -992.99563 
  964000       963496   -6463.4398     669.4901   -7132.9299    4422.1208   -11555.051    129.52714   -951.92661   -172.14688   -1043.1082    389.61069   -252.84501   -59.767242      46.7237      46.7237      46.7237           90           90           90     102002.7   -722.39391 
  965000       964496    -6471.321    677.17187   -7148.4928    4429.1322   -11577.625    131.01334   -797.66436   -709.02848   -448.73774    227.80427   -70.227914   -74.241879      46.7237      46.7237      46.7237           90           90           90     102002.7   -651.81019 
  966000       965496   -6439.9639    669.56428   -7109.5282    4445.7053   -11555.233    129.54149   -830.61019   -990.22208   -755.80984   -143.84975    148.90352    55.860621      46.7237      46.7237      46.7237           90           90           90     102002.7    -858.8807 
  967000       966496   -6468.5221    667.17269   -7135.6948    4416.6677   -11552.362    129.07878    -895.8739   -146.39581   -1256.8298    215.71729    94.880209    186.53333      46.7237      46.7237      46.7237           90           90           90     102002.7   -766.36651 
  968000       967496   -6486.4426    660.24733   -7146.6899    4411.4257   -11558.116    127.73893    -506.4025   -179.88938   -916.99728    108.47036   -178.25854    -81.17847      46.7237      46.7237      46.7237           90           90           90     102002.7   -534.42972 
  969000       968496    -6446.157    681.52203    -7127.679    4412.8851   -11540.564    131.85497   -616.44285   -1023.1997    -670.0271    -164.6292    109.91288   -165.53237      46.7237      46.7237      46.7237           90           90           90     102002.7   -769.88988 
  970000       969496   -6466.4798    666.78634   -7133.2662    4433.9835    -11567.25    129.00404   -323.23452   -1123.9364   -841.28626   -12.807747    151.35942    106.10042      46.7237      46.7237      46.7237           90           90           90     102002.7   -762.81906 
  971000       970496   -6442.7363    687.34005   -7130.0763    4424.1121   -11554.188    132.98059   -721.49041   -905.88775   -640.68661    113.56586    113.33501   -59.301122      46.7237      46.7237      46.7237           90           90           90     102002.7   -756.02159 
  972000       971496   -6444.8554    673.54154    -7118.397    4431.7877   -11550.185    130.31097   -879.56615   -595.00725   -171.35295   -45.571328   -32.090618   -125.43954      46.7237      46.7237      46.7237           90           90           90     102002.7   -548.64212 
  973000       972496   -6477.7949      670.375   -7148.1699    4427.0187   -11575.189    129.69834   -555.74919   -555.35608   -625.08647    112.47986   -230.05425    200.20537      46.7237      46.7237      46.7237           90           90           90     102002.7   -578.73058 
  974000       973496   -6463.3864    666.84976   -7130.2361    4439.2362   -11569.472    129.01631   -1020.4796   -606.42105   -679.21084   -182.09247    142.08665   -236.29269      46.7237      46.7237      46.7237           90           90           90     102002.7   -768.70382 
  975000       974496   -6464.7536    675.75931   -7140.5129    4421.4172    -11561.93    130.74005    -1181.318   -726.16354   -501.84229    -113.7857    108.55346   -203.83915      46.7237      46.7237      46.7237           90           90           90     102002.7   -803.10795 
  976000       975496   -6447.7735    693.17382   -7140.9473     4422.596   -11563.543    134.10926   -478.83303   -950.08545   -1001.7154    48.009184    155.19176   -168.22522      46.7237      46.7237      46.7237           90           90           90     102002.7    -810.2113 
  977000       976496   -6481.7676    658.86604   -7140.6336    4421.6973   -11562.331    127.47168   -620.75506   -526.72399   -602.79791    -138.1161    335.71165    215.36449      46.7237      46.7237      46.7237           90           90           90     102002.7   -583.42565 
  978000       977496   -6461.4688    689.10582   -7150.5746    4398.3377   -11548.912    133.32222   -700.76891   -404.20986   -458.36967   -18.688967    -44.08886   -106.19093      46.7237      46.7237      46.7237           90           90           90     102002.7   -521.11615 
  979000       978496   -6489.1881    654.44665   -7143.6347     4407.044   -11550.679    126.61666   -978.78567   -440.01707   -632.63246   -77.108839    79.087818    150.82863      46.7237      46.7237      46.7237           90           90           90     102002.7   -683.81173 
  980000       979496   -6458.2545     670.8454   -7129.0999    4418.0506    -11547.15    129.78935   -301.19269   -1242.7431   -503.23929   -3.0772551    139.41543    68.813486      46.7237      46.7237      46.7237           90           90           90     102002.7    -682.3917 
  981000       980496   -6467.9628    669.98597   -7137.9488    4401.4747   -11539.424    129.62307   -694.10498   -531.06587   -593.67839   -170.27422    39.566851   -220.82076      46.7237      46.7237      46.7237           90           90           90     102002.7   -606.28308 
  982000       981496    -6420.444    680.59666   -7101.0407    4461.4265   -11562.467    131.67594   -1221.1354   -678.01993   -590.30505   -109.29388   -36.861206     -125.992      46.7237      46.7237      46.7237           90           90           90     102002.7   -829.82013 
  983000       982496    -6462.703    670.41903   -7133.1221     4422.529   -11555.651    129.70686   -429.26937   -820.17692    -698.7857    466.94363    51.975342   -37.833731      46.7237      46.7237      46.7237           90           90           90     102002.7   -649.41066 
  984000       983496   -6428.1799    697.90141   -7126.0813    4429.5497   -11555.631    135.02391   -954.58284    -844.1076   -789.52235    109.21999    264.48141    -180.7311      46.7237      46.7237      46.7237           90           90           90     102002.7    -862.7376 
  985000       984496   -6441.3924    689.49666   -7130.8891    4435.2238   -11566.113    133.39783   -966.48403    -1111.208    -1155.506   -1.8847455    57.419555    -82.86596      46.7237      46.7237      46.7237           90           90           90     102002.7   -1077.7327 
  986000       985496   -6484.8312    655.36812   -7140.1993    4422.5115   -11562.711    126.79494   -636.83691   -1332.6055   -671.79629    169.16839   -239.80325    50.662684      46.7237      46.7237      46.7237           90           90           90     102002.7   -880.41289 
  987000       986496   -6458.0341    665.33709   -7123.3712     4426.972   -11550.343    128.72365   -867.67214   -971.27557    -1062.894    299.97511   -106.38181     -101.488      46.7237      46.7237      46.7237           90           90           90     102002.7   -967.28057 
  988000       987496   -6493.5726    677.01011   -7170.5827    4391.8602   -11562.443    130.98204   -854.66149   -1028.8136   -285.25477    143.72971    228.40258   -440.87969      46.7237      46.7237      46.7237           90           90           90     102002.7   -722.90995 
  989000       988496   -6474.5877    669.07207   -7143.6598     4428.139   -11571.799    129.44626   -888.18444   -1391.0472   -832.86527    239.25748    35.678369   -26.995734      46.7237      46.7237      46.7237           90           90           90     102002.7   -1037.3656 
  990000       989496   -6415.7865    705.82393   -7121.6104    4430.4868   -11552.097    136.55669   -444.24117   -779.80234    -532.1562    74.478994   -38.051631   -80.265396      46.7237      46.7237      46.7237           90           90           90     102002.7    -585.3999 
  991000       990496   -6455.7305    680.59702   -7136.3275     4433.685   -11570.012    131.67601   -1400.3451   -1173.0377   -651.25868   -50.349768   -357.48137     142.6254      46.7237      46.7237      46.7237           90           90           90     102002.7   -1074.8805 
  992000       991496   -6469.8949    665.08365   -7134.9786    4427.6747   -11562.653    128.67462   -723.15208   -1004.6705    -995.9238   -64.062434     125.3427    114.49315      46.7237      46.7237      46.7237           90           90           90     102002.7   -907.91547 
  993000       992496   -6437.7454    679.55904   -7117.3045    4463.0915   -11580.396    131.47519   -1005.4863   -740.86808   -958.02369    -89.71184   -120.81205    64.704162      46.7237      46.7237      46.7237           90           90           90     102002.7   -901.45937 
  994000       993496   -6464.9066     664.3083   -7129.2149    4420.8539   -11550.069    128.52461   -633.29012   -846.45129   -1031.7436    52.277751    80.612078   -155.63767      46.7237      46.7237      46.7237           90           90           90     102002.7   -837.16167 
  995000       994496   -6422.7981     709.8762   -7132.6743    4429.0969   -11561.771    137.34069   -706.40839   -890.26203   -1074.9827   -31.722197    35.280507    10.645577      46.7237      46.7237      46.7237           90           90           90     102002.7   -890.55102 
  996000       995496   -6484.9644    659.41283   -7144.3772    4397.0486   -11541.426    127.57747   -496.17336   -1321.3012    -762.7193   -51.548292    196.19129   -281.57294      46.7237      46.7237      46.7237           90           90           90     102002.7   -860.06462 
  997000       996496    -6461.882    685.81599    -7147.698    4412.5178   -11560.216    132.68573   -1058.2684   -989.28208   -579.04857   -214.96925   -271.93159    513.34567      46.7237      46.7237      46.7237           90           90           90     102002.7   -875.53303 
  998000       997496   -6476.6924    663.77276   -7140.4652    4406.2664   -11546.732    128.42099   -528.37997   -464.75987   -401.50095    71.255132    57.499029   -325.46267      46.7237      46.7237      46.7237           90           90           90     102002.7   -464.88026 
  999000       998496    -6472.087    689.41255   -7161.4996    4375.7894   -11537.289    133.38156    -777.6145   -650.90556   -555.59721   -145.73273    259.68614   -166.12321      46.7237      46.7237      46.7237           90           90           90     102002.7   -661.37242 
 1000000       999496   -6470.3688    670.70465   -7141.0734    4424.5391   -11565.613    129.76212   -699.80503   -765.17462   -690.13348   -59.545672   -319.80666   -151.28851      46.7237      46.7237      46.7237           90           90           90     102002.7   -718.37104 
 1000504      1000000   -6444.7108    682.23196   -7126.9428    4434.4222   -11561.365    131.99232   -779.62454    -953.3027   -916.09612   -42.288875    -182.4893    62.066031      46.7237      46.7237      46.7237           90           90           90     102002.7   -883.00779 
Loop time of 1390.84 on 16 procs for 500000 steps with 1735 atoms

Performance: 31.060 ns/day, 0.773 hours/ns, 359.495 timesteps/s
99.8% CPU use with 16 MPI tasks x no OpenMP threads

MPI task timing breakdown:
Section |  min time  |  avg time  |  max time  |%varavg| %total
---------------------------------------------------------------
Pair    | 604.23     | 769.88     | 918.16     | 362.7 | 55.35
Bond    | 168.25     | 183.12     | 198.89     |  87.7 | 13.17
Neigh   | 4.0938     | 4.1056     | 4.1176     |   0.4 |  0.30
Comm    | 266.72     | 405.94     | 562.51     | 454.2 | 29.19
Output  | 0.096637   | 0.10148    | 0.10192    |   0.4 |  0.01
Modify  | 20.993     | 22.457     | 23.172     |  17.8 |  1.61
Other   |            | 5.231      |            |       |  0.38

Nlocal:    108.438 ave 137 max 71 min
Histogram: 1 0 0 2 3 4 2 0 2 2
Nghost:    2204.44 ave 2237 max 2178 min
Histogram: 2 1 2 1 3 1 4 1 0 1
Neighs:    11447.8 ave 17802 max 7686 min
Histogram: 1 4 1 4 2 1 1 1 0 1

Total # of neighbors = 183164
Ave neighs/atom = 105.57
Ave special neighs/atom = 6.63977
Neighbor list builds = 3586
Dangerous builds = 0
Total wall time: 0:44:36
