LAMMPS (30 Mar 2018)
Reading data file ...
  orthogonal box = (0 0 0) to (46.7237 46.7237 46.7237)
  2 by 2 by 4 MPI processor grid
  reading atoms ...
  1746 atoms
  scanning bonds ...
  5 = max bonds/atom
  scanning angles ...
  10 = max angles/atom
  scanning dihedrals ...
  32 = max dihedrals/atom
  scanning impropers ...
  3 = max impropers/atom
  reading bonds ...
  2064 bonds
  reading angles ...
  3696 angles
  reading dihedrals ...
  6240 dihedrals
  reading impropers ...
  1008 impropers
Finding 1-2 1-3 1-4 neighbors ...
  special bond factors lj:   0          0          0         
  special bond factors coul: 0          0          0         
  5 = max # of 1-2 neighbors
  8 = max # of 1-3 neighbors
  20 = max # of 1-4 neighbors
  19 = max # of special neighbors
Finding 1-2 1-3 1-4 neighbors ...
  special bond factors lj:   0          0          1         
  special bond factors coul: 1          1          1         
  5 = max # of 1-2 neighbors
  8 = max # of 1-3 neighbors
  19 = max # of special neighbors
WARNING: Using 'neigh_modify every 1 delay 0 check yes' setting during minimization (../min.cpp:168)
Neighbor list info ...
  update every 1 steps, delay 0 steps, check yes
  max neighbors/atom: 2000, page size: 100000
  master list distance cutoff = 16
  ghost atom cutoff = 16
  binsize = 8, bins = 6 6 6
  3 neighbor lists, perpetual/occasional/extra = 3 0 0
  (1) pair buck6d/coul/gauss/dsf, perpetual, skip from (3)
      attributes: half, newton on
      pair build: skip
      stencil: none
      bin: none
  (2) pair lj/cut, perpetual, skip from (3)
      attributes: half, newton on
      pair build: skip
      stencil: none
      bin: none
  (3) neighbor class addition, perpetual
      attributes: half, newton on
      pair build: half/bin/newton
      stencil: half/bin/3d/newton
      bin: standard
Setting up cg style minimization ...
  Unit style    : real
  Current step  : 0
WARNING: Inconsistent image flags (../domain.cpp:786)
Per MPI rank memory allocation (min/avg/max) = 22.89 | 23.35 | 23.79 Mbytes
Step Temp E_pair E_mol TotEng Press 
       0            0   -11561.087    6482.8914   -5078.1958    6265.5099 
     508            0   -11592.065     3739.212   -7852.8527   -500.18926 
Loop time of 2.76782 on 16 procs for 508 steps with 1746 atoms

99.8% CPU use with 16 MPI tasks x no OpenMP threads

Minimization stats:
  Stopping criterion = max force evaluations
  Energy initial, next-to-last, final = 
        -5078.19581733     -7852.83710807     -7852.85272479
  Force two-norm initial, final = 2576.88 5.77625
  Force max component initial, final = 151.967 1.38563
  Final line search alpha, max atom move = 0.00326004 0.00451721
  Iterations, force evaluations = 508 1001

MPI task timing breakdown:
Section |  min time  |  avg time  |  max time  |%varavg| %total
---------------------------------------------------------------
Pair    | 1.2579     | 1.5831     | 1.9834     |  19.1 | 57.20
Bond    | 0.31639    | 0.36227    | 0.40109    |   4.6 | 13.09
Neigh   | 0.016725   | 0.016813   | 0.016933   |   0.1 |  0.61
Comm    | 0.34072    | 0.76548    | 1.1207     |  27.4 | 27.66
Output  | 0          | 0          | 0          |   0.0 |  0.00
Modify  | 0          | 0          | 0          |   0.0 |  0.00
Other   |            | 0.04012    |            |       |  1.45

Nlocal:    109.125 ave 126 max 86 min
Histogram: 1 0 0 1 4 3 2 2 0 3
Nghost:    2201.62 ave 2224 max 2186 min
Histogram: 3 1 1 2 2 3 2 1 0 1
Neighs:    11440.4 ave 15028 max 7377 min
Histogram: 1 2 2 4 0 0 1 1 2 3

Total # of neighbors = 183047
Ave neighs/atom = 104.838
Ave special neighs/atom = 6.59794
Neighbor list builds = 14
Dangerous builds = 0
Neighbor list info ...
  update every 1 steps, delay 10 steps, check yes
  max neighbors/atom: 2000, page size: 100000
  master list distance cutoff = 16
  ghost atom cutoff = 16
  binsize = 8, bins = 6 6 6
  3 neighbor lists, perpetual/occasional/extra = 3 0 0
  (1) pair buck6d/coul/gauss/dsf, perpetual, skip from (3)
      attributes: half, newton on
      pair build: skip
      stencil: none
      bin: none
  (2) pair lj/cut, perpetual, skip from (3)
      attributes: half, newton on
      pair build: skip
      stencil: none
      bin: none
  (3) neighbor class addition, perpetual
      attributes: half, newton on
      pair build: half/bin/newton
      stencil: half/bin/3d/newton
      bin: standard
Setting up Verlet run ...
  Unit style    : real
  Current step  : 508
  Time step     : 1
WARNING: Inconsistent image flags (../domain.cpp:786)
Per MPI rank memory allocation (min/avg/max) = 22.54 | 22.64 | 22.88 Mbytes
Step Temp PotEng TotEng Press Volume Lx Ly Lz 
     508          130   -7852.8527    -7176.656   -197.15324     102002.7      46.7237      46.7237      46.7237 
    1000    110.65638    -7236.578   -6660.9973   -698.93578     102002.7      46.7237      46.7237      46.7237 
    2000    128.33763   -7131.4701   -6463.9201   -538.38457     102002.7      46.7237      46.7237      46.7237 
    3000    125.51353    -7163.294   -6510.4337   -749.50477     102002.7      46.7237      46.7237      46.7237 
    4000    127.42697   -7153.5201    -6490.707   -474.43909     102002.7      46.7237      46.7237      46.7237 
    5000    132.71465   -7167.1607   -6476.8437   -1066.8464     102002.7      46.7237      46.7237      46.7237 
    6000    129.37581   -7182.6878   -6509.7378   -1024.5051     102002.7      46.7237      46.7237      46.7237 
    7000    126.60196   -7155.1867   -6496.6649   -726.53845     102002.7      46.7237      46.7237      46.7237 
    8000    135.01662   -7172.8628    -6470.572   -716.46806     102002.7      46.7237      46.7237      46.7237 
    9000    125.64499   -7170.4375   -6516.8934   -993.71049     102002.7      46.7237      46.7237      46.7237 
   10000    127.67375   -7164.2371   -6500.1403    -429.8336     102002.7      46.7237      46.7237      46.7237 
   11000    132.38887   -7142.9939   -6454.3714   -717.75913     102002.7      46.7237      46.7237      46.7237 
   12000    130.03594   -7170.0874   -6493.7037   -722.18072     102002.7      46.7237      46.7237      46.7237 
   13000     132.1076   -7149.6345    -6462.475   -723.24571     102002.7      46.7237      46.7237      46.7237 
   14000    132.85026   -7164.7038   -6473.6814   -900.13902     102002.7      46.7237      46.7237      46.7237 
   15000    132.36094   -7167.9373   -6479.4601   -518.54325     102002.7      46.7237      46.7237      46.7237 
   16000    128.12244   -7168.8796    -6502.449     -790.628     102002.7      46.7237      46.7237      46.7237 
   17000    127.74838   -7141.5639    -6477.079   -628.91337     102002.7      46.7237      46.7237      46.7237 
   18000    132.80753   -7183.4775   -6492.6774   -429.06904     102002.7      46.7237      46.7237      46.7237 
   19000     125.5784   -7164.9309   -6511.7332   -922.95238     102002.7      46.7237      46.7237      46.7237 
   20000    131.87053   -7171.0922   -6485.1658   -796.59138     102002.7      46.7237      46.7237      46.7237 
   21000    128.29791   -7173.7837   -6506.4404   -987.33189     102002.7      46.7237      46.7237      46.7237 
   22000    129.86032   -7172.8099   -6497.3397   -935.72707     102002.7      46.7237      46.7237      46.7237 
   23000    128.10834   -7170.6901   -6504.3329   -1000.8138     102002.7      46.7237      46.7237      46.7237 
   24000    134.33983   -7149.5834   -6450.8129   -514.91513     102002.7      46.7237      46.7237      46.7237 
   25000    132.53496   -7183.1311   -6493.7487   -405.00512     102002.7      46.7237      46.7237      46.7237 
   26000    130.40087   -7139.2881   -6461.0062   -685.86826     102002.7      46.7237      46.7237      46.7237 
   27000    129.73903   -7152.0477   -6477.2084   -514.67134     102002.7      46.7237      46.7237      46.7237 
   28000    127.16122   -7159.5185   -6498.0877   -917.24337     102002.7      46.7237      46.7237      46.7237 
   29000    127.80772   -7166.9904   -6502.1968   -631.39083     102002.7      46.7237      46.7237      46.7237 
   30000    128.95498   -7158.3729   -6487.6119   -1152.0287     102002.7      46.7237      46.7237      46.7237 
   31000    132.99834   -7145.4688   -6453.6761    -594.4101     102002.7      46.7237      46.7237      46.7237 
   32000    128.21079   -7156.0403   -6489.1501   -955.65106     102002.7      46.7237      46.7237      46.7237 
   33000    129.51186   -7161.6059   -6487.9482   -651.66928     102002.7      46.7237      46.7237      46.7237 
   34000    128.42309   -7137.8245   -6469.8301   -457.72385     102002.7      46.7237      46.7237      46.7237 
   35000    135.78787    -7196.216   -6489.9135   -817.08435     102002.7      46.7237      46.7237      46.7237 
   36000    129.43727   -7149.3214   -6476.0517   -567.31939     102002.7      46.7237      46.7237      46.7237 
   37000    129.93786   -7159.2526    -6483.379   -656.06935     102002.7      46.7237      46.7237      46.7237 
   38000    128.96123   -7154.2125   -6483.4189   -407.36076     102002.7      46.7237      46.7237      46.7237 
   39000    132.04849   -7156.5715   -6469.7195   -605.76828     102002.7      46.7237      46.7237      46.7237 
   40000     130.5882   -7161.4801   -6482.2238   -670.60189     102002.7      46.7237      46.7237      46.7237 
   41000    130.52956   -7165.5335   -6486.5822   -857.07205     102002.7      46.7237      46.7237      46.7237 
   42000    127.19273   -7160.1998   -6498.6051   -977.10287     102002.7      46.7237      46.7237      46.7237 
   43000    132.82444   -7138.9825   -6448.0943   -418.12337     102002.7      46.7237      46.7237      46.7237 
   44000    127.71533   -7155.8443   -6491.5313   -652.85083     102002.7      46.7237      46.7237      46.7237 
   45000     134.2332   -7175.0883   -6476.8725   -587.08096     102002.7      46.7237      46.7237      46.7237 
   46000    130.92442   -7163.2512   -6482.2461   -671.28359     102002.7      46.7237      46.7237      46.7237 
   47000    132.10987   -7174.3924   -6487.2211   -655.16493     102002.7      46.7237      46.7237      46.7237 
   48000    126.16337   -7161.5877   -6505.3472   -575.41586     102002.7      46.7237      46.7237      46.7237 
   49000    128.44563   -7178.6733   -6510.5617   -480.60432     102002.7      46.7237      46.7237      46.7237 
   50000    129.96687   -7159.6804    -6483.656   -660.78465     102002.7      46.7237      46.7237      46.7237 
   51000    136.27532    -7167.568   -6458.7301   -730.24486     102002.7      46.7237      46.7237      46.7237 
   52000    128.25708   -7161.5722   -6494.4413   -892.71663     102002.7      46.7237      46.7237      46.7237 
   53000    133.87786   -7171.7062   -6475.3387   -993.86634     102002.7      46.7237      46.7237      46.7237 
   54000    130.56237   -7154.5862   -6475.4643    -1073.562     102002.7      46.7237      46.7237      46.7237 
   55000    129.69146    -7167.575   -6492.9832   -627.59264     102002.7      46.7237      46.7237      46.7237 
   56000    131.22469   -7173.5476   -6490.9806   -762.99895     102002.7      46.7237      46.7237      46.7237 
   57000    132.73358   -7161.5546   -6471.1391   -754.73509     102002.7      46.7237      46.7237      46.7237 
   58000    129.78843   -7164.5469   -6489.4506   -791.71391     102002.7      46.7237      46.7237      46.7237 
   59000    131.84713   -7153.4753   -6467.6707   -588.06758     102002.7      46.7237      46.7237      46.7237 
   60000    126.86447   -7160.9522   -6501.0649   -827.42183     102002.7      46.7237      46.7237      46.7237 
   61000    133.81641   -7149.3866   -6453.3388   -692.61738     102002.7      46.7237      46.7237      46.7237 
   62000    130.97486   -7161.2505   -6479.9829   -1027.4733     102002.7      46.7237      46.7237      46.7237 
   63000    131.72714   -7178.5561   -6493.3756   -810.59013     102002.7      46.7237      46.7237      46.7237 
   64000    130.12332   -7146.3816   -6469.5434   -578.31878     102002.7      46.7237      46.7237      46.7237 
   65000    129.85456   -7149.4989   -6474.0587   -956.10476     102002.7      46.7237      46.7237      46.7237 
   66000    132.75902   -7156.8999   -6466.3521   -698.72639     102002.7      46.7237      46.7237      46.7237 
   67000    128.85706   -7161.1887    -6490.937   -752.09175     102002.7      46.7237      46.7237      46.7237 
   68000     129.8056   -7159.0695   -6483.8839   -1129.8728     102002.7      46.7237      46.7237      46.7237 
   69000    132.72343   -7179.6879   -6489.3252   -818.80696     102002.7      46.7237      46.7237      46.7237 
   70000     125.4878   -7184.8239   -6532.0974   -754.50319     102002.7      46.7237      46.7237      46.7237 
   71000     131.2756   -7164.8341   -6482.0023   -756.12953     102002.7      46.7237      46.7237      46.7237 
   72000    129.69415   -7164.6747   -6490.0688   -1094.6726     102002.7      46.7237      46.7237      46.7237 
   73000    130.26129   -7188.3007   -6510.7448    -773.4803     102002.7      46.7237      46.7237      46.7237 
   74000    131.50311   -7169.4833   -6485.4681   -844.57783     102002.7      46.7237      46.7237      46.7237 
   75000     125.6836   -7190.4116   -6536.6666   -579.97177     102002.7      46.7237      46.7237      46.7237 
   76000    137.37414   -7127.1597   -6412.6063   -993.58474     102002.7      46.7237      46.7237      46.7237 
   77000    126.60229   -7158.9481   -6500.4246   -633.29558     102002.7      46.7237      46.7237      46.7237 
   78000    131.14491   -7148.7846   -6466.6326   -1040.4576     102002.7      46.7237      46.7237      46.7237 
   79000    128.67438   -7157.6313   -6488.3298   -860.52649     102002.7      46.7237      46.7237      46.7237 
   80000    130.81089   -7162.3344   -6481.9198   -564.99095     102002.7      46.7237      46.7237      46.7237 
   81000    130.44731   -7148.3953   -6469.8718    -1032.527     102002.7      46.7237      46.7237      46.7237 
   82000     127.7767   -7165.3646   -6500.7323   -582.25339     102002.7      46.7237      46.7237      46.7237 
   83000    132.73583   -7171.5383   -6481.1111   -790.88267     102002.7      46.7237      46.7237      46.7237 
   84000     127.0263   -7185.4427   -6524.7137   -961.30688     102002.7      46.7237      46.7237      46.7237 
   85000     132.7765    -7175.664   -6485.0253   -686.58412     102002.7      46.7237      46.7237      46.7237 
   86000    132.26912   -7145.1021   -6457.1025   -795.67299     102002.7      46.7237      46.7237      46.7237 
   87000     134.2729   -7168.0695   -6469.6472   -592.70468     102002.7      46.7237      46.7237      46.7237 
   88000    126.38504   -7159.7938   -6502.4003   -933.86208     102002.7      46.7237      46.7237      46.7237 
   89000    128.67561   -7169.2569    -6499.949   -637.44376     102002.7      46.7237      46.7237      46.7237 
   90000    127.82505   -7138.0689   -6473.1852   -932.52962     102002.7      46.7237      46.7237      46.7237 
   91000    129.34264   -7140.3011   -6467.5236    -785.2411     102002.7      46.7237      46.7237      46.7237 
   92000    129.08999   -7159.8314   -6488.3681   -642.00279     102002.7      46.7237      46.7237      46.7237 
   93000    131.01036   -7181.0726   -6499.6204    -702.3148     102002.7      46.7237      46.7237      46.7237 
   94000    128.96162   -7174.0971   -6503.3014   -674.69621     102002.7      46.7237      46.7237      46.7237 
   95000    131.69674   -7168.5238   -6483.5014   -750.56443     102002.7      46.7237      46.7237      46.7237 
   96000    127.44375   -7172.0105   -6509.1101    -907.9494     102002.7      46.7237      46.7237      46.7237 
   97000    131.30267   -7176.1968   -6493.2242   -775.58696     102002.7      46.7237      46.7237      46.7237 
   98000    126.05753   -7170.5825   -6514.8925   -604.16685     102002.7      46.7237      46.7237      46.7237 
   99000    126.25502   -7149.8965   -6493.1793   -875.91596     102002.7      46.7237      46.7237      46.7237 
  100000    127.46975   -7155.3458   -6492.3101    -796.9112     102002.7      46.7237      46.7237      46.7237 
  101000    132.86981     -7157.85   -6466.7259   -785.57482     102002.7      46.7237      46.7237      46.7237 
  102000    127.75666    -7161.223    -6496.695   -1045.9623     102002.7      46.7237      46.7237      46.7237 
  103000    131.28012   -7130.2623   -6447.4069   -427.77019     102002.7      46.7237      46.7237      46.7237 
  104000    129.38384   -7152.6316   -6479.6398   -565.88227     102002.7      46.7237      46.7237      46.7237 
  105000    124.25405   -7185.1609   -6538.8517   -539.53971     102002.7      46.7237      46.7237      46.7237 
  106000    131.99617   -7152.9974   -6466.4176   -511.94945     102002.7      46.7237      46.7237      46.7237 
  107000    126.34019   -7182.3244   -6525.1642   -779.12792     102002.7      46.7237      46.7237      46.7237 
  108000    130.81385   -7160.3077   -6479.8777   -802.43792     102002.7      46.7237      46.7237      46.7237 
  109000     127.8752   -7159.6063   -6494.4617   -834.14008     102002.7      46.7237      46.7237      46.7237 
  110000    132.20265   -7161.5643   -6473.9105   -1060.3052     102002.7      46.7237      46.7237      46.7237 
  111000    130.39333   -7173.4834   -6495.2407   -536.83793     102002.7      46.7237      46.7237      46.7237 
  112000    131.56889   -7158.1691   -6473.8118   -850.26643     102002.7      46.7237      46.7237      46.7237 
  113000    132.45012   -7167.7184   -6478.7773   -510.23603     102002.7      46.7237      46.7237      46.7237 
  114000    131.80186   -7174.0903   -6488.5212   -553.99169     102002.7      46.7237      46.7237      46.7237 
  115000    132.61896   -7149.3779   -6459.5586    -602.6699     102002.7      46.7237      46.7237      46.7237 
  116000    131.81072   -7175.7621   -6490.1468   -769.03455     102002.7      46.7237      46.7237      46.7237 
  117000    132.92845   -7178.4682    -6487.039   -625.16487     102002.7      46.7237      46.7237      46.7237 
  118000    126.97503   -7165.3954    -6504.933   -734.14265     102002.7      46.7237      46.7237      46.7237 
  119000    130.54306   -7157.8657   -6478.8442   -710.54047     102002.7      46.7237      46.7237      46.7237 
  120000     131.8258   -7163.6434   -6477.9497   -455.28739     102002.7      46.7237      46.7237      46.7237 
  121000    126.85814   -7147.4877   -6487.6334   -785.24458     102002.7      46.7237      46.7237      46.7237 
  122000    128.55597   -7182.3929   -6513.7073   -752.57328     102002.7      46.7237      46.7237      46.7237 
  123000    137.01624   -7188.8218     -6476.13   -674.38545     102002.7      46.7237      46.7237      46.7237 
  124000    129.38916   -7162.6606   -6489.6411   -507.67179     102002.7      46.7237      46.7237      46.7237 
  125000    130.04419   -7181.5663   -6505.1397   -384.95018     102002.7      46.7237      46.7237      46.7237 
  126000    127.63608   -7167.3527   -6503.4519   -243.57811     102002.7      46.7237      46.7237      46.7237 
  127000    133.28477   -7154.3489   -6461.0664   -662.66106     102002.7      46.7237      46.7237      46.7237 
  128000    129.51029   -7170.5088   -6496.8593   -622.66011     102002.7      46.7237      46.7237      46.7237 
  129000    130.84296   -7163.3612   -6482.7798   -711.40201     102002.7      46.7237      46.7237      46.7237 
  130000    132.32536   -7168.7112    -6480.419   -1034.5855     102002.7      46.7237      46.7237      46.7237 
  131000    129.45484   -7172.9259   -6499.5648   -880.88559     102002.7      46.7237      46.7237      46.7237 
  132000    130.71627   -7146.7065    -6466.784   -465.16056     102002.7      46.7237      46.7237      46.7237 
  133000    130.12097   -7175.4828   -6498.6568   -921.97666     102002.7      46.7237      46.7237      46.7237 
  134000    129.35718   -7149.5109   -6476.6578   -527.48962     102002.7      46.7237      46.7237      46.7237 
  135000    126.98526   -7147.1705    -6486.655   -800.54079     102002.7      46.7237      46.7237      46.7237 
  136000    131.99529   -7146.0025   -6459.4272   -976.37702     102002.7      46.7237      46.7237      46.7237 
  137000    131.61587   -7173.7289   -6489.1271    -911.7086     102002.7      46.7237      46.7237      46.7237 
  138000    129.83756   -7152.0695   -6476.7177   -1271.0692     102002.7      46.7237      46.7237      46.7237 
  139000    130.27423   -7179.3735   -6501.7504   -862.15588     102002.7      46.7237      46.7237      46.7237 
  140000     125.3587   -7158.6479   -6506.5929   -730.54881     102002.7      46.7237      46.7237      46.7237 
  141000    132.26031   -7166.2208    -6478.267     -936.053     102002.7      46.7237      46.7237      46.7237 
  142000    127.30343   -7155.6811   -6493.5106   -734.39844     102002.7      46.7237      46.7237      46.7237 
  143000    132.28897   -7196.7941   -6508.6913   -775.29705     102002.7      46.7237      46.7237      46.7237 
  144000    133.95368   -7160.8491   -6464.0872   -818.35616     102002.7      46.7237      46.7237      46.7237 
  145000    124.86384   -7155.0684   -6505.5874   -623.13489     102002.7      46.7237      46.7237      46.7237 
  146000    128.66841   -7162.1448   -6492.8744   -796.26738     102002.7      46.7237      46.7237      46.7237 
  147000    131.74591    -7155.621   -6470.3428   -867.28855     102002.7      46.7237      46.7237      46.7237 
  148000     124.3349   -7140.4197     -6493.69   -443.91996     102002.7      46.7237      46.7237      46.7237 
  149000    131.53324   -7174.4747   -6490.3027   -985.85675     102002.7      46.7237      46.7237      46.7237 
  150000    129.84143   -7132.9856   -6457.6136   -633.69664     102002.7      46.7237      46.7237      46.7237 
  151000     130.6532   -7171.3347   -6491.7404   -862.50121     102002.7      46.7237      46.7237      46.7237 
  152000    126.34658   -7174.5717   -6517.3783   -947.80956     102002.7      46.7237      46.7237      46.7237 
  153000    130.09315   -7174.4051   -6497.7239   -1070.0737     102002.7      46.7237      46.7237      46.7237 
  154000    134.96822    -7163.316   -6461.2769    -730.8289     102002.7      46.7237      46.7237      46.7237 
  155000    130.39747   -7172.8005   -6494.5363   -927.15787     102002.7      46.7237      46.7237      46.7237 
  156000    130.79673   -7155.1694   -6474.8284   -657.60974     102002.7      46.7237      46.7237      46.7237 
  157000    130.22117   -7179.5279   -6502.1807   -881.76246     102002.7      46.7237      46.7237      46.7237 
  158000    132.09631   -7144.6042   -6457.5035   -967.04848     102002.7      46.7237      46.7237      46.7237 
  159000    132.57756   -7157.8763   -6468.2723   -717.16984     102002.7      46.7237      46.7237      46.7237 
  160000    126.13571   -7140.3754   -6484.2788   -915.75475     102002.7      46.7237      46.7237      46.7237 
  161000    133.05429   -7143.4086    -6451.325   -666.88507     102002.7      46.7237      46.7237      46.7237 
  162000    127.66427   -7167.3112   -6503.2638    -699.4784     102002.7      46.7237      46.7237      46.7237 
  163000    136.42258   -7156.2118   -6446.6079   -484.33133     102002.7      46.7237      46.7237      46.7237 
  164000    128.93242   -7147.4066   -6476.7628   -696.16155     102002.7      46.7237      46.7237      46.7237 
  165000    127.47846   -7161.8918   -6498.8108   -436.32043     102002.7      46.7237      46.7237      46.7237 
  166000    135.06959   -7136.1599   -6433.5936    -674.2666     102002.7      46.7237      46.7237      46.7237 
  167000    130.04357   -7171.1322   -6494.7089   -745.52159     102002.7      46.7237      46.7237      46.7237 
  168000    127.64686    -7171.456   -6507.4992   -675.27457     102002.7      46.7237      46.7237      46.7237 
  169000    124.98441   -7154.0111    -6503.903   -786.04657     102002.7      46.7237      46.7237      46.7237 
  170000    134.00261   -7180.7594    -6483.743    -414.2524     102002.7      46.7237      46.7237      46.7237 
  171000    125.19844    -7189.593   -6538.3716    -922.0513     102002.7      46.7237      46.7237      46.7237 
  172000     134.4889   -7166.4333   -6466.8875   -378.82458     102002.7      46.7237      46.7237      46.7237 
  173000    130.13268   -7181.6897   -6504.8029   -519.18369     102002.7      46.7237      46.7237      46.7237 
  174000    134.11047   -7164.3139   -6466.7365   -606.94782     102002.7      46.7237      46.7237      46.7237 
  175000    132.86028     -7169.71   -6478.6354   -661.78061     102002.7      46.7237      46.7237      46.7237 
  176000    126.17774   -7171.0489   -6514.7337   -460.36528     102002.7      46.7237      46.7237      46.7237 
  177000    130.78919   -7173.4812   -6493.1795   -649.84129     102002.7      46.7237      46.7237      46.7237 
  178000    131.52073   -7160.8114   -6476.7045   -656.27646     102002.7      46.7237      46.7237      46.7237 
  179000    127.59133   -7169.1182   -6505.4502   -520.69648     102002.7      46.7237      46.7237      46.7237 
  180000    129.67202   -7182.7691   -6508.2783   -684.92501     102002.7      46.7237      46.7237      46.7237 
  181000    132.69296   -7166.6595   -6476.4553   -500.94661     102002.7      46.7237      46.7237      46.7237 
  182000    130.50045   -7201.5279    -6522.728   -606.55356     102002.7      46.7237      46.7237      46.7237 
  183000    130.85533   -7180.1819   -6499.5361   -640.87522     102002.7      46.7237      46.7237      46.7237 
  184000    134.28994   -7157.6853   -6459.1744   -718.13639     102002.7      46.7237      46.7237      46.7237 
  185000     132.2433   -7176.1275   -6488.2622   -953.29856     102002.7      46.7237      46.7237      46.7237 
  186000    133.89981   -7188.6607   -6492.1791   -867.69057     102002.7      46.7237      46.7237      46.7237 
  187000    128.85938   -7166.3482   -6496.0844   -813.66731     102002.7      46.7237      46.7237      46.7237 
  188000    126.46613   -7158.8285   -6501.0132   -663.84744     102002.7      46.7237      46.7237      46.7237 
  189000    128.69529   -7152.7309   -6483.3206   -882.51824     102002.7      46.7237      46.7237      46.7237 
  190000    127.95099   -7187.9516   -6522.4128   -735.28441     102002.7      46.7237      46.7237      46.7237 
  191000    128.33044   -7167.8435    -6500.331   -486.72765     102002.7      46.7237      46.7237      46.7237 
  192000    133.32577   -7153.0094   -6459.5136   -781.11985     102002.7      46.7237      46.7237      46.7237 
  193000    124.75097   -7142.6848   -6493.7909   -651.62054     102002.7      46.7237      46.7237      46.7237 
  194000     130.4873   -7140.7555    -6462.024   -795.47266     102002.7      46.7237      46.7237      46.7237 
  195000    126.87619   -7166.7284   -6506.7802   -827.90834     102002.7      46.7237      46.7237      46.7237 
  196000    130.91738   -7158.7123   -6477.7438   -912.79457     102002.7      46.7237      46.7237      46.7237 
  197000    128.23165   -7182.9023   -6515.9037   -773.58153     102002.7      46.7237      46.7237      46.7237 
  198000    128.20981   -7164.1871    -6497.302    -808.7889     102002.7      46.7237      46.7237      46.7237 
  199000    129.08005   -7155.2734   -6483.8618   -550.00221     102002.7      46.7237      46.7237      46.7237 
  200000    126.99984   -7175.4439   -6514.8525   -649.15858     102002.7      46.7237      46.7237      46.7237 
  201000    130.32546   -7173.7382   -6495.8486   -641.10976     102002.7      46.7237      46.7237      46.7237 
  202000    128.20613   -7187.1087   -6520.2428   -925.20663     102002.7      46.7237      46.7237      46.7237 
  203000    132.93944   -7167.9777   -6476.4914   -465.61415     102002.7      46.7237      46.7237      46.7237 
  204000     129.2601   -7152.3616   -6480.0134   -605.17067     102002.7      46.7237      46.7237      46.7237 
  205000    126.48055   -7169.8765   -6511.9862   -385.70345     102002.7      46.7237      46.7237      46.7237 
  206000    127.37034   -7135.5344   -6473.0158   -332.60566     102002.7      46.7237      46.7237      46.7237 
  207000    130.18496   -7175.4873   -6498.3285   -547.49439     102002.7      46.7237      46.7237      46.7237 
  208000    129.80393   -7136.5666   -6461.3897   -340.24348     102002.7      46.7237      46.7237      46.7237 
  209000    133.47308   -7160.4931    -6466.231   -758.33212     102002.7      46.7237      46.7237      46.7237 
  210000    129.75906   -7186.9957   -6512.0522   -924.36213     102002.7      46.7237      46.7237      46.7237 
  211000    127.89816   -7161.6541   -6496.3901   -1099.4892     102002.7      46.7237      46.7237      46.7237 
  212000    126.22099   -7182.2678   -6525.7276   -643.73461     102002.7      46.7237      46.7237      46.7237 
  213000    131.96159   -7165.0741   -6478.6741   -988.68839     102002.7      46.7237      46.7237      46.7237 
  214000    127.76112   -7145.1142    -6480.563   -821.59307     102002.7      46.7237      46.7237      46.7237 
  215000    132.31071   -7163.8993   -6475.6834   -806.88594     102002.7      46.7237      46.7237      46.7237 
  216000     129.7263   -7170.4539   -6495.6808   -767.03337     102002.7      46.7237      46.7237      46.7237 
  217000    126.61846   -7148.9885   -6490.3809   -959.40856     102002.7      46.7237      46.7237      46.7237 
  218000    125.85291    -7182.011   -6527.3853   -528.75218     102002.7      46.7237      46.7237      46.7237 
  219000    126.46475   -7162.8992    -6505.091   -690.98704     102002.7      46.7237      46.7237      46.7237 
  220000    128.46351   -7154.9872   -6486.7825   -816.49308     102002.7      46.7237      46.7237      46.7237 
  221000    130.46804   -7145.3367   -6466.7055   -612.03064     102002.7      46.7237      46.7237      46.7237 
  222000     129.5529   -7167.6588   -6493.7876   -982.55615     102002.7      46.7237      46.7237      46.7237 
  223000    132.03556   -7158.6428    -6471.858   -852.41523     102002.7      46.7237      46.7237      46.7237 
  224000     125.9855   -7177.9588   -6522.6435   -925.56758     102002.7      46.7237      46.7237      46.7237 
  225000     129.0598   -7156.6193    -6485.313   -991.97978     102002.7      46.7237      46.7237      46.7237 
  226000    128.02121   -7159.8457   -6493.9417   -1079.0423     102002.7      46.7237      46.7237      46.7237 
  227000    130.81488   -7175.2358   -6494.8004   -652.28233     102002.7      46.7237      46.7237      46.7237 
  228000    132.06589   -7145.5961   -6458.6535   -706.44548     102002.7      46.7237      46.7237      46.7237 
  229000     130.4212   -7172.9761   -6494.5885   -510.30725     102002.7      46.7237      46.7237      46.7237 
  230000    125.90873   -7149.9708   -6495.0549   -772.24749     102002.7      46.7237      46.7237      46.7237 
  231000    127.59856   -7139.2914   -6475.5858   -951.55831     102002.7      46.7237      46.7237      46.7237 
  232000    128.43449   -7180.5855   -6512.5318   -444.30133     102002.7      46.7237      46.7237      46.7237 
  233000    131.85427   -7163.6346   -6477.7928   -940.51427     102002.7      46.7237      46.7237      46.7237 
  234000    127.38842   -7168.7556    -6506.143   -471.64017     102002.7      46.7237      46.7237      46.7237 
  235000    132.25537   -7169.3274   -6481.3993   -609.20341     102002.7      46.7237      46.7237      46.7237 
  236000    132.62492   -7186.5694   -6496.7191   -761.97359     102002.7      46.7237      46.7237      46.7237 
  237000     128.2858   -7174.3101   -6507.0297   -766.06983     102002.7      46.7237      46.7237      46.7237 
  238000    133.61204   -7184.4877   -6489.5029    -959.7075     102002.7      46.7237      46.7237      46.7237 
  239000    128.60107   -7153.1868   -6484.2666   -474.30341     102002.7      46.7237      46.7237      46.7237 
  240000    125.85013   -7169.1378   -6514.5267   -696.91132     102002.7      46.7237      46.7237      46.7237 
  241000    132.84307   -7157.4521   -6466.4671   -513.33725     102002.7      46.7237      46.7237      46.7237 
  242000    130.57471   -7184.7149   -6505.5288   -560.49736     102002.7      46.7237      46.7237      46.7237 
  243000    131.33155   -7180.7718   -6497.6489   -474.67353     102002.7      46.7237      46.7237      46.7237 
  244000    134.18843   -7151.4897   -6453.5067   -442.75918     102002.7      46.7237      46.7237      46.7237 
  245000    129.42251   -7160.2925   -6487.0996   -426.11217     102002.7      46.7237      46.7237      46.7237 
  246000    132.25325   -7163.2968   -6475.3798   -513.04035     102002.7      46.7237      46.7237      46.7237 
  247000     131.6449    -7170.768   -6486.0153   -909.33798     102002.7      46.7237      46.7237      46.7237 
  248000    129.60494   -7151.9596   -6477.8177   -465.03434     102002.7      46.7237      46.7237      46.7237 
  249000    126.32288   -7155.1929   -6498.1227   -549.53402     102002.7      46.7237      46.7237      46.7237 
  250000    127.85861    -7166.992   -6501.9337   -1029.7931     102002.7      46.7237      46.7237      46.7237 
  251000    130.21282   -7158.9979   -6481.6942   -481.60066     102002.7      46.7237      46.7237      46.7237 
  252000     130.8446   -7157.5174   -6476.9275   -823.29953     102002.7      46.7237      46.7237      46.7237 
  253000     128.4669   -7174.8324   -6506.6101   -619.23159     102002.7      46.7237      46.7237      46.7237 
  254000    134.00127   -7163.4982   -6466.4888   -867.11084     102002.7      46.7237      46.7237      46.7237 
  255000     127.2523   -7147.8743   -6485.9698   -771.65355     102002.7      46.7237      46.7237      46.7237 
  256000    133.03532   -7145.9864   -6454.0014   -777.69264     102002.7      46.7237      46.7237      46.7237 
  257000    129.69846   -7165.0972   -6490.4689   -1015.2333     102002.7      46.7237      46.7237      46.7237 
  258000    129.96053   -7139.7476   -6463.7561   -771.12759     102002.7      46.7237      46.7237      46.7237 
  259000    129.89064   -7166.3593   -6490.7314    -601.2593     102002.7      46.7237      46.7237      46.7237 
  260000     124.2044   -7145.2957   -6499.2448   -1071.1269     102002.7      46.7237      46.7237      46.7237 
  261000    130.02237   -7165.9251   -6489.6119   -969.83338     102002.7      46.7237      46.7237      46.7237 
  262000    133.68253   -7145.1716   -6449.8201   -697.21397     102002.7      46.7237      46.7237      46.7237 
  263000    128.00005   -7178.8473   -6513.0533   -587.78075     102002.7      46.7237      46.7237      46.7237 
  264000    130.41451   -7179.8307   -6501.4779    -710.9382     102002.7      46.7237      46.7237      46.7237 
  265000    132.91696   -7175.6125   -6484.2431   -769.95454     102002.7      46.7237      46.7237      46.7237 
  266000     130.2066   -7159.8061   -6482.5347   -694.10759     102002.7      46.7237      46.7237      46.7237 
  267000    128.56498   -7167.6534   -6498.9209   -676.39273     102002.7      46.7237      46.7237      46.7237 
  268000    129.59014   -7133.8119    -6459.747   -693.07711     102002.7      46.7237      46.7237      46.7237 
  269000     129.1548   -7171.4938   -6499.6934   -675.80972     102002.7      46.7237      46.7237      46.7237 
  270000    129.50416   -7168.2314   -6494.6138   -576.06851     102002.7      46.7237      46.7237      46.7237 
  271000    130.34657   -7161.9404    -6483.941   -836.49951     102002.7      46.7237      46.7237      46.7237 
  272000    128.56921   -7172.9548   -6504.2003   -653.00495     102002.7      46.7237      46.7237      46.7237 
  273000    130.25199   -7175.1457   -6497.6382   -696.36298     102002.7      46.7237      46.7237      46.7237 
  274000    132.38574   -7150.4771   -6461.8709   -905.94431     102002.7      46.7237      46.7237      46.7237 
  275000    130.65008   -7161.6795   -6482.1014    -554.1227     102002.7      46.7237      46.7237      46.7237 
  276000    133.02155    -7153.633   -6461.7196   -526.89613     102002.7      46.7237      46.7237      46.7237 
  277000    129.12469   -7154.3978    -6482.754   -559.96392     102002.7      46.7237      46.7237      46.7237 
  278000    127.30015   -7181.0743   -6518.9209   -628.22186     102002.7      46.7237      46.7237      46.7237 
  279000    128.12456   -7163.9535   -6497.5119   -735.22197     102002.7      46.7237      46.7237      46.7237 
  280000    132.99875   -7152.9526   -6461.1578   -780.23033     102002.7      46.7237      46.7237      46.7237 
  281000    129.97432   -7159.9303   -6483.8671   -853.38138     102002.7      46.7237      46.7237      46.7237 
  282000    128.38947   -7162.2983   -6494.4787    -488.1176     102002.7      46.7237      46.7237      46.7237 
  283000    127.16974   -7146.9485   -6485.4733   -869.66548     102002.7      46.7237      46.7237      46.7237 
  284000    133.45246   -7166.9853   -6472.8306   -754.42588     102002.7      46.7237      46.7237      46.7237 
  285000    131.81821   -7185.7227   -6500.0684     -677.157     102002.7      46.7237      46.7237      46.7237 
  286000    124.50116   -7150.8789   -6503.2844    -749.9496     102002.7      46.7237      46.7237      46.7237 
  287000    134.39555   -7131.0526   -6431.9924   -713.91721     102002.7      46.7237      46.7237      46.7237 
  288000    129.39913   -7159.2627   -6486.1914   -786.52537     102002.7      46.7237      46.7237      46.7237 
  289000    128.77225   -7164.5675   -6494.7569   -583.73801     102002.7      46.7237      46.7237      46.7237 
  290000    132.32115   -7174.7651   -6486.4948   -830.49043     102002.7      46.7237      46.7237      46.7237 
  291000    130.68878   -7135.1078   -6455.3283   -879.43346     102002.7      46.7237      46.7237      46.7237 
  292000    131.80143   -7174.0245   -6488.4575    -895.9014     102002.7      46.7237      46.7237      46.7237 
  293000    132.49423   -7157.2527   -6468.0822   -986.26214     102002.7      46.7237      46.7237      46.7237 
  294000    131.98652   -7189.9346   -6503.4049   -616.46185     102002.7      46.7237      46.7237      46.7237 
  295000    129.84685   -7158.4102   -6483.0101   -699.75159     102002.7      46.7237      46.7237      46.7237 
  296000    128.14123    -7156.424   -6489.8957   -979.55963     102002.7      46.7237      46.7237      46.7237 
  297000    129.37496    -7153.605   -6480.6594   -548.46955     102002.7      46.7237      46.7237      46.7237 
  298000    125.52851   -7184.0076   -6531.0694   -888.01315     102002.7      46.7237      46.7237      46.7237 
  299000    132.23875   -7165.3712   -6477.5296   -468.32834     102002.7      46.7237      46.7237      46.7237 
  300000    128.87908   -7186.0139   -6515.6475   -436.37166     102002.7      46.7237      46.7237      46.7237 
  301000    126.45204   -7153.1423   -6495.4003    -709.5787     102002.7      46.7237      46.7237      46.7237 
  302000    128.10555   -7155.7356   -6489.3929   -612.85295     102002.7      46.7237      46.7237      46.7237 
  303000    131.01665   -7156.8424   -6475.3576   -701.05977     102002.7      46.7237      46.7237      46.7237 
  304000    128.47908   -7168.1889   -6499.9032   -592.15232     102002.7      46.7237      46.7237      46.7237 
  305000    130.04201   -7160.1365   -6483.7212   -902.08764     102002.7      46.7237      46.7237      46.7237 
  306000    131.03928   -7170.2721   -6488.6695   -516.24506     102002.7      46.7237      46.7237      46.7237 
  307000    131.58393   -7171.5111   -6487.0755    -691.8647     102002.7      46.7237      46.7237      46.7237 
  308000    125.43156   -7170.8622   -6518.4282   -560.29687     102002.7      46.7237      46.7237      46.7237 
  309000    128.35128   -7154.0005   -6486.3796   -695.83908     102002.7      46.7237      46.7237      46.7237 
  310000     132.3698    -7170.952   -6482.4287   -904.48145     102002.7      46.7237      46.7237      46.7237 
  311000    129.03739   -7175.4625   -6504.2728   -759.04264     102002.7      46.7237      46.7237      46.7237 
  312000    131.27453   -7153.3283    -6470.502   -940.66663     102002.7      46.7237      46.7237      46.7237 
  313000    125.80717   -7165.6672   -6511.2795   -698.50367     102002.7      46.7237      46.7237      46.7237 
  314000    135.17093   -7178.6118   -6475.5184   -877.72054     102002.7      46.7237      46.7237      46.7237 
  315000    129.04598   -7153.5848   -6482.3504   -758.63358     102002.7      46.7237      46.7237      46.7237 
  316000     128.1848   -7167.6073   -6500.8523    -987.7676     102002.7      46.7237      46.7237      46.7237 
  317000    131.65329   -7175.4657   -6490.6693   -654.90308     102002.7      46.7237      46.7237      46.7237 
  318000    131.77692   -7170.0285   -6484.5891   -667.23787     102002.7      46.7237      46.7237      46.7237 
  319000    128.15527   -7173.6938   -6507.0924    -916.6234     102002.7      46.7237      46.7237      46.7237 
  320000    129.40107   -7161.8663   -6488.7849   -672.36755     102002.7      46.7237      46.7237      46.7237 
  321000    131.70274   -7151.6375   -6466.5839   -720.37312     102002.7      46.7237      46.7237      46.7237 
  322000     127.8648   -7170.7663   -6505.6758   -393.18004     102002.7      46.7237      46.7237      46.7237 
  323000    131.12764   -7164.4262    -6482.364   -677.85267     102002.7      46.7237      46.7237      46.7237 
  324000    129.13941   -7153.8165   -6482.0962   -783.14514     102002.7      46.7237      46.7237      46.7237 
  325000      127.794   -7184.1877   -6519.4655   -675.53026     102002.7      46.7237      46.7237      46.7237 
  326000    131.40277   -7182.4802   -6498.9869    -855.8414     102002.7      46.7237      46.7237      46.7237 
  327000    134.98723   -7165.6866   -6463.5487   -564.48077     102002.7      46.7237      46.7237      46.7237 
  328000    132.33017   -7154.8438   -6466.5266     -632.769     102002.7      46.7237      46.7237      46.7237 
  329000    129.02841   -7169.3725   -6498.2295   -570.78342     102002.7      46.7237      46.7237      46.7237 
  330000    128.82039   -7144.3299   -6474.2689   -721.85546     102002.7      46.7237      46.7237      46.7237 
  331000    134.46109   -7168.8279   -6469.4267   -671.50212     102002.7      46.7237      46.7237      46.7237 
  332000    127.60785   -7164.7314   -6500.9775   -861.09045     102002.7      46.7237      46.7237      46.7237 
  333000    127.33972   -7170.5312   -6508.1719   -903.85325     102002.7      46.7237      46.7237      46.7237 
  334000    133.89219   -7175.5944   -6479.1524   -667.11611     102002.7      46.7237      46.7237      46.7237 
  335000    131.26668    -7175.895   -6493.1096   -550.97633     102002.7      46.7237      46.7237      46.7237 
  336000    128.60221    -7156.524   -6487.5979   -430.98963     102002.7      46.7237      46.7237      46.7237 
  337000    128.39125   -7175.2083   -6507.3794   -804.26382     102002.7      46.7237      46.7237      46.7237 
  338000     132.4558   -7147.3964   -6458.4258   -932.22285     102002.7      46.7237      46.7237      46.7237 
  339000    128.36732   -7167.4228   -6499.7185   -989.28293     102002.7      46.7237      46.7237      46.7237 
  340000    131.00288   -7169.5328   -6488.1196   -816.12818     102002.7      46.7237      46.7237      46.7237 
  341000    132.35357   -7147.9547   -6459.5158   -683.88189     102002.7      46.7237      46.7237      46.7237 
  342000    129.75267   -7169.0548   -6494.1446   -609.66961     102002.7      46.7237      46.7237      46.7237 
  343000    132.53847   -7149.3722   -6459.9715   -834.08611     102002.7      46.7237      46.7237      46.7237 
  344000    131.84901   -7165.3383   -6479.5239   -593.86897     102002.7      46.7237      46.7237      46.7237 
  345000    129.62984   -7147.2202   -6472.9489   -581.92594     102002.7      46.7237      46.7237      46.7237 
  346000    127.17773   -7154.9241   -6493.4075   -843.60072     102002.7      46.7237      46.7237      46.7237 
  347000    128.93873   -7142.4441   -6471.7676   -815.50496     102002.7      46.7237      46.7237      46.7237 
  348000    130.63307    -7151.624   -6472.1343   -924.76113     102002.7      46.7237      46.7237      46.7237 
  349000     128.2615   -7167.2527   -6500.0987   -809.07353     102002.7      46.7237      46.7237      46.7237 
  350000    130.88588   -7161.1995   -6480.3948   -682.94224     102002.7      46.7237      46.7237      46.7237 
  351000    132.37678   -7180.2843   -6491.7247   -678.47019     102002.7      46.7237      46.7237      46.7237 
  352000    127.72866   -7162.2856   -6497.9033   -702.99389     102002.7      46.7237      46.7237      46.7237 
  353000    131.56843    -7164.486    -6480.131   -672.17426     102002.7      46.7237      46.7237      46.7237 
  354000    124.56746   -7172.3401   -6524.4008   -523.12219     102002.7      46.7237      46.7237      46.7237 
  355000    131.50992   -7168.2373   -6484.1867   -690.06651     102002.7      46.7237      46.7237      46.7237 
  356000    124.63383   -7164.0582   -6515.7737   -713.86671     102002.7      46.7237      46.7237      46.7237 
  357000    127.44028   -7129.2415   -6466.3592   -910.23082     102002.7      46.7237      46.7237      46.7237 
  358000    126.44355   -7156.8852   -6499.1874   -706.84099     102002.7      46.7237      46.7237      46.7237 
  359000    130.55492   -7165.7561   -6486.6729   -837.14171     102002.7      46.7237      46.7237      46.7237 
  360000    125.22267   -7179.0431   -6527.6957   -677.21143     102002.7      46.7237      46.7237      46.7237 
  361000    128.36978    -7149.817   -6482.0998   -1062.5599     102002.7      46.7237      46.7237      46.7237 
  362000    130.14452   -7196.1172   -6519.1687    -588.2604     102002.7      46.7237      46.7237      46.7237 
  363000    129.01447   -7175.9883   -6504.9179   -663.03647     102002.7      46.7237      46.7237      46.7237 
  364000    132.09741   -7156.4508   -6469.3443    -576.8482     102002.7      46.7237      46.7237      46.7237 
  365000    129.77103   -7166.2656   -6491.2599    -729.2027     102002.7      46.7237      46.7237      46.7237 
  366000    132.76733   -7169.0828   -6478.4918   -512.20419     102002.7      46.7237      46.7237      46.7237 
  367000    128.27975    -7159.871   -6492.6222   -560.74879     102002.7      46.7237      46.7237      46.7237 
  368000    128.70387   -7166.9188   -6497.4639    -852.4312     102002.7      46.7237      46.7237      46.7237 
  369000    130.34402   -7139.1655   -6461.1794   -767.69847     102002.7      46.7237      46.7237      46.7237 
  370000    128.05496   -7163.4988   -6497.4192   -435.83343     102002.7      46.7237      46.7237      46.7237 
  371000    133.40972   -7170.7583   -6476.8258   -628.72428     102002.7      46.7237      46.7237      46.7237 
  372000    130.94019   -7147.2243   -6466.1371   -1136.6375     102002.7      46.7237      46.7237      46.7237 
  373000    128.25895    -7171.134   -6503.9933   -596.90151     102002.7      46.7237      46.7237      46.7237 
  374000    126.85593   -7136.3961   -6476.5533   -685.32574     102002.7      46.7237      46.7237      46.7237 
  375000     129.5306    -7177.666   -6503.9108   -549.26242     102002.7      46.7237      46.7237      46.7237 
  376000    133.59194   -7152.7422   -6457.8619   -514.01639     102002.7      46.7237      46.7237      46.7237 
  377000    135.41458   -7169.6991   -6465.3383   -824.29501     102002.7      46.7237      46.7237      46.7237 
  378000    131.11668   -7183.1319   -6501.1267   -335.84077     102002.7      46.7237      46.7237      46.7237 
  379000    127.63939   -7156.2697   -6492.3516   -523.33768     102002.7      46.7237      46.7237      46.7237 
  380000    129.43428   -7161.5924   -6488.3383   -636.55686     102002.7      46.7237      46.7237      46.7237 
  381000    131.49343   -7161.2039    -6477.239   -654.62709     102002.7      46.7237      46.7237      46.7237 
  382000    131.56644   -7161.1797   -6476.8351   -521.03887     102002.7      46.7237      46.7237      46.7237 
  383000    130.19496   -7168.4908     -6491.28   -698.54487     102002.7      46.7237      46.7237      46.7237 
  384000    129.25016   -7133.2721   -6460.9757   -811.52467     102002.7      46.7237      46.7237      46.7237 
  385000    129.55653   -7164.0792   -6490.1892   -620.23676     102002.7      46.7237      46.7237      46.7237 
  386000    133.40233   -7147.7053   -6453.8112   -608.19469     102002.7      46.7237      46.7237      46.7237 
  387000    131.50886   -7159.9137   -6475.8686   -489.98763     102002.7      46.7237      46.7237      46.7237 
  388000     132.0548   -7191.1234   -6504.2385   -743.86031     102002.7      46.7237      46.7237      46.7237 
  389000    130.98429   -7164.7025   -6483.3859   -832.84338     102002.7      46.7237      46.7237      46.7237 
  390000    132.98658   -7193.8546   -6502.1231   -478.75808     102002.7      46.7237      46.7237      46.7237 
  391000    127.97795    -7132.251   -6466.5719   -799.79072     102002.7      46.7237      46.7237      46.7237 
  392000    131.80695   -7179.8767    -6494.281     -670.623     102002.7      46.7237      46.7237      46.7237 
  393000    130.17179   -7163.1229   -6486.0326   -683.43702     102002.7      46.7237      46.7237      46.7237 
  394000    130.38349   -7150.6772   -6472.4857   -707.59646     102002.7      46.7237      46.7237      46.7237 
  395000    134.05031   -7162.6151   -6465.3506   -872.30302     102002.7      46.7237      46.7237      46.7237 
  396000    129.11995   -7156.9697   -6485.3505   -882.44525     102002.7      46.7237      46.7237      46.7237 
  397000    131.90737   -7144.7044   -6458.5864   -891.66773     102002.7      46.7237      46.7237      46.7237 
  398000    129.12975   -7151.2859   -6479.6157   -809.35206     102002.7      46.7237      46.7237      46.7237 
  399000    126.67483    -7166.594   -6507.6932   -850.83934     102002.7      46.7237      46.7237      46.7237 
  400000    128.09083   -7173.2968   -6507.0306   -999.06483     102002.7      46.7237      46.7237      46.7237 
  401000    131.45716   -7162.4104   -6478.6342   -1147.8642     102002.7      46.7237      46.7237      46.7237 
  402000    130.20514   -7167.7624   -6490.4986   -900.30689     102002.7      46.7237      46.7237      46.7237 
  403000    129.05109   -7154.7191   -6483.4581   -733.62549     102002.7      46.7237      46.7237      46.7237 
  404000    127.43936   -7144.2665   -6481.3889   -737.06665     102002.7      46.7237      46.7237      46.7237 
  405000    131.36731   -7149.9496   -6466.6408   -1005.2115     102002.7      46.7237      46.7237      46.7237 
  406000    126.96876   -7151.0926   -6490.6629   -770.61774     102002.7      46.7237      46.7237      46.7237 
  407000    137.34496   -7138.6128   -6424.2111    -858.4989     102002.7      46.7237      46.7237      46.7237 
  408000     124.8959   -7152.2043   -6502.5565   -807.64588     102002.7      46.7237      46.7237      46.7237 
  409000    129.91159   -7156.8953   -6481.1584   -825.47689     102002.7      46.7237      46.7237      46.7237 
  410000    129.57988     -7167.66   -6493.6485   -799.52279     102002.7      46.7237      46.7237      46.7237 
  411000    131.58489   -7156.8493   -6472.4088   -793.78007     102002.7      46.7237      46.7237      46.7237 
  412000    129.29249   -7160.9014   -6488.3848    -397.1801     102002.7      46.7237      46.7237      46.7237 
  413000    125.74563   -7176.8848   -6522.8172   -873.32037     102002.7      46.7237      46.7237      46.7237 
  414000    132.01432   -7152.1325   -6465.4582   -782.98441     102002.7      46.7237      46.7237      46.7237 
  415000    130.60206   -7166.1496   -6486.8212    -551.1765     102002.7      46.7237      46.7237      46.7237 
  416000    130.10504   -7133.7961    -6457.053    -944.0903     102002.7      46.7237      46.7237      46.7237 
  417000    134.18199   -7159.9998   -6462.0503   -574.49372     102002.7      46.7237      46.7237      46.7237 
  418000    129.94262   -7164.6292   -6488.7309   -832.82814     102002.7      46.7237      46.7237      46.7237 
  419000    130.42012   -7176.3747   -6497.9927   -522.34941     102002.7      46.7237      46.7237      46.7237 
  420000    132.75141    -7165.631   -6475.1228   -706.60666     102002.7      46.7237      46.7237      46.7237 
  421000    127.93492   -7159.5255   -6494.0703   -811.78581     102002.7      46.7237      46.7237      46.7237 
  422000    128.06952   -7171.4796   -6505.3243   -1019.4148     102002.7      46.7237      46.7237      46.7237 
  423000     130.6043   -7174.3132   -6494.9731   -403.29145     102002.7      46.7237      46.7237      46.7237 
  424000    129.26122   -7161.8407   -6489.4867   -962.12572     102002.7      46.7237      46.7237      46.7237 
  425000    127.36146   -7159.8315   -6497.3591    -745.1645     102002.7      46.7237      46.7237      46.7237 
  426000    129.46359   -7183.0948   -6509.6882   -410.51398     102002.7      46.7237      46.7237      46.7237 
  427000    131.97862   -7161.7009   -6475.2123   -1062.3412     102002.7      46.7237      46.7237      46.7237 
  428000    130.05225   -7204.2985   -6527.8299   -785.95598     102002.7      46.7237      46.7237      46.7237 
  429000    131.91834    -7175.389    -6489.214   -926.06447     102002.7      46.7237      46.7237      46.7237 
  430000    133.61911   -7169.7707   -6474.7491   -806.95581     102002.7      46.7237      46.7237      46.7237 
  431000    131.96258   -7154.4345   -6468.0294    -654.2968     102002.7      46.7237      46.7237      46.7237 
  432000     129.7369   -7179.6321   -6504.8038   -1025.4615     102002.7      46.7237      46.7237      46.7237 
  433000    129.63332   -7145.6088   -6471.3193   -527.44226     102002.7      46.7237      46.7237      46.7237 
  434000    129.63007   -7155.7801   -6481.5076   -884.45082     102002.7      46.7237      46.7237      46.7237 
  435000    130.23553   -7172.7486   -6495.3267   -622.79959     102002.7      46.7237      46.7237      46.7237 
  436000     133.9383   -7146.3962   -6449.7143   -669.10726     102002.7      46.7237      46.7237      46.7237 
  437000    131.79748   -7178.8308   -6493.2844   -319.03383     102002.7      46.7237      46.7237      46.7237 
  438000    129.45722   -7137.0931   -6463.7196   -637.78719     102002.7      46.7237      46.7237      46.7237 
  439000    131.07271   -7174.5042   -6492.7277   -519.05598     102002.7      46.7237      46.7237      46.7237 
  440000    130.39441   -7182.6987   -6504.4504   -775.53585     102002.7      46.7237      46.7237      46.7237 
  441000    133.32709   -7167.1795   -6473.6769   -1153.2304     102002.7      46.7237      46.7237      46.7237 
  442000    127.27142   -7180.6374   -6518.6333   -502.10205     102002.7      46.7237      46.7237      46.7237 
  443000    127.54376   -7146.7148   -6483.2942   -1036.7959     102002.7      46.7237      46.7237      46.7237 
  444000    130.70448   -7180.4049   -6500.5437   -460.71467     102002.7      46.7237      46.7237      46.7237 
  445000    126.20117   -7170.4388   -6514.0018   -709.12082     102002.7      46.7237      46.7237      46.7237 
  446000    132.99691   -7158.3439   -6466.5586   -505.31195     102002.7      46.7237      46.7237      46.7237 
  447000    131.75892   -7155.1195   -6469.7737   -665.10968     102002.7      46.7237      46.7237      46.7237 
  448000     131.1363   -7183.3904   -6501.2832   -783.76706     102002.7      46.7237      46.7237      46.7237 
  449000    127.83116   -7188.3981   -6523.4826   -526.69616     102002.7      46.7237      46.7237      46.7237 
  450000     131.7913   -7160.9409   -6475.4266   -557.68898     102002.7      46.7237      46.7237      46.7237 
  451000    125.76111   -7162.2071    -6508.059   -653.88838     102002.7      46.7237      46.7237      46.7237 
  452000    132.96086    -7156.794   -6465.1963   -590.43302     102002.7      46.7237      46.7237      46.7237 
  453000    129.98171   -7186.6354   -6510.5338   -577.95373     102002.7      46.7237      46.7237      46.7237 
  454000    131.73095   -7178.5327   -6493.3324   -505.93319     102002.7      46.7237      46.7237      46.7237 
  455000    132.89631    -7153.531   -6462.2691   -733.95502     102002.7      46.7237      46.7237      46.7237 
  456000    130.34069   -7142.4423   -6464.4734   -380.25778     102002.7      46.7237      46.7237      46.7237 
  457000    130.49733   -7159.9771   -6481.1935   -706.15753     102002.7      46.7237      46.7237      46.7237 
  458000    128.58877   -7164.7031   -6495.8468   -640.09896     102002.7      46.7237      46.7237      46.7237 
  459000    133.56182   -7181.5716    -6486.848   -704.42939     102002.7      46.7237      46.7237      46.7237 
  460000    129.10946   -7159.2271   -6487.6624   -745.51407     102002.7      46.7237      46.7237      46.7237 
  461000    132.04556   -7186.4227   -6499.5859   -648.78942     102002.7      46.7237      46.7237      46.7237 
  462000     129.1219   -7157.1553    -6485.526   -987.05278     102002.7      46.7237      46.7237      46.7237 
  463000    128.38192   -7155.7318   -6487.9515   -591.85182     102002.7      46.7237      46.7237      46.7237 
  464000    132.16835    -7154.868   -6467.3926   -636.69249     102002.7      46.7237      46.7237      46.7237 
  465000    125.57604   -7182.1413   -6528.9558   -598.12962     102002.7      46.7237      46.7237      46.7237 
  466000    130.44763   -7170.5943   -6492.0692   -464.33387     102002.7      46.7237      46.7237      46.7237 
  467000    133.21309   -7164.8636   -6471.9539   -665.60479     102002.7      46.7237      46.7237      46.7237 
  468000     128.3797   -7157.0971   -6489.3284   -588.47836     102002.7      46.7237      46.7237      46.7237 
  469000    130.21223   -7184.7363   -6507.4356   -679.26631     102002.7      46.7237      46.7237      46.7237 
  470000    132.01386   -7143.7343   -6457.0624   -525.33428     102002.7      46.7237      46.7237      46.7237 
  471000    128.58118   -7173.2285   -6504.4117   -828.49411     102002.7      46.7237      46.7237      46.7237 
  472000    130.54799    -7153.694   -6474.6469   -267.27583     102002.7      46.7237      46.7237      46.7237 
  473000    126.82497   -7172.9909   -6513.3091   -665.10022     102002.7      46.7237      46.7237      46.7237 
  474000    132.48614   -7156.8677   -6467.7393   -574.45897     102002.7      46.7237      46.7237      46.7237 
  475000    125.81583    -7151.818   -6497.3852   -761.02507     102002.7      46.7237      46.7237      46.7237 
  476000    131.79825   -7173.8135   -6488.2632   -780.45677     102002.7      46.7237      46.7237      46.7237 
  477000    132.38229   -7156.4719   -6467.8836    -337.2914     102002.7      46.7237      46.7237      46.7237 
  478000    133.08397   -7171.1174   -6478.8793   -468.64147     102002.7      46.7237      46.7237      46.7237 
  479000    129.99743   -7165.2584    -6489.075   -437.76835     102002.7      46.7237      46.7237      46.7237 
  480000    125.37823    -7159.053   -6506.8964   -839.02421     102002.7      46.7237      46.7237      46.7237 
  481000     129.5813   -7147.5085   -6473.4896   -648.01513     102002.7      46.7237      46.7237      46.7237 
  482000    128.31307   -7187.7466   -6520.3244    -689.8772     102002.7      46.7237      46.7237      46.7237 
  483000    132.15694   -7166.8319   -6479.4158   -797.52704     102002.7      46.7237      46.7237      46.7237 
  484000    125.76525   -7147.8034   -6493.6337    -858.8441     102002.7      46.7237      46.7237      46.7237 
  485000    130.80232   -7161.8215   -6481.4514   -561.60963     102002.7      46.7237      46.7237      46.7237 
  486000    123.99457   -7150.4521   -6505.4927   -651.03125     102002.7      46.7237      46.7237      46.7237 
  487000    130.09748   -7159.7617   -6483.0578   -416.72077     102002.7      46.7237      46.7237      46.7237 
  488000    133.22285   -7149.9174    -6456.957     -930.059     102002.7      46.7237      46.7237      46.7237 
  489000    129.61947   -7158.3492   -6484.1318   -849.01917     102002.7      46.7237      46.7237      46.7237 
  490000    130.44328   -7174.5945    -6496.092   -931.30582     102002.7      46.7237      46.7237      46.7237 
  491000    127.49913    -7148.638   -6485.4496   -1057.4812     102002.7      46.7237      46.7237      46.7237 
  492000     133.7913    -7161.897   -6465.9797     -710.712     102002.7      46.7237      46.7237      46.7237 
  493000    128.32345   -7176.5621   -6509.0859   -742.47435     102002.7      46.7237      46.7237      46.7237 
  494000    133.68237   -7170.6831   -6475.3324   -837.54373     102002.7      46.7237      46.7237      46.7237 
  495000     130.8361   -7157.5474   -6477.0016   -862.15418     102002.7      46.7237      46.7237      46.7237 
  496000    129.19545   -7139.8618   -6467.8499   -755.52288     102002.7      46.7237      46.7237      46.7237 
  497000      129.436   -7154.2555   -6480.9924   -685.21804     102002.7      46.7237      46.7237      46.7237 
  498000    129.23536   -7185.9125   -6513.6931   -502.69272     102002.7      46.7237      46.7237      46.7237 
  499000    127.63672   -7171.4584   -6507.5543    -581.4955     102002.7      46.7237      46.7237      46.7237 
  500000    131.65434   -7157.8865   -6473.0847   -1099.2833     102002.7      46.7237      46.7237      46.7237 
  500508      126.361   -7196.6243   -6539.3558   -599.39079     102002.7      46.7237      46.7237      46.7237 
Loop time of 1362.34 on 16 procs for 500000 steps with 1746 atoms

Performance: 31.710 ns/day, 0.757 hours/ns, 367.014 timesteps/s
99.8% CPU use with 16 MPI tasks x no OpenMP threads

MPI task timing breakdown:
Section |  min time  |  avg time  |  max time  |%varavg| %total
---------------------------------------------------------------
Pair    | 452.03     | 691.08     | 939.34     | 677.9 | 50.73
Bond    | 148.1      | 174.2      | 198.11     | 149.4 | 12.79
Neigh   | 4.7374     | 4.7754     | 4.8188     |   1.2 |  0.35
Comm    | 209.48     | 478.46     | 743.29     | 898.4 | 35.12
Output  | 0.020378   | 0.020944   | 0.023507   |   0.5 |  0.00
Modify  | 7.1509     | 8.3603     | 9.4451     |  26.8 |  0.61
Other   |            | 5.45       |            |       |  0.40

Nlocal:    109.125 ave 139 max 69 min
Histogram: 2 0 0 1 3 3 0 3 2 2
Nghost:    2215.25 ave 2253 max 2184 min
Histogram: 1 2 2 1 2 5 1 0 1 1
Neighs:    11466.9 ave 16029 max 4642 min
Histogram: 1 1 1 1 2 0 4 2 1 3

Total # of neighbors = 183471
Ave neighs/atom = 105.081
Ave special neighs/atom = 6.59794
Neighbor list builds = 3881
Dangerous builds = 0
Neighbor list info ...
  update every 1 steps, delay 10 steps, check yes
  max neighbors/atom: 2000, page size: 100000
  master list distance cutoff = 16
  ghost atom cutoff = 16
  binsize = 8, bins = 6 6 6
  3 neighbor lists, perpetual/occasional/extra = 3 0 0
  (1) pair buck6d/coul/gauss/dsf, perpetual, skip from (3)
      attributes: half, newton on
      pair build: skip
      stencil: none
      bin: none
  (2) pair lj/cut, perpetual, skip from (3)
      attributes: half, newton on
      pair build: skip
      stencil: none
      bin: none
  (3) neighbor class addition, perpetual
      attributes: half, newton on
      pair build: half/bin/newton
      stencil: half/bin/3d/newton
      bin: standard
Setting up Verlet run ...
  Unit style    : real
  Current step  : 500508
  Time step     : 1
WARNING: Inconsistent image flags (../domain.cpp:786)
Per MPI rank memory allocation (min/avg/max) = 22.69 | 23.21 | 23.34 Mbytes
Step Time TotEng KinEng PotEng E_mol E_pair Temp Pxx Pyy Pzz Pxy Pxz Pyz Cella Cellb Cellc CellAlpha CellBeta CellGamma Volume Press 
  500508       500000   -6539.3558    657.26843   -7196.6243    4370.5833   -11567.208      126.361   -376.89918   -818.76294   -602.51023   -271.13069   -152.57746    40.788974      46.7237      46.7237      46.7237           90           90           90     102002.7   -599.39079 
  501000       500492    -6499.498    665.85809   -7165.3561    4395.9397   -11561.296    128.01237   -330.02123   -841.34307   -939.72254   -101.87726   -12.264844   -299.15124      46.7237      46.7237      46.7237           90           90           90     102002.7   -703.69561 
  502000       501492    -6473.464    694.74302   -7168.2071    4409.8089   -11578.016    133.56555   -742.70297   -263.92297   -796.41989   -264.39604    292.80656   -38.769214      46.7237      46.7237      46.7237           90           90           90     102002.7   -601.01528 
  503000       502492   -6510.4207    675.74949   -7186.1702    4404.1988   -11590.369    129.91401    -541.5081   -608.40663   -562.05963    206.84408   -247.41436    261.73311      46.7237      46.7237      46.7237           90           90           90     102002.7   -570.65812 
  504000       503492   -6472.4046    676.97978   -7149.3843     4444.021   -11593.405    130.15054   -781.31034   -633.58151   -724.24599    246.04522   -163.60683   -79.838279      46.7237      46.7237      46.7237           90           90           90     102002.7   -713.04595 
  505000       504492   -6461.8385    697.44698   -7159.2855    4400.6952   -11559.981    134.08539   -314.89664   -408.83706   -735.31017    125.45987    230.47202    118.35483      46.7237      46.7237      46.7237           90           90           90     102002.7   -486.34796 
  506000       505492   -6498.8955    671.87946    -7170.775    4423.6974   -11594.472    129.16999   -1056.3712   -710.47241   -595.91497   -230.32785   -68.887276    188.38694      46.7237      46.7237      46.7237           90           90           90     102002.7   -787.58621 
  507000       506492   -6448.2461     692.9989    -7141.245    4435.0408   -11576.286    133.23024   -1149.9555   -729.78098   -894.52737     85.21883   -66.466531   -154.10161      46.7237      46.7237      46.7237           90           90           90     102002.7   -924.75462 
  508000       507492    -6487.911    675.68627   -7163.5972    4420.5824    -11584.18    129.90186   -744.80177   -529.77989   -742.47448   -120.63385   -159.92139     192.8485      46.7237      46.7237      46.7237           90           90           90     102002.7   -672.35205 
  509000       508492   -6492.4609    675.82768   -7168.2886    4399.6538   -11567.942    129.92904   -799.93883    -450.6757   -971.57923    31.559784   -71.398307   -116.78888      46.7237      46.7237      46.7237           90           90           90     102002.7   -740.73126 
  510000       509492   -6452.1972    698.42404   -7150.6212    4427.8925   -11578.514    134.27323    -658.5976   -802.88951    -812.7084    24.163031   -164.16901       96.943      46.7237      46.7237      46.7237           90           90           90     102002.7   -758.06517 
  511000       510492   -6492.1069    670.48801    -7162.595    4434.8774   -11597.472    128.90248   -164.45431   -428.09018   -835.55739   -322.79588   -189.22199    279.19723      46.7237      46.7237      46.7237           90           90           90     102002.7   -476.03396 
  512000       511492   -6480.9493    697.61887   -7178.5681    4394.5748   -11573.143    134.11844   -360.77406   -456.73659   -565.58266   -305.69082    65.440654    55.370021      46.7237      46.7237      46.7237           90           90           90     102002.7   -461.03111 
  513000       512492   -6450.3143    710.33018   -7160.6444    4420.9617   -11581.606    136.56221   -821.75705    -892.2924   -755.56618       -16.04    341.05098    141.25076      46.7237      46.7237      46.7237           90           90           90     102002.7   -823.20521 
  514000       513492   -6468.1548    683.42034   -7151.5751    4433.8546    -11585.43    131.38875   -665.88829   -560.13842   -628.18155   -240.05532     105.2399   -2.3094713      46.7237      46.7237      46.7237           90           90           90     102002.7   -618.06942 
  515000       514492   -6514.4779    672.18975   -7186.6677    4405.0635   -11591.731    129.22965   -549.02571   -841.06171   -428.40094   -252.00608   -154.14573   -294.60255      46.7237      46.7237      46.7237           90           90           90     102002.7   -606.16279 
  516000       515492   -6477.9245    693.37608   -7171.3006    4383.9217   -11555.222    133.30275   -138.79678   -428.55107   -238.54085   -241.34853   -17.493646     65.73959      46.7237      46.7237      46.7237           90           90           90     102002.7   -268.62957 
  517000       516492   -6483.3289    676.61804    -7159.947    4406.3813   -11566.328    130.08099    -915.1361   -1216.2283   -805.27685   -293.70705    43.771959   -5.8162922      46.7237      46.7237      46.7237           90           90           90     102002.7   -978.88041 
  518000       517492   -6492.5067    667.74208   -7160.2488    4400.9402   -11561.189    128.37457   -670.96755   -515.32235   -837.89214    226.58887    41.196259    147.71877      46.7237      46.7237      46.7237           90           90           90     102002.7   -674.72735 
  519000       518492   -6473.6183    686.35585   -7159.9741    4431.2456    -11591.22     131.9531   -1346.5607   -906.20348   -830.44379    11.459666   -121.78604   -49.344438      46.7237      46.7237      46.7237           90           90           90     102002.7    -1027.736 
  520000       519492   -6491.0589    662.45793   -7153.5168    4412.3245   -11565.841    127.35869   -459.00053   -1375.4937   -611.78106    7.1456711    5.7328422    164.85403      46.7237      46.7237      46.7237           90           90           90     102002.7   -815.42509 
  521000       520492   -6474.9138    682.97644   -7157.8902    4422.8159   -11580.706     131.3034   -852.42006   -1173.5889   -544.59342   -43.200721    83.709952   -126.01446      46.7237      46.7237      46.7237           90           90           90     102002.7   -856.86745 
  522000       521492   -6517.7011    663.87589    -7181.577    4402.8524   -11584.429    127.63129   -337.43894   -402.66922   -946.21386    125.86454   -116.56401   -118.21414      46.7237      46.7237      46.7237           90           90           90     102002.7   -562.10734 
  523000       522492   -6476.0455    687.34654   -7163.3921     4412.962   -11576.354    132.14356   -382.68175    2.1730414   -921.27067   -127.76808    45.520141   -96.889131      46.7237      46.7237      46.7237           90           90           90     102002.7   -433.92646 
  524000       523492   -6489.7128    662.26727   -7151.9801    4426.9112   -11578.891    127.32203   -424.79102   -702.11588   -990.10704   -125.95842   -185.93266   -34.642027      46.7237      46.7237      46.7237           90           90           90     102002.7   -705.67131 
  525000       524492   -6509.5428    661.25719      -7170.8    4411.7784   -11582.578    127.12784   -560.11062    78.396703   -449.98382    -74.25506   -54.150684   -141.14005      46.7237      46.7237      46.7237           90           90           90     102002.7   -310.56591 
  526000       525492   -6487.1207    660.49564   -7147.6163    4416.1901   -11563.806    126.98143   -812.73906   -1032.6808   -690.27506     50.19198    109.64604   -17.599031      46.7237      46.7237      46.7237           90           90           90     102002.7   -845.23164 
  527000       526492   -6432.2726    695.52788   -7127.8004    4466.9787   -11594.779    133.71644   -342.58533   -710.66134   -403.52963    81.012869    5.8498174   -44.765196      46.7237      46.7237      46.7237           90           90           90     102002.7    -485.5921 
  528000       527492   -6503.5797    676.17541   -7179.7551    4389.4965   -11569.252     129.9959   -1101.3071    -867.9514   -669.00168    42.404564    30.164065    226.14879      46.7237      46.7237      46.7237           90           90           90     102002.7   -879.42005 
  529000       528492   -6524.3428    654.31425    -7178.657    4406.8472   -11585.504    125.79305   -541.84028   -917.28872   -280.97702   -39.402977    286.87204    95.278981      46.7237      46.7237      46.7237           90           90           90     102002.7   -580.03534 
  530000       529492   -6479.1856    674.55262   -7153.7382    4423.9648   -11577.703    129.68391    -665.9387    -400.1106   -670.38788   -163.38266   -228.11633    448.45094      46.7237      46.7237      46.7237           90           90           90     102002.7   -578.81239 
  531000       530492   -6544.0679    650.75477   -7194.8226    4391.6713   -11586.494    125.10873   -412.70984   -487.31604   -264.59355   -89.994096   -103.90548   -153.94978      46.7237      46.7237      46.7237           90           90           90     102002.7   -388.20648 
  532000       531492   -6472.5643    673.21877   -7145.7831    4437.7658   -11583.549    129.42748   -606.22785    215.77574   -985.77904   -67.784111    274.61746    323.15398      46.7237      46.7237      46.7237           90           90           90     102002.7   -458.74372 
  533000       532492   -6501.0009    675.50526   -7176.5061    4410.7984   -11587.304    129.86706   -1131.4815   -539.54768   -833.54316   -61.453269   -12.857768   -180.73332      46.7237      46.7237      46.7237           90           90           90     102002.7   -834.85744 
  534000       533492   -6479.8192    699.34506   -7179.1643    4406.6298   -11585.794     134.4503    -398.8826   -349.33057   -190.74707    26.605959    89.216057   -90.508013      46.7237      46.7237      46.7237           90           90           90     102002.7   -312.98674 
  535000       534492   -6450.2397    682.14678   -7132.3865    4452.6613   -11585.048     131.1439   -882.12383   -912.82143   -571.70091   -70.168587    -51.05282   -164.62693      46.7237      46.7237      46.7237           90           90           90     102002.7   -788.88206 
  536000       535492   -6497.8188    674.95828   -7172.7771     4396.262   -11569.039     129.7619   -693.74303   -281.23938   -605.70294    14.838641   -142.67899    1.4375037      46.7237      46.7237      46.7237           90           90           90     102002.7   -526.89512 
  537000       536492   -6451.1624    697.80919   -7148.9716    4444.8513   -11593.823    134.15503   -890.64586   -804.48098     -850.883    98.366264   -131.59047    83.968644      46.7237      46.7237      46.7237           90           90           90     102002.7   -848.66995 
  538000       537492   -6497.4308    685.49486   -7182.9256    4401.2213   -11584.147    131.78758   -46.773606   -944.01037   -581.65668    153.95813    171.01321    14.687652      46.7237      46.7237      46.7237           90           90           90     102002.7   -524.14688 
  539000       538492   -6475.4532    692.67857   -7168.1317    4397.8352   -11565.967    133.16866    -621.1018   -677.10258   -614.83962   -40.060433    243.80015   -23.923019      46.7237      46.7237      46.7237           90           90           90     102002.7   -637.68133 
  540000       539492   -6493.3341    651.84466   -7145.1788    4445.3121   -11590.491    125.31827   -738.52901   -678.76009    -1186.295   -208.60335   -38.157863   -124.08852      46.7237      46.7237      46.7237           90           90           90     102002.7   -867.86135 
  541000       540492   -6478.6027    673.42469   -7152.0274      4438.65   -11590.677    129.46706   -817.96921   -630.47013   -626.55467    57.636048   -48.340378   -177.22908      46.7237      46.7237      46.7237           90           90           90     102002.7   -691.66467 
  542000       541492   -6474.6226    674.84385   -7149.4664    4426.9768   -11576.443     129.7399   -534.68525    -937.5417   -624.18285    72.733517    96.021463   -94.992929      46.7237      46.7237      46.7237           90           90           90     102002.7   -698.80327 
  543000       542492   -6502.6874    687.08665    -7189.774    4379.9116   -11569.686     132.0936   -510.42374   -473.67855    -400.3897    15.983271    204.89723   -63.913033      46.7237      46.7237      46.7237           90           90           90     102002.7   -461.49733 
  544000       543492   -6487.9609    676.61138   -7164.5723    4417.8749   -11582.447    130.07971    -862.5171   -854.52872   -702.36143    69.165456    133.16823    -189.3471      46.7237      46.7237      46.7237           90           90           90     102002.7   -806.46908 
  545000       544492    -6469.576    678.22773   -7147.8037    4434.5366    -11582.34    130.39046    -410.9279   -695.24423    -1045.138    307.34609    22.134593   -48.585175      46.7237      46.7237      46.7237           90           90           90     102002.7   -717.10338 
  546000       545492    -6500.451    667.09956   -7167.5505    4409.6622   -11577.213    128.25105   -673.67441    -770.3425    -492.6056    45.237971   -401.61387  -0.92099227      46.7237      46.7237      46.7237           90           90           90     102002.7   -645.54084 
  547000       546492   -6524.2863    653.00021   -7177.2866    4393.1682   -11570.455    125.54042   -870.78993   -586.88132   -609.70087    134.46409   -59.229947   -274.47734      46.7237      46.7237      46.7237           90           90           90     102002.7   -689.12404 
  548000       547492   -6484.7965    686.71196   -7171.5085       4408.8   -11580.308    132.02157   -331.27589   -496.59361    -506.2973    49.290138    66.767752    158.51289      46.7237      46.7237      46.7237           90           90           90     102002.7   -444.72227 
  549000       548492   -6491.7999    667.67869   -7159.4785    4420.7017    -11580.18    128.36239   -598.17862   -433.31814   -993.57813   -409.36311    -242.7067    181.94662      46.7237      46.7237      46.7237           90           90           90     102002.7   -675.02496 
  550000       549492   -6466.4106    685.43791   -7151.8485    4424.9509   -11576.799    131.77663   -719.58257    -1046.344   -661.41992   -115.24311   -166.07299    136.89236      46.7237      46.7237      46.7237           90           90           90     102002.7   -809.11551 
  551000       550492   -6504.8969      676.052   -7180.9489    4415.9747   -11596.924    129.97217   -776.17188   -75.138569   -1017.2449    119.23284   -64.349291    180.10046      46.7237      46.7237      46.7237           90           90           90     102002.7   -622.85178 
  552000       551492   -6471.0642    688.35772   -7159.4219    4421.2113   -11580.633    132.33797   -1012.1629   -454.47393   -799.21832   -170.39578   -141.54983    72.597447      46.7237      46.7237      46.7237           90           90           90     102002.7   -755.28506 
  553000       552492   -6487.7359    679.82452   -7167.5604    4423.9329   -11591.493    130.69744   -921.56458   -278.85252    -648.9463    8.2419725    268.60416    36.325058      46.7237      46.7237      46.7237           90           90           90     102002.7   -616.45447 
  554000       553492   -6481.5026    685.09476   -7166.5974    4406.4566   -11573.054    131.71066   -496.07408   -391.78765   -792.03481    235.07284   -406.84877   -70.947591      46.7237      46.7237      46.7237           90           90           90     102002.7   -559.96551 
  555000       554492   -6487.0118    670.45377   -7157.4655    4408.4911   -11565.957     128.8959   -1110.2495   -350.02407   -1172.1085   -12.700343   -296.26345    38.751922      46.7237      46.7237      46.7237           90           90           90     102002.7   -877.46071 
[...]
  936000       935492   -6524.9567    640.43954   -7165.3962    4411.3998   -11576.796    123.12561   -1203.8205   -703.04637   -1113.5415   -127.71489   -20.638697     13.18017      46.7237      46.7237      46.7237           90           90           90     102002.7   -1006.8028 
  937000       936492   -6465.1093    715.14885   -7180.2582    4394.9423     -11575.2    137.48861   -1595.2824   -636.90436   -1124.3833   -121.48286   -161.51254    341.46185      46.7237      46.7237      46.7237           90           90           90     102002.7   -1118.8567 
  938000       937492   -6512.3699    664.13603    -7176.506    4409.5775   -11586.083     127.6813   -735.89315   -1021.1554   -532.90245   -104.66084    130.19933   -46.577584      46.7237      46.7237      46.7237           90           90           90     102002.7     -763.317 
  939000       938492   -6477.7004    689.95937   -7167.6598    4421.0269   -11588.687    132.64589   -951.49064   -836.92627   -1028.9061    76.792052    141.82321   -14.484706      46.7237      46.7237      46.7237           90           90           90     102002.7   -939.10768 
  940000       939492    -6493.443    678.75687   -7172.1999    4397.6041   -11569.804    130.49219   -594.36004   -720.10934   -1338.7507    227.40092   -232.89616   -226.88359      46.7237      46.7237      46.7237           90           90           90     102002.7    -884.4067 
  941000       940492   -6487.8421    675.41327   -7163.2554    4404.9323   -11568.188    129.84937   -1189.0778   -836.05687   -742.69956   -141.04089    103.26222    173.73533      46.7237      46.7237      46.7237           90           90           90     102002.7   -922.61141 
  942000       941492   -6479.9299    682.85036   -7162.7802     4414.647   -11577.427    131.27917   -533.27399   -341.13414    -1268.674   -53.679593    89.877714    188.11436      46.7237      46.7237      46.7237           90           90           90     102002.7   -714.36071 
  943000       942492   -6492.9699    657.81374   -7150.7836    4421.8257   -11572.609    126.46583   -532.50755   -1002.1927   -1006.5658    139.53501    67.508992    317.60771      46.7237      46.7237      46.7237           90           90           90     102002.7   -847.08868 
  944000       943492   -6521.1229    652.50396   -7173.6269     4410.362   -11583.989    125.44502   -1122.1783   -1178.5015   -1104.4074    44.106139    171.55756    202.09817      46.7237      46.7237      46.7237           90           90           90     102002.7   -1135.0291 
  945000       944492   -6477.1551    683.71659   -7160.8717    4412.1946   -11573.066     131.4457   -794.55101   -924.00666   -740.75998   -29.088231    28.093425    3.5679492      46.7237      46.7237      46.7237           90           90           90     102002.7   -819.77255 
  946000       945492   -6467.5911    698.26699   -7165.8581    4424.1616    -11590.02    134.24304   -880.06829   -793.07558   -1243.8288    256.76395   -147.46392     113.0325      46.7237      46.7237      46.7237           90           90           90     102002.7   -972.32424 
  947000       946492   -6499.7261    675.52484   -7175.2509    4384.4466   -11559.697    129.87082   -816.89935   -514.51847   -1252.5422    254.03521   -64.869135    263.86528      46.7237      46.7237      46.7237           90           90           90     102002.7      -861.32 
  948000       947492    -6483.774    683.77936   -7167.5534    4418.1209   -11585.674    131.45777   -885.73515     -648.144   -683.60509   -54.995392   -5.5070932    36.090383      46.7237      46.7237      46.7237           90           90           90     102002.7   -739.16141 
  949000       948492   -6517.0099     659.4815   -7176.4914    4405.1419   -11581.633    126.78646   -293.15054   -516.46177   -1400.1741     26.64061   -77.978264   -344.22179      46.7237      46.7237      46.7237           90           90           90     102002.7   -736.59548 
  950000       949492   -6489.1742    670.94603   -7160.1203    4424.1962   -11584.316    128.99054   -1018.0147    -672.2918   -698.92921    78.694686    35.269417    4.1612881      46.7237      46.7237      46.7237           90           90           90     102002.7    -796.4119 
  951000       950492   -6496.3485    674.16326   -7170.5117    4403.9481    -11574.46    129.60906   -285.46122   -433.20412   -959.73273    141.47822    185.36744   -164.76121      46.7237      46.7237      46.7237           90           90           90     102002.7   -559.46602 
  952000       951492   -6500.1356    674.69888   -7174.8345    4390.1639   -11564.998    129.71203   -421.32307   -593.53334   -756.42577   -296.22383   -218.19331   -22.275388      46.7237      46.7237      46.7237           90           90           90     102002.7   -590.42739 
  953000       952492   -6461.5727    678.48825   -7140.0609    4437.2295    -11577.29    130.44054   -576.12132   -484.06457   -609.49748   -132.28246    61.825689   -65.562392      46.7237      46.7237      46.7237           90           90           90     102002.7   -556.56112 
  954000       953492   -6492.7297    663.31157   -7156.0413    4416.8749   -11572.916     127.5228   -417.09522   -568.93604   -781.84631     -75.3464    1.9937374    182.07339      46.7237      46.7237      46.7237           90           90           90     102002.7   -589.29252 
  955000       954492   -6494.8893    681.58301   -7176.4723    4408.3889   -11584.861    131.03552   -816.13332   -1294.6437   -613.00405   -30.626788    385.65843   -72.793569      46.7237      46.7237      46.7237           90           90           90     102002.7   -907.92702 
  956000       955492   -6443.5493    681.39943   -7124.9487    4446.7358   -11571.685    131.00022   -443.96376   -809.54413     -744.717    52.911718    97.616517   -242.69975      46.7237      46.7237      46.7237           90           90           90     102002.7   -666.07496 
  957000       956492   -6505.7613    653.55061   -7159.3119    4413.2293   -11572.541    125.64624   -684.85275   -794.70664   -254.53961   -271.35347   -220.50086   -9.5105175      46.7237      46.7237      46.7237           90           90           90     102002.7     -578.033 
  958000       957492   -6482.9326    673.54938    -7156.482    4422.6437   -11579.126    129.49104   -739.30664   -1028.5169      -819.69   -25.877081    302.18204    92.503045      46.7237      46.7237      46.7237           90           90           90     102002.7   -862.50451 
  959000       958492   -6514.2497     676.9137   -7191.1634    4391.0151   -11582.179    130.13783   -659.64922   -679.19966   -749.57785   -54.492225    130.85189    3.6517614      46.7237      46.7237      46.7237           90           90           90     102002.7   -696.14224 
  960000       959492   -6479.6462    672.62488    -7152.271    4416.3953   -11568.666     129.3133   -1147.6794   -1159.8125   -1265.7631   -12.188536   -226.68375    107.71105      46.7237      46.7237      46.7237           90           90           90     102002.7    -1191.085 
  961000       960492   -6507.8601    664.01124   -7171.8713    4427.8514   -11599.723    127.65731   -922.76855   -960.61173   -718.67644   -100.34854   -298.97384    342.44271      46.7237      46.7237      46.7237           90           90           90     102002.7   -867.35224 
  962000       961492   -6463.2837    692.75134    -7156.035    4432.4642   -11588.499    133.18265   -1280.0791   -964.86792   -1067.6989   -18.507333    -23.71631    261.00579      46.7237      46.7237      46.7237           90           90           90     102002.7   -1104.2153 
  963000       962492   -6502.6445    647.24697   -7149.8915    4407.0001   -11556.892    124.43435   -510.96033   -1097.5632   -797.71083  0.044246737    120.34756    88.369152      46.7237      46.7237      46.7237           90           90           90     102002.7   -802.07811 
  964000       963492   -6460.0299    697.50804   -7157.5379     4420.543   -11578.081    134.09713   -930.87191   -775.79251   -236.92707    5.8787528    3.3603202    5.9400581      46.7237      46.7237      46.7237           90           90           90     102002.7   -647.86383 
  965000       964492   -6503.8353    674.64533   -7178.4806    4399.8067   -11578.287    129.70174    -427.3691   -801.85119   -1097.7079    42.626481    69.800027   -157.92855      46.7237      46.7237      46.7237           90           90           90     102002.7   -775.64273 
  966000       965492    -6486.478    677.71817   -7164.1962    4411.4785   -11575.675    130.29249   -689.53876   -528.05053   -768.46507    204.86128   -57.246795   -87.587955      46.7237      46.7237      46.7237           90           90           90     102002.7   -662.01812 
  967000       966492   -6469.6015    676.39504   -7145.9965    4439.3398   -11585.336    130.03812   -703.16614   -740.93508   -694.73369    253.58754   -382.98585    68.467099      46.7237      46.7237      46.7237           90           90           90     102002.7   -712.94497 
  968000       967492   -6487.1409    679.59774   -7166.7386    4403.1403   -11569.879    130.65384   -567.89972   -535.07405    -828.6792    20.543013    3.8698485    161.60741      46.7237      46.7237      46.7237           90           90           90     102002.7   -643.88432 
  969000       968492   -6500.1949    677.78338   -7177.9783    4417.6388   -11595.617    130.30503   -554.66462    -750.6505   -1057.9148   -147.40831    25.242709   -140.17729      46.7237      46.7237      46.7237           90           90           90     102002.7   -787.74329 
  970000       969492   -6457.2094    671.55543   -7128.7648     4459.783   -11588.548     129.1077   -750.86574   -758.37966   -819.14555   -268.75696    327.14404   -197.93169      46.7237      46.7237      46.7237           90           90           90     102002.7   -776.13031 
  971000       970492   -6505.3638    663.19738   -7168.5612    4406.6602   -11575.221    127.50085   -1017.9228   -1104.9137   -817.76826   -81.172562   -77.724841   -81.131597      46.7237      46.7237      46.7237           90           90           90     102002.7   -980.20157 
  972000       971492   -6470.2609    697.15856   -7167.4194    4410.6247   -11578.044    134.02994   -971.04873   -811.02382   -1308.0419   -98.595296   -97.483876   -283.60886      46.7237      46.7237      46.7237           90           90           90     102002.7   -1030.0382 
  973000       972492   -6493.9103    678.69345   -7172.6037     4420.637   -11593.241    130.47999   -1341.5411   -907.95764   -1038.3511    74.227328   -99.129696    -199.9407      46.7237      46.7237      46.7237           90           90           90     102002.7     -1095.95 
  974000       973492   -6464.7186    680.93869   -7145.6573    4431.3242   -11576.981    130.91164   -275.08722   -659.64562    -335.2203   -124.06163   -17.705741   -235.23678      46.7237      46.7237      46.7237           90           90           90     102002.7   -423.31771 
  975000       974492   -6488.4479    655.11483   -7143.5627    4436.5637   -11580.126    125.94696   -590.54679    -661.0097   -735.07604   -90.109731   -61.216457   -123.20059      46.7237      46.7237      46.7237           90           90           90     102002.7   -662.21084 
  976000       975492   -6489.7697    670.66431    -7160.434    4428.8213   -11589.255    128.93638   -540.05275     -1164.68   -604.80307    7.1051351    9.6318642    18.432546      46.7237      46.7237      46.7237           90           90           90     102002.7   -769.84528 
  977000       976492   -6509.6878    662.59198   -7172.2798    4394.7753   -11567.055    127.38446    -674.5655   -504.74615   -208.01412   -26.612572   -181.65174    198.94685      46.7237      46.7237      46.7237           90           90           90     102002.7   -462.44193 
  978000       977492   -6452.2225    704.49894   -7156.7215    4414.4166   -11571.138    135.44114   -398.44043   -526.90884   -980.62182   -447.29114    63.022728   -67.084255      46.7237      46.7237      46.7237           90           90           90     102002.7   -635.32369 
  979000       978492   -6490.8974    680.78709   -7171.6845    4412.6805   -11584.365     130.8825   -789.87558   -838.11062   -1051.7294   -112.42903   -72.734036   -43.999633      46.7237      46.7237      46.7237           90           90           90     102002.7   -893.23854 
  980000       979492   -6502.2316    667.95056   -7170.1821    4426.1788   -11596.361    128.41465   -1210.8173   -848.93736   -1118.2974    164.65838   -153.98818    12.963073      46.7237      46.7237      46.7237           90           90           90     102002.7   -1059.3507 
  981000       980492   -6469.9514    689.08023   -7159.0316    4414.1246   -11573.156    132.47687   -756.51185   -1236.3904   -513.48984   -330.72081   -12.793785   -53.682914      46.7237      46.7237      46.7237           90           90           90     102002.7   -835.46404 
  982000       981492   -6486.3553    680.68068    -7167.036    4415.0623   -11582.098    130.86204   -556.23255    -733.6756   -1232.4123   -66.629911   -463.50926    86.852976      46.7237      46.7237      46.7237           90           90           90     102002.7    -840.7735 
  983000       982492    -6487.971    689.45555   -7177.4266    4426.2245   -11603.651    132.54903    -566.9205   -990.28966   -629.79127    276.57657   -283.41323   -273.99886      46.7237      46.7237      46.7237           90           90           90     102002.7   -729.00048 
  984000       983492   -6501.2017    682.71377   -7183.9155    4397.9643    -11581.88    131.25291   -452.75177   -1049.7639   -1025.2866    41.874677   -85.465232    108.32218      46.7237      46.7237      46.7237           90           90           90     102002.7   -842.60076 
  985000       984492   -6507.3892    668.91528   -7176.3044    4399.8302   -11576.135    128.60012   -317.99525   -537.55218   -597.01735    140.04072   -51.927022   -117.82995      46.7237      46.7237      46.7237           90           90           90     102002.7   -484.18826 
  986000       985492   -6465.6659    681.90595   -7147.5718    4439.3592   -11586.931     131.0976   -1104.2269   -1169.7853   -793.69294     221.0318   -63.586171   -253.95277      46.7237      46.7237      46.7237           90           90           90     102002.7   -1022.5684 
  987000       986492   -6486.6905    687.04624   -7173.7368    4392.9995   -11566.736    132.08583    -955.0896   -19.108284   -306.05083    335.07396    69.096073   -381.48844      46.7237      46.7237      46.7237           90           90           90     102002.7   -426.74957 
  988000       987492   -6485.4338    676.79592   -7162.2298    4430.3283   -11592.558    130.11519   -876.29337   -800.11112   -954.17842    68.946865   -58.489827   -70.703741      46.7237      46.7237      46.7237           90           90           90     102002.7   -876.86097 
  989000       988492   -6468.6291    694.12501   -7162.7541    4424.3174   -11587.072    133.44674   -1135.3844    -536.3632   -837.44481    -371.5652    161.32394    92.436608      46.7237      46.7237      46.7237           90           90           90     102002.7   -836.39748 
  990000       989492   -6486.5402    685.17866   -7171.7188    4399.9233   -11571.642    131.72678   -158.43311   -879.50807   -1077.3411    16.151565    18.715417   -101.18176      46.7237      46.7237      46.7237           90           90           90     102002.7   -705.09409 
  991000       990492   -6520.8601     678.0022   -7198.8623    4371.0271   -11569.889     130.3471   -937.12639   -1005.7464   -968.72829    37.596301   -185.92176   -70.600457      46.7237      46.7237      46.7237           90           90           90     102002.7   -970.53368 
  992000       991492    -6493.427    678.44491   -7171.8719    4431.8424   -11603.714    130.43221   -695.13473   -887.72482   -413.05474   -278.10725   -255.03766    146.90645      46.7237      46.7237      46.7237           90           90           90     102002.7   -665.30476 
  993000       992492    -6506.506    664.82054   -7171.3265    4410.4431    -11581.77     127.8129   -1059.4283   -908.00551   -1034.5371   -273.87577    249.54162    89.624513      46.7237      46.7237      46.7237           90           90           90     102002.7    -1000.657 
  994000       993492   -6490.9631    673.57252   -7164.5357     4425.796   -11590.332    129.49549   -777.45217   -991.96272   -1078.9103   -74.412403   -84.847275   -218.98256      46.7237      46.7237      46.7237           90           90           90     102002.7   -949.44173 
  995000       994492   -6490.5444    678.21779   -7168.7621    4435.0112   -11603.773    130.38855   -1159.3159   -1352.6544   -1092.1692   -46.465787   -40.992835    178.05635      46.7237      46.7237      46.7237           90           90           90     102002.7   -1201.3798 
  996000       995492   -6489.9504    669.48119   -7159.4316    4403.3233   -11562.755    128.70892   -754.76352   -1387.6861   -1455.1673    98.563444   -286.49945    224.75939      46.7237      46.7237      46.7237           90           90           90     102002.7   -1199.2056 
  997000       996492   -6489.4301    674.96304   -7164.3932    4442.0284   -11606.422    129.76281   -771.38562    -1039.085   -800.40099    -91.06255    34.491704   -315.30497      46.7237      46.7237      46.7237           90           90           90     102002.7   -870.29053 
  998000       997492   -6474.4631    687.83937   -7162.3025    4406.7996   -11569.102    132.23831   -560.90056   -1136.5976   -676.42828   -109.75207   -232.53525   -84.866828      46.7237      46.7237      46.7237           90           90           90     102002.7   -791.30883 
  999000       998492   -6479.3678     669.5087   -7148.8765     4432.461   -11581.338    128.71421   -682.34577   -1246.8945   -1383.9822   -72.319809   -5.8693979    151.92048      46.7237      46.7237      46.7237           90           90           90     102002.7   -1104.4075 
 1000000       999492   -6502.8417     666.0446   -7168.8863     4416.874    -11585.76    128.04823   -753.86568   -750.78849   -932.36843   -98.103799   -123.63871    148.05615      46.7237      46.7237      46.7237           90           90           90     102002.7   -812.34087 
 1000508      1000000   -6514.9853    643.57665    -7158.562    4419.2648   -11577.827    123.72873   -586.48604   -888.88722   -309.94464   -132.56454   -39.737774    50.723004      46.7237      46.7237      46.7237           90           90           90     102002.7   -595.10597 
Loop time of 1517.77 on 16 procs for 500000 steps with 1746 atoms

Performance: 28.463 ns/day, 0.843 hours/ns, 329.430 timesteps/s
99.8% CPU use with 16 MPI tasks x no OpenMP threads

MPI task timing breakdown:
Section |  min time  |  avg time  |  max time  |%varavg| %total
---------------------------------------------------------------
Pair    | 514.69     | 775.72     | 1046.4     | 711.3 | 51.11
Bond    | 155.88     | 183.33     | 208.06     | 156.0 | 12.08
Neigh   | 4.7195     | 4.7589     | 4.8021     |   1.2 |  0.31
Comm    | 232.98     | 525.84     | 813.97     | 950.3 | 34.65
Output  | 0.098613   | 0.10345    | 0.10384    |   0.4 |  0.01
Modify  | 21.558     | 22.679     | 23.691     |  14.7 |  1.49
Other   |            | 5.342      |            |       |  0.35

Nlocal:    109.125 ave 135 max 74 min
Histogram: 1 0 0 2 2 5 2 2 0 2
Nghost:    2217.88 ave 2247 max 2192 min
Histogram: 2 0 1 3 6 0 1 0 2 1
Neighs:    11458.8 ave 16830 max 7202 min
Histogram: 2 3 3 1 0 0 2 2 2 1

Total # of neighbors = 183341
Ave neighs/atom = 105.006
Ave special neighs/atom = 6.59794
Neighbor list builds = 3904
Dangerous builds = 0
Total wall time: 0:48:03
