LAMMPS (30 Mar 2018)
Reading data file ...
  orthogonal box = (0 0 0) to (46.7237 46.7237 46.7237)
  2 by 3 by 4 MPI processor grid
  reading atoms ...
  1732 atoms
  scanning bonds ...
  5 = max bonds/atom
  scanning angles ...
  10 = max angles/atom
  scanning dihedrals ...
  32 = max dihedrals/atom
  scanning impropers ...
  3 = max impropers/atom
  reading bonds ...
  2064 bonds
  reading angles ...
  3696 angles
  reading dihedrals ...
  6240 dihedrals
  reading impropers ...
  1008 impropers
Finding 1-2 1-3 1-4 neighbors ...
  special bond factors lj:   0          0          0         
  special bond factors coul: 0          0          0         
  5 = max # of 1-2 neighbors
  8 = max # of 1-3 neighbors
  20 = max # of 1-4 neighbors
  19 = max # of special neighbors
Finding 1-2 1-3 1-4 neighbors ...
  special bond factors lj:   0          0          1         
  special bond factors coul: 1          1          1         
  5 = max # of 1-2 neighbors
  8 = max # of 1-3 neighbors
  19 = max # of special neighbors
WARNING: Using 'neigh_modify every 1 delay 0 check yes' setting during minimization (../min.cpp:168)
Neighbor list info ...
  update every 1 steps, delay 0 steps, check yes
  max neighbors/atom: 2000, page size: 100000
  master list distance cutoff = 16
  ghost atom cutoff = 16
  binsize = 8, bins = 6 6 6
  3 neighbor lists, perpetual/occasional/extra = 3 0 0
  (1) pair buck6d/coul/gauss/dsf, perpetual, skip from (3)
      attributes: half, newton on
      pair build: skip
      stencil: none
      bin: none
  (2) pair lj/cut, perpetual, skip from (3)
      attributes: half, newton on
      pair build: skip
      stencil: none
      bin: none
  (3) neighbor class addition, perpetual
      attributes: half, newton on
      pair build: half/bin/newton
      stencil: half/bin/3d/newton
      bin: standard
Setting up cg style minimization ...
  Unit style    : real
  Current step  : 0
WARNING: Inconsistent image flags (../domain.cpp:786)
Per MPI rank memory allocation (min/avg/max) = 22.87 | 23.27 | 24.42 Mbytes
Step Temp E_pair E_mol TotEng Press 
       0            0   -11525.036    6482.8914    -5042.145    6285.7335 
     505            0   -11548.611    3738.5038   -7810.1068   -488.86168 
Loop time of 1.19277 on 24 procs for 505 steps with 1732 atoms

99.8% CPU use with 24 MPI tasks x no OpenMP threads

Minimization stats:
  Stopping criterion = max force evaluations
  Energy initial, next-to-last, final = 
        -5042.14504116     -7810.06734519     -7810.10677952
  Force two-norm initial, final = 2576.97 9.03481
  Force max component initial, final = 151.967 1.85083
  Final line search alpha, max atom move = 0.014062 0.0260263
  Iterations, force evaluations = 505 1000

MPI task timing breakdown:
Section |  min time  |  avg time  |  max time  |%varavg| %total
---------------------------------------------------------------
Pair    | 0.45349    | 0.60177    | 0.74918    |   9.3 | 50.45
Bond    | 0.1271     | 0.15739    | 0.19555    |   5.6 | 13.20
Neigh   | 0.0066158  | 0.006714   | 0.0068101  |   0.1 |  0.56
Comm    | 0.25874    | 0.40578    | 0.57466    |  11.2 | 34.02
Output  | 0          | 0          | 0          |   0.0 |  0.00
Modify  | 0          | 0          | 0          |   0.0 |  0.00
Other   |            | 0.02112    |            |       |  1.77

Nlocal:    72.1667 ave 90 max 59 min
Histogram: 3 2 1 8 1 4 1 2 1 1
Nghost:    1969 ave 2143 max 1870 min
Histogram: 14 2 0 0 0 0 0 0 0 8
Neighs:    7630.38 ave 10997 max 4304 min
Histogram: 1 1 3 5 2 5 0 3 3 1

Total # of neighbors = 183129
Ave neighs/atom = 105.733
Ave special neighs/atom = 6.65127
Neighbor list builds = 13
Dangerous builds = 0
Neighbor list info ...
  update every 1 steps, delay 10 steps, check yes
  max neighbors/atom: 2000, page size: 100000
  master list distance cutoff = 16
  ghost atom cutoff = 16
  binsize = 8, bins = 6 6 6
  3 neighbor lists, perpetual/occasional/extra = 3 0 0
  (1) pair buck6d/coul/gauss/dsf, perpetual, skip from (3)
      attributes: half, newton on
      pair build: skip
      stencil: none
      bin: none
  (2) pair lj/cut, perpetual, skip from (3)
      attributes: half, newton on
      pair build: skip
      stencil: none
      bin: none
  (3) neighbor class addition, perpetual
      attributes: half, newton on
      pair build: half/bin/newton
      stencil: half/bin/3d/newton
      bin: standard
Setting up Verlet run ...
  Unit style    : real
  Current step  : 505
  Time step     : 1
WARNING: Inconsistent image flags (../domain.cpp:786)
Per MPI rank memory allocation (min/avg/max) = 22.52 | 22.69 | 23.29 Mbytes
Step Temp PotEng TotEng Press Volume Lx Ly Lz 
     505          110   -7810.1068   -7242.5307   -234.50378     102002.7      46.7237      46.7237      46.7237 
    1000    97.345342   -7307.9654   -6805.6846   -720.05485     102002.7      46.7237      46.7237      46.7237 
    2000    105.19219    -7192.574   -6649.8052    -933.0663     102002.7      46.7237      46.7237      46.7237 
    3000    108.33311   -7231.2342   -6672.2589   -855.21782     102002.7      46.7237      46.7237      46.7237 
    4000    106.36221   -7230.3142   -6681.5084   -615.33074     102002.7      46.7237      46.7237      46.7237 
    5000    108.83898    -7220.918   -6659.3325   -620.23677     102002.7      46.7237      46.7237      46.7237 
    6000    106.27347   -7249.3476   -6700.9996    -472.4581     102002.7      46.7237      46.7237      46.7237 
    7000    109.32176    -7247.648   -6683.5715    -722.8697     102002.7      46.7237      46.7237      46.7237 
    8000    111.60158   -7223.1337   -6647.2939   -782.28303     102002.7      46.7237      46.7237      46.7237 
    9000    108.30632   -7237.9199   -6679.0829   -704.75247     102002.7      46.7237      46.7237      46.7237 
   10000    110.56486   -7237.2921   -6666.8015   -772.53036     102002.7      46.7237      46.7237      46.7237 
   11000    109.41447   -7224.0145   -6659.4597   -810.47852     102002.7      46.7237      46.7237      46.7237 
   12000    107.42782   -7238.2319   -6683.9277   -1014.4942     102002.7      46.7237      46.7237      46.7237 
   13000    112.49726   -7230.9629   -6650.5016   -987.23695     102002.7      46.7237      46.7237      46.7237 
   14000    111.18429     -7240.03   -6666.3433   -1015.6992     102002.7      46.7237      46.7237      46.7237 
   15000    106.48893   -7232.5094   -6683.0497   -1068.4488     102002.7      46.7237      46.7237      46.7237 
   16000    110.06093    -7225.282   -6657.3916   -818.52801     102002.7      46.7237      46.7237      46.7237 
   17000    109.74266   -7222.7903    -6656.542   -623.32659     102002.7      46.7237      46.7237      46.7237 
   18000      107.748   -7231.1266   -6675.1704   -655.57674     102002.7      46.7237      46.7237      46.7237 
   19000    109.23455   -7250.2013   -6686.5749    -816.5034     102002.7      46.7237      46.7237      46.7237 
   20000    110.06094   -7229.6529   -6661.7624   -776.74787     102002.7      46.7237      46.7237      46.7237 
   21000    109.84214   -7254.2454   -6687.4839   -587.26214     102002.7      46.7237      46.7237      46.7237 
   22000    110.71751   -7247.1368   -6675.8586   -905.43212     102002.7      46.7237      46.7237      46.7237 
   23000      113.584   -7240.7733   -6654.7046   -560.16785     102002.7      46.7237      46.7237      46.7237 
   24000    104.63051   -7229.5101   -6689.6395   -844.47806     102002.7      46.7237      46.7237      46.7237 
   25000    108.46849   -7234.2971   -6674.6233   -698.14528     102002.7      46.7237      46.7237      46.7237 
   26000    115.27734   -7233.2299   -6638.4239   -610.96376     102002.7      46.7237      46.7237      46.7237 
   27000    109.73693   -7222.3557    -6656.137   -1144.9181     102002.7      46.7237      46.7237      46.7237 
   28000    113.70919    -7218.664   -6631.9493   -605.99644     102002.7      46.7237      46.7237      46.7237 
   29000    108.70213   -7233.9439   -6673.0646   -821.78059     102002.7      46.7237      46.7237      46.7237 
   30000    107.32687   -7215.1282    -6661.345   -629.72769     102002.7      46.7237      46.7237      46.7237 
   31000    111.15442   -7219.4701   -6645.9375   -667.02608     102002.7      46.7237      46.7237      46.7237 
   32000    108.06386   -7243.3371   -6685.7511    -641.0958     102002.7      46.7237      46.7237      46.7237 
   33000    110.87994    -7231.636   -6659.5196   -754.23936     102002.7      46.7237      46.7237      46.7237 
   34000    110.12604   -7226.8972   -6658.6709   -572.66817     102002.7      46.7237      46.7237      46.7237 
   35000    110.37026   -7242.5847   -6673.0982   -376.66933     102002.7      46.7237      46.7237      46.7237 
   36000    108.81174    -7237.998   -6676.5531   -591.24698     102002.7      46.7237      46.7237      46.7237 
   37000    111.20122   -7232.7589   -6658.9848    -554.1253     102002.7      46.7237      46.7237      46.7237 
   38000     109.0298    -7230.023    -6667.453   -964.16035     102002.7      46.7237      46.7237      46.7237 
   39000    113.32513    -7241.208   -6656.4751   -777.63068     102002.7      46.7237      46.7237      46.7237 
   40000    113.51926   -7217.7017    -6631.967   -743.15677     102002.7      46.7237      46.7237      46.7237 
   41000    109.12594   -7235.0219   -6671.9559   -823.23927     102002.7      46.7237      46.7237      46.7237 
   42000    111.30315   -7218.0178   -6643.7178   -619.94685     102002.7      46.7237      46.7237      46.7237 
   43000    111.77567   -7245.2526   -6668.5145   -556.28886     102002.7      46.7237      46.7237      46.7237 
   44000    111.00761   -7229.3107   -6656.5357   -924.92909     102002.7      46.7237      46.7237      46.7237 
   45000     109.6709    -7253.955   -6688.0771   -781.32911     102002.7      46.7237      46.7237      46.7237 
   46000    109.32927   -7234.3242    -6670.209   -842.61811     102002.7      46.7237      46.7237      46.7237 
   47000    113.53159   -7221.6054   -6635.8072   -1012.5932     102002.7      46.7237      46.7237      46.7237 
   48000     110.4959     -7240.97   -6670.8353   -625.02203     102002.7      46.7237      46.7237      46.7237 
   49000    108.47004    -7225.411   -6665.7292   -705.19215     102002.7      46.7237      46.7237      46.7237 
   50000     110.0821   -7253.5076   -6685.5079   -663.94537     102002.7      46.7237      46.7237      46.7237 
   51000    111.66494   -7249.1898    -6673.023   -815.13113     102002.7      46.7237      46.7237      46.7237 
   52000    112.02141   -7226.3456   -6648.3395    -715.7513     102002.7      46.7237      46.7237      46.7237 
   53000    110.41811   -7239.6843   -6669.9509   -568.05483     102002.7      46.7237      46.7237      46.7237 
   54000    109.93344   -7247.8553   -6680.6227   -850.27118     102002.7      46.7237      46.7237      46.7237 
   55000    110.76772   -7228.1132   -6656.5759    -824.3812     102002.7      46.7237      46.7237      46.7237 
   56000    110.88175   -7223.0783   -6650.9527   -719.50292     102002.7      46.7237      46.7237      46.7237 
   57000    109.79119    -7243.415   -6676.9164   -1019.3017     102002.7      46.7237      46.7237      46.7237 
   58000    110.61366   -7239.3747   -6668.6323    -760.8067     102002.7      46.7237      46.7237      46.7237 
   59000     111.2905   -7227.2376   -6653.0029   -731.43598     102002.7      46.7237      46.7237      46.7237 
   60000     112.4852   -7232.7136   -6652.3144    -717.3789     102002.7      46.7237      46.7237      46.7237 
   61000    108.67327   -7237.6262   -6676.8958   -788.40819     102002.7      46.7237      46.7237      46.7237 
   62000    108.27093   -7227.9027   -6669.2483   -942.31122     102002.7      46.7237      46.7237      46.7237 
   63000    108.71612   -7227.7002   -6666.7487   -934.34813     102002.7      46.7237      46.7237      46.7237 
   64000    107.84126   -7241.6292   -6685.1918   -855.35122     102002.7      46.7237      46.7237      46.7237 
   65000    113.44386   -7228.4245   -6643.0789   -678.18214     102002.7      46.7237      46.7237      46.7237 
   66000    108.92429   -7233.7016    -6671.676   -697.33065     102002.7      46.7237      46.7237      46.7237 
   67000    111.70088   -7218.7756   -6642.4234   -576.15192     102002.7      46.7237      46.7237      46.7237 
   68000    111.90517   -7237.3436   -6659.9373   -470.51531     102002.7      46.7237      46.7237      46.7237 
   69000    109.75704   -7252.7653   -6686.4428   -991.06995     102002.7      46.7237      46.7237      46.7237 
   70000    112.93121   -7241.9909   -6659.2904   -362.55143     102002.7      46.7237      46.7237      46.7237 
   71000    110.38573   -7217.3751   -6647.8088   -754.19416     102002.7      46.7237      46.7237      46.7237 
   72000    110.43001   -7256.7007   -6686.9059   -623.24117     102002.7      46.7237      46.7237      46.7237 
   73000    110.60006   -7240.1634   -6669.4912   -733.13535     102002.7      46.7237      46.7237      46.7237 
   74000    111.79902   -7226.6584   -6649.7998   -553.36204     102002.7      46.7237      46.7237      46.7237 
   75000    108.92788    -7241.749   -6679.7049   -285.89591     102002.7      46.7237      46.7237      46.7237 
   76000    111.83557   -7222.1281   -6645.0809   -879.44766     102002.7      46.7237      46.7237      46.7237 
   77000    108.90772   -7247.4244   -6685.4843   -424.14811     102002.7      46.7237      46.7237      46.7237 
   78000    109.21151   -7232.7438   -6669.2362    -830.5996     102002.7      46.7237      46.7237      46.7237 
   79000    114.14082   -7237.3128   -6648.3711   -841.76684     102002.7      46.7237      46.7237      46.7237 
   80000    108.70948   -7228.7521   -6667.8349   -673.89125     102002.7      46.7237      46.7237      46.7237 
   81000    110.45166   -7222.8786    -6652.972   -1124.8034     102002.7      46.7237      46.7237      46.7237 
   82000    107.45436   -7246.7429   -6692.3018   -277.04809     102002.7      46.7237      46.7237      46.7237 
   83000    113.08879   -7242.7054   -6659.1918   -675.16751     102002.7      46.7237      46.7237      46.7237 
   84000    107.21183   -7231.8193   -6678.6296   -434.28509     102002.7      46.7237      46.7237      46.7237 
   85000    110.80997   -7201.0369   -6629.2816   -623.66904     102002.7      46.7237      46.7237      46.7237 
   86000    112.04484   -7233.8549   -6655.7279   -427.54929     102002.7      46.7237      46.7237      46.7237 
   87000     107.9077   -7234.0124   -6677.2321   -607.52552     102002.7      46.7237      46.7237      46.7237 
   88000     110.8525   -7256.7435   -6684.7687   -662.93254     102002.7      46.7237      46.7237      46.7237 
   89000    111.71573   -7243.7622   -6667.3334   -466.72021     102002.7      46.7237      46.7237      46.7237 
   90000    112.31124   -7261.1493   -6681.6478   -1024.6778     102002.7      46.7237      46.7237      46.7237 
   91000    107.57413   -7224.5761    -6669.517   -934.70117     102002.7      46.7237      46.7237      46.7237 
   92000    110.80726   -7249.4737   -6677.7324   -729.54106     102002.7      46.7237      46.7237      46.7237 
   93000     104.6743    -7224.224   -6684.1274   -690.71688     102002.7      46.7237      46.7237      46.7237 
   94000    110.36719   -7218.2867   -6648.8161   -862.32052     102002.7      46.7237      46.7237      46.7237 
   95000    111.32995    -7246.122   -6671.6837   -735.55393     102002.7      46.7237      46.7237      46.7237 
   96000    107.46436   -7202.3002   -6647.8075   -693.15342     102002.7      46.7237      46.7237      46.7237 
   97000    109.62858   -7240.0137   -6674.3541   -889.95776     102002.7      46.7237      46.7237      46.7237 
   98000    109.47287   -7227.3726   -6662.5164   -705.54163     102002.7      46.7237      46.7237      46.7237 
   99000    107.46461   -7252.4588   -6697.9648    -915.8682     102002.7      46.7237      46.7237      46.7237 
  100000    108.35805   -7228.9826   -6669.8787   -543.24266     102002.7      46.7237      46.7237      46.7237 
  101000    111.65371   -7209.0936   -6632.9848   -367.58426     102002.7      46.7237      46.7237      46.7237 
  102000    110.39633   -7242.7156   -6673.0946   -844.97983     102002.7      46.7237      46.7237      46.7237 
  103000    113.20818   -7246.1753   -6662.0458   -561.03063     102002.7      46.7237      46.7237      46.7237 
  104000    108.83922   -7221.6431   -6660.0564   -726.23916     102002.7      46.7237      46.7237      46.7237 
  105000    106.49617   -7242.3929   -6692.8958   -697.72428     102002.7      46.7237      46.7237      46.7237 
  106000    110.61196   -7229.2705   -6658.5368   -595.03044     102002.7      46.7237      46.7237      46.7237 
  107000    111.43183   -7244.3121   -6669.3482   -788.71202     102002.7      46.7237      46.7237      46.7237 
  108000    112.22887    -7209.062   -6629.9855   -679.46077     102002.7      46.7237      46.7237      46.7237 
  109000    107.13144   -7231.2996   -6678.5247   -576.76705     102002.7      46.7237      46.7237      46.7237 
  110000    106.97326   -7212.3358   -6660.3771   -1240.6029     102002.7      46.7237      46.7237      46.7237 
  111000    110.16342   -7220.8824   -6652.4631   -579.63584     102002.7      46.7237      46.7237      46.7237 
  112000    116.48837   -7235.5021   -6634.4474   -748.84877     102002.7      46.7237      46.7237      46.7237 
  113000     108.6728   -7232.8969   -6672.1689   -838.03711     102002.7      46.7237      46.7237      46.7237 
  114000    115.18604   -7231.6461   -6637.3112   -305.78527     102002.7      46.7237      46.7237      46.7237 
  115000    109.87534   -7244.6598    -6677.727   -591.18632     102002.7      46.7237      46.7237      46.7237 
  116000    116.44205   -7247.2041   -6646.3884   -331.23409     102002.7      46.7237      46.7237      46.7237 
  117000    108.39236   -7228.6536   -6669.3726   -700.72341     102002.7      46.7237      46.7237      46.7237 
  118000    106.82762   -7237.0722    -6685.865   -542.21465     102002.7      46.7237      46.7237      46.7237 
  119000    110.26785   -7225.3848   -6656.4268   -734.03518     102002.7      46.7237      46.7237      46.7237 
  120000    108.37008   -7240.6509   -6681.4849   -714.54551     102002.7      46.7237      46.7237      46.7237 
  121000    113.64472   -7229.8271   -6643.4452   -635.17098     102002.7      46.7237      46.7237      46.7237 
  122000    106.92329   -7228.4415   -6676.7406   -889.31507     102002.7      46.7237      46.7237      46.7237 
  123000    111.82688   -7231.0622   -6654.0599   -293.88482     102002.7      46.7237      46.7237      46.7237 
  124000    107.94326   -7243.6872   -6686.7235    -865.5555     102002.7      46.7237      46.7237      46.7237 
  125000    107.32159   -7243.0209   -6689.2649   -816.42107     102002.7      46.7237      46.7237      46.7237 
  126000    110.84311   -7228.2367   -6656.3104   -578.50557     102002.7      46.7237      46.7237      46.7237 
  127000     109.7933   -7235.7782   -6669.2687   -638.70781     102002.7      46.7237      46.7237      46.7237 
  128000    109.38716   -7242.4611   -6678.0471   -610.03718     102002.7      46.7237      46.7237      46.7237 
  129000    108.84211   -7231.5986    -6669.997   -845.26478     102002.7      46.7237      46.7237      46.7237 
  130000    111.52105   -7226.0472   -6650.6229   -729.89495     102002.7      46.7237      46.7237      46.7237 
  131000    109.53918   -7239.7757   -6674.5774   -553.33211     102002.7      46.7237      46.7237      46.7237 
  132000    109.04119   -7228.4421   -6665.8133   -647.96925     102002.7      46.7237      46.7237      46.7237 
  133000    106.08075   -7239.2168   -6691.8632   -976.87171     102002.7      46.7237      46.7237      46.7237 
  134000    111.61306   -7240.9258   -6665.0267   -858.17378     102002.7      46.7237      46.7237      46.7237 
  135000    106.31676   -7228.8474    -6680.276   -757.05086     102002.7      46.7237      46.7237      46.7237 
  136000    112.10974   -7224.2801   -6645.8183   -977.58639     102002.7      46.7237      46.7237      46.7237 
  137000    110.90417   -7241.6641   -6669.4227    -787.0138     102002.7      46.7237      46.7237      46.7237 
  138000    108.86539   -7237.1478   -6675.4261     -704.573     102002.7      46.7237      46.7237      46.7237 
  139000    111.68482   -7225.2612   -6648.9918   -675.93823     102002.7      46.7237      46.7237      46.7237 
  140000    108.03477   -7230.8159   -6673.3801   -601.81153     102002.7      46.7237      46.7237      46.7237 
  141000    114.79376   -7237.6667   -6645.3558   -582.59678     102002.7      46.7237      46.7237      46.7237 
  142000    107.99595   -7258.0786   -6700.8431   -601.80206     102002.7      46.7237      46.7237      46.7237 
  143000    108.89967   -7234.5058   -6672.6072   -1045.4509     102002.7      46.7237      46.7237      46.7237 
  144000    115.38415    -7206.927   -6611.5699   -658.19252     102002.7      46.7237      46.7237      46.7237 
  145000    109.08645   -7233.2516   -6670.3893   -569.06756     102002.7      46.7237      46.7237      46.7237 
  146000    111.49273   -7243.4697   -6668.1915   -820.29598     102002.7      46.7237      46.7237      46.7237 
  147000    111.28953    -7221.814   -6647.5843   -472.48654     102002.7      46.7237      46.7237      46.7237 
  148000    112.12339   -7239.8647   -6661.3324    -628.6396     102002.7      46.7237      46.7237      46.7237 
  149000    106.52995   -7240.1977   -6690.5264   -829.48105     102002.7      46.7237      46.7237      46.7237 
  150000    107.33735   -7226.0993    -6672.262   -692.77903     102002.7      46.7237      46.7237      46.7237 
  151000    110.58617   -7208.8263   -6638.2257   -759.34588     102002.7      46.7237      46.7237      46.7237 
  152000     109.6024   -7242.5888   -6677.0643   -536.12868     102002.7      46.7237      46.7237      46.7237 
  153000    107.28214   -7235.1598   -6681.6073   -495.36926     102002.7      46.7237      46.7237      46.7237 
  154000    111.63134   -7233.8106   -6657.8172   -657.91455     102002.7      46.7237      46.7237      46.7237 
  155000    107.04877   -7230.5087   -6678.1604   -429.97386     102002.7      46.7237      46.7237      46.7237 
  156000    115.12884   -7220.2259   -6626.1861   -922.12704     102002.7      46.7237      46.7237      46.7237 
  157000    108.79845   -7233.9931   -6672.6168   -810.58535     102002.7      46.7237      46.7237      46.7237 
  158000     113.5801   -7239.9225   -6653.8739   -751.44693     102002.7      46.7237      46.7237      46.7237 
  159000    110.24515   -7212.6902   -6643.8493   -947.57965     102002.7      46.7237      46.7237      46.7237 
  160000    110.04549   -7244.3147   -6676.5039   -739.79896     102002.7      46.7237      46.7237      46.7237 
  161000    109.80424   -7233.7388   -6667.1728   -497.74522     102002.7      46.7237      46.7237      46.7237 
  162000    108.42234   -7245.0876    -6685.652   -409.45024     102002.7      46.7237      46.7237      46.7237 
  163000    108.83337   -7239.1147   -6677.5583   -827.15378     102002.7      46.7237      46.7237      46.7237 
  164000    110.92588   -7231.4245   -6659.0711    -410.7016     102002.7      46.7237      46.7237      46.7237 
  165000     110.2746   -7241.9865   -6672.9936   -862.79063     102002.7      46.7237      46.7237      46.7237 
  166000    113.48024   -7237.0869   -6651.5536   -763.58558     102002.7      46.7237      46.7237      46.7237 
  167000    112.08547   -7242.2072   -6663.8706   -426.34944     102002.7      46.7237      46.7237      46.7237 
  168000    106.86677   -7232.2916   -6680.8823   -852.75579     102002.7      46.7237      46.7237      46.7237 
  169000    110.66917   -7220.3853   -6649.3565   -426.88498     102002.7      46.7237      46.7237      46.7237 
  170000    109.31719   -7253.5129     -6689.46   -629.78373     102002.7      46.7237      46.7237      46.7237 
  171000    112.76249   -7228.4909    -6646.661    -886.2509     102002.7      46.7237      46.7237      46.7237 
  172000    112.48618   -7242.1491   -6661.7449   -551.16103     102002.7      46.7237      46.7237      46.7237 
  173000    108.96099   -7211.6665   -6649.4515   -668.48056     102002.7      46.7237      46.7237      46.7237 
  174000    108.84743   -7231.0678   -6669.4387   -751.23341     102002.7      46.7237      46.7237      46.7237 
  175000    111.73883   -7231.5363   -6654.9882   -585.75507     102002.7      46.7237      46.7237      46.7237 
  176000    107.07881   -7219.6366   -6667.1333   -533.21447     102002.7      46.7237      46.7237      46.7237 
  177000    108.85425   -7233.7395   -6672.0752   -691.33593     102002.7      46.7237      46.7237      46.7237 
  178000    115.46976   -7232.3595   -6636.5607   -942.27286     102002.7      46.7237      46.7237      46.7237 
  179000    107.98248   -7243.4145   -6686.2484   -1144.2293     102002.7      46.7237      46.7237      46.7237 
  180000     113.1169   -7232.8278   -6649.1693   -905.03285     102002.7      46.7237      46.7237      46.7237 
  181000    109.79675   -7226.8394   -6660.3121   -796.09514     102002.7      46.7237      46.7237      46.7237 
  182000    108.83101   -7231.9299   -6670.3856   -684.84157     102002.7      46.7237      46.7237      46.7237 
  183000    108.15456   -7230.3453   -6672.2914    -751.5403     102002.7      46.7237      46.7237      46.7237 
  184000    111.72547   -7257.9264   -6681.4473   -652.75739     102002.7      46.7237      46.7237      46.7237 
  185000    109.75809   -7223.1063   -6656.7785   -731.96345     102002.7      46.7237      46.7237      46.7237 
  186000    108.94154   -7230.9208   -6668.8062   -981.89146     102002.7      46.7237      46.7237      46.7237 
  187000    107.39273   -7222.9165   -6668.7934   -688.01872     102002.7      46.7237      46.7237      46.7237 
  188000    109.01457   -7227.4308   -6664.9394    -570.6178     102002.7      46.7237      46.7237      46.7237 
  189000    109.39073   -7233.9808   -6669.5484   -781.71696     102002.7      46.7237      46.7237      46.7237 
  190000    109.63307   -7226.1953   -6660.5125   -857.91094     102002.7      46.7237      46.7237      46.7237 
  191000    104.98737   -7236.7832   -6695.0712   -1011.8268     102002.7      46.7237      46.7237      46.7237 
  192000    112.37078   -7235.5702   -6655.7614   -932.70594     102002.7      46.7237      46.7237      46.7237 
  193000    106.93284   -7231.4657   -6679.7155    -887.1255     102002.7      46.7237      46.7237      46.7237 
  194000    108.15961   -7242.2018   -6684.1218    -1066.567     102002.7      46.7237      46.7237      46.7237 
  195000     110.2412   -7238.4765   -6669.6559   -726.27483     102002.7      46.7237      46.7237      46.7237 
  196000    110.96253   -7212.8331   -6640.2906   -795.91456     102002.7      46.7237      46.7237      46.7237 
  197000    105.86289    -7227.827   -6681.5975    -920.5152     102002.7      46.7237      46.7237      46.7237 
  198000    110.02513   -7223.5704   -6655.8647   -836.93056     102002.7      46.7237      46.7237      46.7237 
  199000    110.64451   -7201.4759   -6630.5743   -1012.2774     102002.7      46.7237      46.7237      46.7237 
  200000     110.7272   -7232.6261   -6661.2979   -1089.8644     102002.7      46.7237      46.7237      46.7237 
  201000     105.1825    -7238.442   -6695.7232   -914.26019     102002.7      46.7237      46.7237      46.7237 
  202000    112.27897   -7232.1838   -6652.8488   -895.31382     102002.7      46.7237      46.7237      46.7237 
  203000    107.05786   -7228.3833   -6675.9881   -730.39749     102002.7      46.7237      46.7237      46.7237 
  204000    106.16128   -7243.1026   -6695.3336   -722.76181     102002.7      46.7237      46.7237      46.7237 
  205000    111.47703   -7223.1202    -6647.923   -810.72488     102002.7      46.7237      46.7237      46.7237 
  206000    110.75417   -7240.2231   -6668.7557   -705.18569     102002.7      46.7237      46.7237      46.7237 
  207000    110.59497   -7225.3978   -6654.7519   -888.06067     102002.7      46.7237      46.7237      46.7237 
  208000    111.73915   -7206.1222   -6629.5725    -1041.375     102002.7      46.7237      46.7237      46.7237 
  209000    108.16622   -7237.9232   -6679.8091   -721.98826     102002.7      46.7237      46.7237      46.7237 
  210000    108.90264   -7217.2014   -6655.2875   -1158.1284     102002.7      46.7237      46.7237      46.7237 
  211000    110.84307     -7248.94   -6677.0139   -729.43867     102002.7      46.7237      46.7237      46.7237 
  212000    103.83319   -7230.3231   -6694.5664   -890.47446     102002.7      46.7237      46.7237      46.7237 
  213000    109.58737   -7238.5973   -6673.1504   -765.33501     102002.7      46.7237      46.7237      46.7237 
  214000    106.64868   -7230.9028   -6680.6189   -577.62374     102002.7      46.7237      46.7237      46.7237 
  215000    110.78594   -7229.2368   -6657.6055   -802.59829     102002.7      46.7237      46.7237      46.7237 
  216000    110.13049   -7248.5076   -6680.2583   -554.02952     102002.7      46.7237      46.7237      46.7237 
  217000    108.05144   -7228.0406   -6670.5187    -678.3649     102002.7      46.7237      46.7237      46.7237 
  218000    113.99417   -7227.7752   -6639.5901   -602.55827     102002.7      46.7237      46.7237      46.7237 
  219000    107.24391   -7232.2236   -6678.8684   -613.76163     102002.7      46.7237      46.7237      46.7237 
  220000    111.83769   -7236.0054   -6658.9473   -414.78087     102002.7      46.7237      46.7237      46.7237 
  221000    111.46376   -7204.3908    -6629.262   -759.19624     102002.7      46.7237      46.7237      46.7237 
  222000     111.0147   -7248.1409   -6675.3292   -843.83268     102002.7      46.7237      46.7237      46.7237 
  223000    111.12287   -7220.5789   -6647.2092   -643.34614     102002.7      46.7237      46.7237      46.7237 
  224000    111.51025   -7228.4607   -6653.0922   -953.26565     102002.7      46.7237      46.7237      46.7237 
  225000     111.3431   -7252.8699   -6678.3638   -683.36276     102002.7      46.7237      46.7237      46.7237 
  226000    108.22001   -7240.1247    -6681.733   -781.95488     102002.7      46.7237      46.7237      46.7237 
  227000     109.6227   -7223.9799   -6658.3506   -771.88618     102002.7      46.7237      46.7237      46.7237 
  228000    107.34716   -7238.4538   -6684.5659   -897.23145     102002.7      46.7237      46.7237      46.7237 
  229000    106.13588   -7225.2728   -6677.6347   -879.38421     102002.7      46.7237      46.7237      46.7237 
  230000    110.87057   -7225.8828   -6653.8147   -1099.0908     102002.7      46.7237      46.7237      46.7237 
  231000    111.44137   -7224.9128   -6649.8996   -674.51853     102002.7      46.7237      46.7237      46.7237 
  232000    106.12202   -7247.4305    -6699.864    -902.7959     102002.7      46.7237      46.7237      46.7237 
  233000    110.14436   -7229.8492   -6661.5283   -742.38015     102002.7      46.7237      46.7237      46.7237 
  234000    111.96112   -7255.5297   -6677.8347   -828.23686     102002.7      46.7237      46.7237      46.7237 
  235000    108.90627     -7215.96   -6654.0273   -728.23823     102002.7      46.7237      46.7237      46.7237 
  236000    108.43031   -7234.2215   -6674.7447   -959.99247     102002.7      46.7237      46.7237      46.7237 
  237000    111.85156   -7217.6305   -6640.5008   -827.78694     102002.7      46.7237      46.7237      46.7237 
  238000    112.79987   -7247.8354   -6665.8127   -731.61805     102002.7      46.7237      46.7237      46.7237 
  239000     109.4106   -7259.6472   -6695.1124   -614.85602     102002.7      46.7237      46.7237      46.7237 
  240000    111.08302   -7227.4619   -6654.2977   -505.48969     102002.7      46.7237      46.7237      46.7237 
  241000    106.84312   -7238.8315   -6687.5443   -793.14242     102002.7      46.7237      46.7237      46.7237 
  242000    113.39844   -7257.2124   -6672.1011    -299.7355     102002.7      46.7237      46.7237      46.7237 
  243000    109.72253    -7215.169   -6649.0246   -840.72099     102002.7      46.7237      46.7237      46.7237 
  244000    110.79919   -7242.3004   -6670.6007   -713.57887     102002.7      46.7237      46.7237      46.7237 
  245000    111.25446   -7232.4605   -6658.4117    -867.6026     102002.7      46.7237      46.7237      46.7237 
  246000    109.08286   -7236.1951   -6673.3513   -712.98896     102002.7      46.7237      46.7237      46.7237 
  247000    110.34022   -7220.0666   -6650.7351   -572.16576     102002.7      46.7237      46.7237      46.7237 
  248000      113.977   -7239.2652   -6651.1687   -709.41494     102002.7      46.7237      46.7237      46.7237 
  249000    107.21295   -7237.5049   -6684.3095   -25.427334     102002.7      46.7237      46.7237      46.7237 
  250000    112.83881   -7250.0331   -6667.8094   -980.95009     102002.7      46.7237      46.7237      46.7237 
  251000     109.4739   -7228.2455    -6663.384   -773.43691     102002.7      46.7237      46.7237      46.7237 
  252000    107.61977   -7211.3025   -6656.0079   -805.67904     102002.7      46.7237      46.7237      46.7237 
  253000    113.81608   -7234.6742   -6647.4081   -736.63183     102002.7      46.7237      46.7237      46.7237 
  254000    106.86095   -7250.8083   -6699.4291   -729.49648     102002.7      46.7237      46.7237      46.7237 
  255000     109.4163   -7218.4543     -6653.89   -881.37061     102002.7      46.7237      46.7237      46.7237 
  256000    107.93496    -7244.138   -6687.2171    -743.0681     102002.7      46.7237      46.7237      46.7237 
  257000    110.01279   -7228.1788   -6660.5367    -1066.352     102002.7      46.7237      46.7237      46.7237 
  258000    103.06065   -7215.8682   -6684.0977   -563.84953     102002.7      46.7237      46.7237      46.7237 
  259000     112.0124   -7238.3537   -6660.3942   -706.40011     102002.7      46.7237      46.7237      46.7237 
  260000    108.86177   -7216.9894   -6655.2864   -603.11134     102002.7      46.7237      46.7237      46.7237 
  261000    109.18267    -7246.369   -6683.0102   -882.75141     102002.7      46.7237      46.7237      46.7237 
  262000     106.7137   -7247.7382   -6697.1188   -786.72206     102002.7      46.7237      46.7237      46.7237 
  263000    111.84727   -7235.2705   -6658.1629   -912.26249     102002.7      46.7237      46.7237      46.7237 
  264000    111.44637   -7225.2029   -6650.1639   -753.27153     102002.7      46.7237      46.7237      46.7237 
  265000    108.85292   -7239.3689   -6677.7115   -747.36424     102002.7      46.7237      46.7237      46.7237 
  266000    110.78797   -7241.4195   -6669.7776   -742.24899     102002.7      46.7237      46.7237      46.7237 
  267000     111.5816   -7225.4411   -6649.7044    -652.0806     102002.7      46.7237      46.7237      46.7237 
  268000    108.67398   -7243.0885   -6682.3545    -686.2689     102002.7      46.7237      46.7237      46.7237 
  269000    108.95886   -7220.4693   -6658.2653   -511.47998     102002.7      46.7237      46.7237      46.7237 
  270000    111.74279   -7223.8801   -6647.3117     -366.246     102002.7      46.7237      46.7237      46.7237 
  271000    111.92369   -7244.1866   -6666.6847   -882.80001     102002.7      46.7237      46.7237      46.7237 
  272000    112.99382   -7217.5162   -6634.4927   -520.39812     102002.7      46.7237      46.7237      46.7237 
  273000     109.4152   -7235.2585   -6670.6999   -393.20042     102002.7      46.7237      46.7237      46.7237 
  274000     114.2956   -7243.4234    -6653.683   -590.41625     102002.7      46.7237      46.7237      46.7237 
  275000    107.45663   -7233.2011   -6678.7483   -432.48354     102002.7      46.7237      46.7237      46.7237 
  276000    110.71488   -7243.4043   -6672.1397   -528.08103     102002.7      46.7237      46.7237      46.7237 
  277000    112.43281   -7232.4927   -6652.3639   -552.97517     102002.7      46.7237      46.7237      46.7237 
  278000    108.39573   -7229.0649   -6669.7666   -580.71136     102002.7      46.7237      46.7237      46.7237 
  279000     106.6542    -7222.093   -6671.7805   -494.40312     102002.7      46.7237      46.7237      46.7237 
  280000     113.1778   -7216.3769   -6632.4041   -453.89363     102002.7      46.7237      46.7237      46.7237 
  281000    110.49431   -7239.8802   -6669.7536   -508.98153     102002.7      46.7237      46.7237      46.7237 
  282000    106.12004   -7231.1248   -6683.5685   -658.28697     102002.7      46.7237      46.7237      46.7237 
  283000     110.3353    -7231.055   -6661.7489   -515.22141     102002.7      46.7237      46.7237      46.7237 
  284000    111.05578   -7250.7374   -6677.7138   -807.02711     102002.7      46.7237      46.7237      46.7237 
  285000    109.72431   -7224.9744   -6658.8208   -723.37547     102002.7      46.7237      46.7237      46.7237 
  286000    107.12646   -7241.2869   -6688.5377   -1109.9356     102002.7      46.7237      46.7237      46.7237 
  287000    105.94203   -7206.7564   -6660.1186   -649.92628     102002.7      46.7237      46.7237      46.7237 
  288000    110.20879   -7246.5998   -6677.9465   -752.17916     102002.7      46.7237      46.7237      46.7237 
  289000    107.74043   -7218.1298   -6662.2126   -1089.0475     102002.7      46.7237      46.7237      46.7237 
  290000    105.45538   -7240.4501   -6696.3233   -449.72643     102002.7      46.7237      46.7237      46.7237 
  291000    109.84713   -7238.9006   -6672.1133   -942.28484     102002.7      46.7237      46.7237      46.7237 
  292000    109.90896   -7214.1685   -6647.0622   -599.33969     102002.7      46.7237      46.7237      46.7237 
  293000    109.17179   -7240.2075   -6676.9049   -775.22035     102002.7      46.7237      46.7237      46.7237 
  294000    112.00389   -7214.7308   -6636.8151   -655.75954     102002.7      46.7237      46.7237      46.7237 
  295000    113.39464   -7246.9186   -6661.8269   -521.52946     102002.7      46.7237      46.7237      46.7237 
  296000     108.6026   -7233.3024   -6672.9367   -672.57243     102002.7      46.7237      46.7237      46.7237 
  297000     110.6565    -7213.093   -6642.1295   -563.15006     102002.7      46.7237      46.7237      46.7237 
  298000    106.60806   -7230.6111   -6680.5368    -923.0116     102002.7      46.7237      46.7237      46.7237 
  299000    109.59322   -7231.5363   -6666.0591   -530.24192     102002.7      46.7237      46.7237      46.7237 
  300000     107.4718   -7223.7244   -6669.1933   -959.25448     102002.7      46.7237      46.7237      46.7237 
  301000    104.78165   -7224.8858   -6684.2353   -832.99513     102002.7      46.7237      46.7237      46.7237 
  302000    112.49863   -7233.8137   -6653.3453   -1145.7958     102002.7      46.7237      46.7237      46.7237 
  303000    108.98337   -7240.1449   -6677.8144   -916.96119     102002.7      46.7237      46.7237      46.7237 
  304000    110.66165   -7236.6506   -6665.6606   -509.83477     102002.7      46.7237      46.7237      46.7237 
  305000     110.2259   -7249.3588   -6680.6171   -543.86712     102002.7      46.7237      46.7237      46.7237 
  306000    109.46575   -7227.5618   -6662.7424   -898.38284     102002.7      46.7237      46.7237      46.7237 
  307000      109.135   -7223.4826   -6660.3698   -591.43414     102002.7      46.7237      46.7237      46.7237 
  308000    109.37905   -7230.4442   -6666.0721   -909.61248     102002.7      46.7237      46.7237      46.7237 
  309000    106.02128   -7245.5819   -6698.5352   -602.73443     102002.7      46.7237      46.7237      46.7237 
  310000    111.64262    -7230.976   -6654.9244   -640.60209     102002.7      46.7237      46.7237      46.7237 
  311000    107.26931   -7229.1787   -6675.6924   -639.17337     102002.7      46.7237      46.7237      46.7237 
  312000    108.02584   -7215.3499   -6657.9601    -535.0428     102002.7      46.7237      46.7237      46.7237 
  313000    109.16001   -7252.3151   -6689.0732   -542.81135     102002.7      46.7237      46.7237      46.7237 
  314000    111.26676   -7229.7842   -6655.6719   -605.37971     102002.7      46.7237      46.7237      46.7237 
  315000    109.15018   -7248.8166   -6685.6254   -595.40688     102002.7      46.7237      46.7237      46.7237 
  316000    110.08139   -7228.2813   -6660.2853   -734.27619     102002.7      46.7237      46.7237      46.7237 
  317000    111.36653   -7238.5738   -6663.9467   -615.64016     102002.7      46.7237      46.7237      46.7237 
  318000    105.68044   -7232.1699   -6686.8818   -894.22748     102002.7      46.7237      46.7237      46.7237 
  319000    114.00971   -7226.0711   -6637.8059     -1022.56     102002.7      46.7237      46.7237      46.7237 
  320000    109.06946   -7229.5011   -6666.7265    -757.4033     102002.7      46.7237      46.7237      46.7237 
  321000    112.17284    -7233.154   -6654.3665   -945.97646     102002.7      46.7237      46.7237      46.7237 
  322000    109.23807   -7241.6999   -6678.0552   -656.80708     102002.7      46.7237      46.7237      46.7237 
  323000    110.76004    -7247.489   -6675.9913   -762.05674     102002.7      46.7237      46.7237      46.7237 
  324000    103.40055   -7225.9617   -6692.4374   -639.10142     102002.7      46.7237      46.7237      46.7237 
  325000    110.84253   -7230.1093    -6658.186   -647.34473     102002.7      46.7237      46.7237      46.7237 
  326000    106.47491   -7249.1919   -6699.8046   -704.11928     102002.7      46.7237      46.7237      46.7237 
  327000    111.19272   -7235.2512    -6661.521   -714.12955     102002.7      46.7237      46.7237      46.7237 
  328000    111.35893   -7231.1957   -6656.6079   -543.91619     102002.7      46.7237      46.7237      46.7237 
  329000    108.98374   -7239.3168   -6676.9845   -666.63759     102002.7      46.7237      46.7237      46.7237 
  330000    108.73641   -7249.1629   -6688.1068   -547.96835     102002.7      46.7237      46.7237      46.7237 
  331000    110.56208    -7224.182   -6653.7057   -836.41749     102002.7      46.7237      46.7237      46.7237 
  332000    107.69681   -7244.0952   -6688.4031   -708.38897     102002.7      46.7237      46.7237      46.7237 
  333000    113.79873   -7254.1304   -6666.9537   -1067.3394     102002.7      46.7237      46.7237      46.7237 
  334000    107.15061   -7233.2425   -6680.3687   -864.34915     102002.7      46.7237      46.7237      46.7237 
  335000    110.72604   -7237.9943   -6666.6721   -784.45251     102002.7      46.7237      46.7237      46.7237 
  336000     103.3962   -7237.6455   -6704.1436   -714.39386     102002.7      46.7237      46.7237      46.7237 
  337000    109.26888   -7224.2705   -6660.4669   -769.55058     102002.7      46.7237      46.7237      46.7237 
  338000    112.61239    -7253.319   -6672.2636   -954.61159     102002.7      46.7237      46.7237      46.7237 
  339000    108.10496   -7225.9976   -6668.1996   -429.94707     102002.7      46.7237      46.7237      46.7237 
  340000    111.36972   -7210.0079   -6635.3644   -634.08841     102002.7      46.7237      46.7237      46.7237 
  341000    106.94728   -7207.2043   -6655.3796   -488.56782     102002.7      46.7237      46.7237      46.7237 
  342000     109.3287   -7231.7744   -6667.6621   -646.87787     102002.7      46.7237      46.7237      46.7237 
  343000    108.16207   -7206.4418    -6648.349   -465.11401     102002.7      46.7237      46.7237      46.7237 
  344000    110.64578   -7243.1707   -6672.2625   -419.01068     102002.7      46.7237      46.7237      46.7237 
  345000    108.79394   -7240.0841   -6678.7311   -566.70461     102002.7      46.7237      46.7237      46.7237 
  346000    110.09058   -7208.3871   -6640.3437   -518.63755     102002.7      46.7237      46.7237      46.7237 
  347000    111.55785   -7232.2471   -6656.6329   -625.06789     102002.7      46.7237      46.7237      46.7237 
  348000    108.69131    -7243.739   -6682.9155   -532.03034     102002.7      46.7237      46.7237      46.7237 
  349000    111.55052   -7237.1306   -6661.5542   -779.22044     102002.7      46.7237      46.7237      46.7237 
  350000    111.20143    -7238.464   -6664.6888   -674.06388     102002.7      46.7237      46.7237      46.7237 
  351000    108.55961   -7231.6434   -6671.4995   -907.61273     102002.7      46.7237      46.7237      46.7237 
  352000    112.35651   -7246.4258   -6666.6906   -704.86927     102002.7      46.7237      46.7237      46.7237 
  353000    108.41524   -7244.3438   -6684.9448   -752.24101     102002.7      46.7237      46.7237      46.7237 
  354000     109.7763   -7237.9815   -6671.5597   -1001.0601     102002.7      46.7237      46.7237      46.7237 
  355000    111.75887   -7216.8259   -6640.1745   -898.30978     102002.7      46.7237      46.7237      46.7237 
  356000     111.7726   -7242.3092   -6665.5869   -993.06138     102002.7      46.7237      46.7237      46.7237 
  357000    107.41342   -7223.1731   -6668.9433   -834.37066     102002.7      46.7237      46.7237      46.7237 
  358000    109.31399   -7224.9579   -6660.9216   -681.68613     102002.7      46.7237      46.7237      46.7237 
  359000    109.39658   -7240.9149   -6676.4524   -653.23404     102002.7      46.7237      46.7237      46.7237 
  360000    108.88076   -7223.7208   -6661.9198   -703.54721     102002.7      46.7237      46.7237      46.7237 
  361000    108.78893   -7220.1412    -6658.814   -862.87229     102002.7      46.7237      46.7237      46.7237 
  362000    109.07001   -7223.8872   -6661.1097   -1001.1604     102002.7      46.7237      46.7237      46.7237 
  363000    106.27417   -7252.7955   -6704.4439    -714.7524     102002.7      46.7237      46.7237      46.7237 
  364000    111.74816   -7230.9676   -6654.3715    -714.5722     102002.7      46.7237      46.7237      46.7237 
  365000    106.81976   -7223.5694   -6672.4027    -677.3424     102002.7      46.7237      46.7237      46.7237 
  366000    113.60843   -7220.1033   -6633.9085    -670.3169     102002.7      46.7237      46.7237      46.7237 
  367000    108.07616   -7221.5145    -6663.865   -1008.2491     102002.7      46.7237      46.7237      46.7237 
  368000    109.39895   -7247.7866   -6683.3118   -823.52905     102002.7      46.7237      46.7237      46.7237 
  369000    113.45511   -7209.9222   -6624.5186   -897.11938     102002.7      46.7237      46.7237      46.7237 
  370000    106.46306   -7230.4565   -6681.1303   -1057.9044     102002.7      46.7237      46.7237      46.7237 
  371000      109.563   -7237.4101   -6672.0889   -610.97083     102002.7      46.7237      46.7237      46.7237 
  372000    112.47632   -7231.7613    -6651.408     -729.703     102002.7      46.7237      46.7237      46.7237 
  373000    105.56349   -7236.6556   -6691.9709   -845.48339     102002.7      46.7237      46.7237      46.7237 
  374000    110.79187   -7236.0935   -6664.4316   -719.41382     102002.7      46.7237      46.7237      46.7237 
  375000    108.47195   -7249.0583   -6689.3667   -701.98616     102002.7      46.7237      46.7237      46.7237 
  376000    109.44682   -7215.5278   -6650.8061   -481.45652     102002.7      46.7237      46.7237      46.7237 
  377000    109.52324   -7224.4609   -6659.3448   -800.79957     102002.7      46.7237      46.7237      46.7237 
  378000    111.28081   -7258.1674   -6683.9826   -549.44831     102002.7      46.7237      46.7237      46.7237 
  379000    109.80167   -7240.0098   -6673.4571   -718.56663     102002.7      46.7237      46.7237      46.7237 
  380000    107.02844   -7234.3484   -6682.1049   -603.39292     102002.7      46.7237      46.7237      46.7237 
  381000    108.73818   -7241.7168   -6680.6515   -494.56897     102002.7      46.7237      46.7237      46.7237 
  382000    106.95812    -7224.938   -6673.0574   -971.68014     102002.7      46.7237      46.7237      46.7237 
  383000    110.83424   -7237.6687   -6665.7882   -711.56471     102002.7      46.7237      46.7237      46.7237 
  384000    106.35755   -7231.2718     -6682.49   -826.52821     102002.7      46.7237      46.7237      46.7237 
  385000    108.85845   -7228.3058   -6666.6199   -919.13745     102002.7      46.7237      46.7237      46.7237 
  386000    108.80111   -7250.0212   -6688.6311   -747.50698     102002.7      46.7237      46.7237      46.7237 
  387000    110.43697   -7230.1709   -6660.3402   -914.11217     102002.7      46.7237      46.7237      46.7237 
  388000    106.00715   -7238.9633   -6691.9895   -825.55384     102002.7      46.7237      46.7237      46.7237 
  389000    109.41922   -7216.8148   -6652.2354   -743.36255     102002.7      46.7237      46.7237      46.7237 
  390000    113.96025   -7227.6871   -6639.6771   -944.19539     102002.7      46.7237      46.7237      46.7237 
  391000    109.68272   -7238.8672   -6672.9283   -655.46396     102002.7      46.7237      46.7237      46.7237 
  392000    111.80744   -7236.1389   -6659.2368    -658.9555     102002.7      46.7237      46.7237      46.7237 
  393000    109.02586   -7211.5437   -6648.9939   -586.06151     102002.7      46.7237      46.7237      46.7237 
  394000     109.9977   -7240.5061    -6672.942    -667.6115     102002.7      46.7237      46.7237      46.7237 
  395000    111.90544   -7213.6498   -6636.2421   -594.45122     102002.7      46.7237      46.7237      46.7237 
  396000    107.21628   -7232.7537    -6679.541   -750.54864     102002.7      46.7237      46.7237      46.7237 
  397000    107.27883   -7251.0596   -6697.5242   -888.02898     102002.7      46.7237      46.7237      46.7237 
  398000    108.97504   -7233.2022   -6670.9147   -653.63294     102002.7      46.7237      46.7237      46.7237 
  399000    113.60725   -7232.6823   -6646.4936   -649.07914     102002.7      46.7237      46.7237      46.7237 
  400000    111.72846   -7249.2797   -6672.7851   -818.33895     102002.7      46.7237      46.7237      46.7237 
  401000    109.66543   -7241.8205   -6675.9707   -668.45215     102002.7      46.7237      46.7237      46.7237 
  402000    111.59193   -7243.4578   -6667.6678   -465.97138     102002.7      46.7237      46.7237      46.7237 
  403000    108.65163   -7261.7736   -6701.1549   -521.15994     102002.7      46.7237      46.7237      46.7237 
  404000    108.98251    -7226.749    -6664.423   -807.20613     102002.7      46.7237      46.7237      46.7237 
  405000    110.92127   -7244.6712   -6672.3415   -625.21079     102002.7      46.7237      46.7237      46.7237 
  406000    105.95538   -7225.8734   -6679.1667   -1037.9172     102002.7      46.7237      46.7237      46.7237 
  407000    113.62721   -7226.1288   -6639.8371   -966.28524     102002.7      46.7237      46.7237      46.7237 
  408000    110.27089   -7227.2826   -6658.3088   -861.77569     102002.7      46.7237      46.7237      46.7237 
  409000    104.86164    -7233.083   -6692.0197   -803.99617     102002.7      46.7237      46.7237      46.7237 
  410000    113.41787   -7238.2235    -6653.012   -650.81893     102002.7      46.7237      46.7237      46.7237 
  411000    107.89303   -7229.1485    -6672.444   -699.08235     102002.7      46.7237      46.7237      46.7237 
  412000    115.46527    -7222.035   -6626.2594   -954.90125     102002.7      46.7237      46.7237      46.7237 
  413000    110.32848   -7243.2489    -6673.978   -746.20722     102002.7      46.7237      46.7237      46.7237 
  414000    105.92248   -7231.9207   -6685.3838   -724.26751     102002.7      46.7237      46.7237      46.7237 
  415000    108.82658   -7226.8021   -6665.2806   -719.97524     102002.7      46.7237      46.7237      46.7237 
  416000    113.62229    -7229.016   -6642.7498   -782.82076     102002.7      46.7237      46.7237      46.7237 
  417000    108.06039   -7229.2242   -6671.6561   -430.40866     102002.7      46.7237      46.7237      46.7237 
  418000    110.24801   -7217.0464   -6648.1907   -574.34753     102002.7      46.7237      46.7237      46.7237 
  419000    110.30356   -7228.8613    -6659.719   -499.31076     102002.7      46.7237      46.7237      46.7237 
  420000    110.81401   -7239.6816   -6667.9055    -813.4329     102002.7      46.7237      46.7237      46.7237 
  421000    111.28891   -7222.3689   -6648.1424   -705.07367     102002.7      46.7237      46.7237      46.7237 
  422000    109.68125   -7225.7825   -6659.8511   -586.18989     102002.7      46.7237      46.7237      46.7237 
  423000     112.8656   -7245.8425   -6663.4805   -679.80473     102002.7      46.7237      46.7237      46.7237 
  424000    109.67694   -7216.2783   -6650.3692   -921.02997     102002.7      46.7237      46.7237      46.7237 
  425000    109.78954   -7236.6515   -6670.1614   -562.77585     102002.7      46.7237      46.7237      46.7237 
  426000      106.429   -7236.1917   -6687.0412   -716.27107     102002.7      46.7237      46.7237      46.7237 
  427000    110.49228   -7222.2312   -6652.1151   -1159.1607     102002.7      46.7237      46.7237      46.7237 
  428000    107.71778   -7245.7794   -6689.9792   -492.96376     102002.7      46.7237      46.7237      46.7237 
  429000    111.95045   -7237.7567   -6660.1168    -780.0912     102002.7      46.7237      46.7237      46.7237 
  430000    111.89835   -7247.8528   -6670.4817    -603.5036     102002.7      46.7237      46.7237      46.7237 
  431000    111.91303   -7230.2914   -6652.8445   -731.13453     102002.7      46.7237      46.7237      46.7237 
  432000    110.53381   -7224.2571   -6653.9267   -403.65286     102002.7      46.7237      46.7237      46.7237 
  433000    111.07659   -7243.5825   -6670.4515   -284.68606     102002.7      46.7237      46.7237      46.7237 
  434000    107.79409   -7240.3533   -6684.1593   -562.94809     102002.7      46.7237      46.7237      46.7237 
  435000     110.5662   -7230.7046   -6660.2071   -526.41003     102002.7      46.7237      46.7237      46.7237 
  436000    110.61988   -7235.2658   -6664.4913   -489.40572     102002.7      46.7237      46.7237      46.7237 
  437000     107.0432   -7239.3586    -6687.039   -681.49424     102002.7      46.7237      46.7237      46.7237 
  438000    111.67716   -7245.3957   -6669.1659   -421.63947     102002.7      46.7237      46.7237      46.7237 
  439000    108.55547   -7195.7697   -6635.6471   -655.58323     102002.7      46.7237      46.7237      46.7237 
  440000    106.92191   -7224.6775   -6672.9838   -356.07365     102002.7      46.7237      46.7237      46.7237 
  441000     107.3114   -7239.1014    -6685.398   -573.52504     102002.7      46.7237      46.7237      46.7237 
  442000    111.28366   -7249.7147   -6675.5152   -794.23649     102002.7      46.7237      46.7237      46.7237 
  443000    109.87189   -7232.0416   -6665.1266   -645.12057     102002.7      46.7237      46.7237      46.7237 
  444000    108.37153   -7260.4201   -6701.2466   -696.17764     102002.7      46.7237      46.7237      46.7237 
  445000    111.36508   -7230.7666    -6656.147   -419.86874     102002.7      46.7237      46.7237      46.7237 
  446000    108.40176    -7256.744   -6697.4145   -487.33129     102002.7      46.7237      46.7237      46.7237 
  447000    110.28655   -7232.1386    -6663.084   -517.84693     102002.7      46.7237      46.7237      46.7237 
  448000    108.85198   -7221.7671   -6660.1145   -497.82645     102002.7      46.7237      46.7237      46.7237 
  449000    107.77018   -7249.8781   -6693.8075   -621.41077     102002.7      46.7237      46.7237      46.7237 
  450000    109.58929   -7242.8964   -6677.4395   -535.81657     102002.7      46.7237      46.7237      46.7237 
  451000    110.93564   -7215.4974   -6643.0936   -828.94491     102002.7      46.7237      46.7237      46.7237 
  452000    111.44847   -7231.4181   -6656.3683   -622.31207     102002.7      46.7237      46.7237      46.7237 
  453000    110.89053   -7236.9294   -6664.7584   -891.76159     102002.7      46.7237      46.7237      46.7237 
  454000    109.24862   -7228.6916   -6664.9925   -536.58617     102002.7      46.7237      46.7237      46.7237 
  455000    109.06635   -7235.7258   -6672.9672   -453.64206     102002.7      46.7237      46.7237      46.7237 
  456000    108.77004    -7210.007   -6648.7772   -401.09315     102002.7      46.7237      46.7237      46.7237 
  457000    105.29218    -7225.764   -6682.4793    -830.6084     102002.7      46.7237      46.7237      46.7237 
  458000    107.99192   -7229.7815   -6672.5667   -853.43751     102002.7      46.7237      46.7237      46.7237 
  459000    111.60281   -7204.5755   -6628.7294   -644.75302     102002.7      46.7237      46.7237      46.7237 
  460000    109.59689   -7235.0158   -6669.5198   -929.86673     102002.7      46.7237      46.7237      46.7237 
  461000    107.50366    -7257.189   -6702.4936   -677.17195     102002.7      46.7237      46.7237      46.7237 
  462000    112.80027   -7239.0286   -6657.0038   -809.15005     102002.7      46.7237      46.7237      46.7237 
  463000    111.75078   -7249.1246   -6672.5149   -644.30512     102002.7      46.7237      46.7237      46.7237 
  464000    110.37583   -7255.4504   -6685.9351   -657.42662     102002.7      46.7237      46.7237      46.7237 
  465000    111.24707     -7240.25   -6666.2394   -721.98064     102002.7      46.7237      46.7237      46.7237 
  466000    112.64136   -7256.8466   -6675.6417   -707.81058     102002.7      46.7237      46.7237      46.7237 
  467000    110.55085   -7244.7437   -6674.3254   -738.25786     102002.7      46.7237      46.7237      46.7237 
  468000    108.66598   -7231.4087   -6670.7159   -884.06785     102002.7      46.7237      46.7237      46.7237 
  469000    109.85338   -7237.7751   -6670.9556    -742.7107     102002.7      46.7237      46.7237      46.7237 
  470000    111.30684   -7224.5351   -6650.2161    -688.0433     102002.7      46.7237      46.7237      46.7237 
  471000    109.96007   -7229.7517   -6662.3817   -1040.1512     102002.7      46.7237      46.7237      46.7237 
  472000    113.49619   -7236.0426    -6650.427   -761.96489     102002.7      46.7237      46.7237      46.7237 
  473000    112.16116   -7226.7107   -6647.9836   -866.21895     102002.7      46.7237      46.7237      46.7237 
  474000     110.6183   -7257.7495   -6686.9832   -983.30161     102002.7      46.7237      46.7237      46.7237 
  475000    111.44057   -7235.9737   -6660.9646   -450.02893     102002.7      46.7237      46.7237      46.7237 
  476000    107.99082    -7256.436   -6699.2269   -988.29511     102002.7      46.7237      46.7237      46.7237 
  477000    111.35955   -7236.9713   -6662.3803   -745.86585     102002.7      46.7237      46.7237      46.7237 
  478000    111.06089   -7210.3745   -6637.3245    -857.9693     102002.7      46.7237      46.7237      46.7237 
  479000    109.44577   -7225.0772   -6660.3608   -739.49044     102002.7      46.7237      46.7237      46.7237 
  480000    105.62419   -7246.8645   -6701.8667   -696.75206     102002.7      46.7237      46.7237      46.7237 
  481000    109.26167    -7234.409   -6670.6426   -484.37204     102002.7      46.7237      46.7237      46.7237 
  482000    111.69516   -7232.0684   -6655.7457   -689.19433     102002.7      46.7237      46.7237      46.7237 
  483000    113.90391   -7228.6876   -6640.9682   -644.26073     102002.7      46.7237      46.7237      46.7237 
  484000      112.332    -7244.555   -6664.9464   -677.64142     102002.7      46.7237      46.7237      46.7237 
  485000    107.58301   -7245.4694   -6690.3645    -834.3442     102002.7      46.7237      46.7237      46.7237 
  486000    112.03696   -7238.1085   -6660.0222   -662.40519     102002.7      46.7237      46.7237      46.7237 
  487000    107.25739   -7229.0312   -6675.6064   -721.30016     102002.7      46.7237      46.7237      46.7237 
  488000    114.23887   -7230.8174   -6641.3697   -760.95738     102002.7      46.7237      46.7237      46.7237 
  489000    110.55936   -7230.5288   -6660.0666   -765.08561     102002.7      46.7237      46.7237      46.7237 
  490000    114.17073   -7231.9235   -6642.8274   -1100.5509     102002.7      46.7237      46.7237      46.7237 
  491000    109.94172   -7236.2998   -6669.0245   -868.41477     102002.7      46.7237      46.7237      46.7237 
  492000    108.45778   -7246.0255   -6686.4069   -844.01663     102002.7      46.7237      46.7237      46.7237 
  493000    110.40195   -7227.9844   -6658.3344   -969.08658     102002.7      46.7237      46.7237      46.7237 
  494000    109.46997   -7247.9679   -6683.1267    -616.8468     102002.7      46.7237      46.7237      46.7237 
  495000    111.89448   -7221.1278   -6643.7766   -949.07141     102002.7      46.7237      46.7237      46.7237 
  496000    111.66062   -7241.4605    -6665.316   -866.28685     102002.7      46.7237      46.7237      46.7237 
  497000    107.00782   -7234.6928   -6682.5558   -792.06106     102002.7      46.7237      46.7237      46.7237 
  498000    111.71735   -7233.4421    -6657.005   -1001.4686     102002.7      46.7237      46.7237      46.7237 
  499000    107.35628   -7242.1734   -6688.2383    -978.4372     102002.7      46.7237      46.7237      46.7237 
  500000    112.19142   -7230.4461   -6651.5628   -734.74736     102002.7      46.7237      46.7237      46.7237 
  500505    112.04603   -7231.9858   -6653.8527   -655.10755     102002.7      46.7237      46.7237      46.7237 
Loop time of 561.756 on 24 procs for 500000 steps with 1732 atoms

Performance: 76.902 ns/day, 0.312 hours/ns, 890.066 timesteps/s
99.9% CPU use with 24 MPI tasks x no OpenMP threads

MPI task timing breakdown:
Section |  min time  |  avg time  |  max time  |%varavg| %total
---------------------------------------------------------------
Pair    | 184.01     | 273.86     | 362.56     | 308.7 | 48.75
Bond    | 70.392     | 78.182     | 85.049     |  38.9 | 13.92
Neigh   | 1.5621     | 1.5787     | 1.5915     |   0.9 |  0.28
Comm    | 108.93     | 201        | 289.13     | 365.8 | 35.78
Output  | 0.32927    | 0.32962    | 0.33387    |   0.2 |  0.06
Modify  | 3.4894     | 3.7966     | 4.107      |   8.5 |  0.68
Other   |            | 3.005      |            |       |  0.53

Nlocal:    72.1667 ave 100 max 38 min
Histogram: 1 0 2 1 4 5 7 3 0 1
Nghost:    1976.21 ave 2135 max 1873 min
Histogram: 5 10 1 0 0 0 0 0 1 7
Neighs:    7629.5 ave 12827 max 3336 min
Histogram: 1 2 3 7 2 1 5 0 2 1

Total # of neighbors = 183108
Ave neighs/atom = 105.721
Ave special neighs/atom = 6.65127
Neighbor list builds = 3040
Dangerous builds = 0
Neighbor list info ...
  update every 1 steps, delay 10 steps, check yes
  max neighbors/atom: 2000, page size: 100000
  master list distance cutoff = 16
  ghost atom cutoff = 16
  binsize = 8, bins = 6 6 6
  3 neighbor lists, perpetual/occasional/extra = 3 0 0
  (1) pair buck6d/coul/gauss/dsf, perpetual, skip from (3)
      attributes: half, newton on
      pair build: skip
      stencil: none
      bin: none
  (2) pair lj/cut, perpetual, skip from (3)
      attributes: half, newton on
      pair build: skip
      stencil: none
      bin: none
  (3) neighbor class addition, perpetual
      attributes: half, newton on
      pair build: half/bin/newton
      stencil: half/bin/3d/newton
      bin: standard
Setting up Verlet run ...
  Unit style    : real
  Current step  : 500505
  Time step     : 1
WARNING: Inconsistent image flags (../domain.cpp:786)
Per MPI rank memory allocation (min/avg/max) = 24.1 | 24.45 | 24.57 Mbytes
Step Time TotEng KinEng PotEng E_mol E_pair Temp Pxx Pyy Pzz Pxy Pxz Pyz Cella Cellb Cellc CellAlpha CellBeta CellGamma Volume Press 
  500505       500000   -6653.8527    578.13311   -7231.9858    4329.9194   -11561.905    112.04603    -761.0704   -636.66427   -567.58798    44.955296    152.85676    -109.9179      46.7237      46.7237      46.7237           90           90           90     102002.7   -655.10755 
  501000       500495   -6649.5602     573.0695   -7222.6297    4330.0692   -11552.699    111.06467   -891.34449   -504.31125    -565.7719     203.8699    -171.9978   -20.373282      46.7237      46.7237      46.7237           90           90           90     102002.7   -653.80921 
  502000       501495   -6667.5227    566.87516   -7234.3978    4320.9065   -11555.304    109.86416   -534.41086   -274.95076   -799.78558      95.9134   -141.83961   -52.209703      46.7237      46.7237      46.7237           90           90           90     102002.7    -536.3824 
  503000       502495   -6666.0083    558.50231   -7224.5106    4328.4227   -11552.933    108.24145   -388.02955   -803.01517    -938.7331    44.688149    193.42524   -199.57003      46.7237      46.7237      46.7237           90           90           90     102002.7   -709.92594 
  504000       503495   -6645.7097    589.51471   -7235.2244    4321.7714   -11556.996    114.25186   -640.20105   -623.83242   -649.80744    218.00572   -243.87178    1.3667254      46.7237      46.7237      46.7237           90           90           90     102002.7   -637.94697 
  505000       504495   -6672.7085    554.51294   -7227.2215    4335.1155   -11562.337    107.46828   -625.40785   -479.66999   -835.91809   -85.123425    15.403459    22.350743      46.7237      46.7237      46.7237           90           90           90     102002.7   -646.99864 
  506000       505495    -6639.047    578.74575   -7217.7927    4327.8054   -11545.598    112.16476   -323.62464   -1015.9417   -811.02428     213.8828    159.78841   -24.393981      46.7237      46.7237      46.7237           90           90           90     102002.7   -716.86355 
  507000       506495   -6672.7761    569.11436   -7241.8905     4308.137   -11550.028    110.29814   -791.76332   -587.27594   -1076.6038    42.387011    1.5456225   -30.245407      46.7237      46.7237      46.7237           90           90           90     102002.7   -818.54767 
  508000       507495   -6688.4479    533.43071   -7221.8786    4330.5514    -11552.43    103.38241   -785.39794    -679.8975   -959.70934    263.32799   -74.675851    111.56454      46.7237      46.7237      46.7237           90           90           90     102002.7   -808.33493 
  509000       508495   -6650.2877    579.96296   -7230.2507    4285.7217   -11515.972    112.40067   -861.69519   -350.71184   -454.08447   -41.735324   -215.00271    56.612008      46.7237      46.7237      46.7237           90           90           90     102002.7   -555.49716 
  510000       509495   -6672.1478     554.1312    -7226.279    4343.8751   -11570.154     107.3943   -674.70791   -826.01545   -373.89638    70.180451    95.074696   -115.34539      46.7237      46.7237      46.7237           90           90           90     102002.7   -624.87325 
  511000       510495    -6656.701    562.65312   -7219.3541    4318.3244   -11537.679     109.0459   -681.18627   -451.09237   -628.33882   -163.81255   -59.903834     311.5059      46.7237      46.7237      46.7237           90           90           90     102002.7   -586.87249 
  512000       511495    -6665.774    567.27231   -7233.0463     4314.658   -11547.704    109.94114   -1175.6934   -907.68614   -1047.0385   -116.93783    111.73796    129.01562      46.7237      46.7237      46.7237           90           90           90     102002.7   -1043.4727 
  513000       512495   -6670.2525    561.72184   -7231.9744    4327.1382   -11559.113    108.86542   -429.53418   -436.28439   -697.12928    209.14412    -72.41725    220.93202      46.7237      46.7237      46.7237           90           90           90     102002.7   -520.98262 
  514000       513495   -6640.1223    589.53094   -7229.6533    4309.9927   -11539.646      114.255   -832.33385   -839.02516   -850.07079    112.33982   -19.859478    -104.5672      46.7237      46.7237      46.7237           90           90           90     102002.7    -840.4766 
  515000       514495    -6656.015    559.86497     -7215.88    4333.4747   -11549.355    108.50554   -518.96575   -882.98466   -938.56124    162.21544    135.33501   -26.612159      46.7237      46.7237      46.7237           90           90           90     102002.7   -780.17055 
  516000       515495   -6688.2051    541.65687    -7229.862    4328.3573   -11558.219    104.97669   -662.84647   -106.14427   -262.48985    204.17077    35.588478    -231.3109      46.7237      46.7237      46.7237           90           90           90     102002.7   -343.82687 
  517000       516495   -6651.0933    583.51014   -7234.6034    4289.2161   -11523.819    113.08813   -914.55025   -552.60963   -501.79512    248.95942   -3.9972083    159.17407      46.7237      46.7237      46.7237           90           90           90     102002.7   -656.31834 
  518000       517495   -6668.9787    567.05481   -7236.0336    4310.0062    -11546.04    109.89898   -705.11569   -851.72512   -989.47265    127.83354    102.87692    66.315472      46.7237      46.7237      46.7237           90           90           90     102002.7   -848.77115 
  519000       518495   -6648.9821    580.49163   -7229.4737    4315.4021   -11544.876    112.50313    -942.4808   -865.18562   -878.33456   -155.87496    86.106848    144.46492      46.7237      46.7237      46.7237           90           90           90     102002.7   -895.33366 
  520000       519495   -6660.6149    568.41939   -7229.0343    4302.5703   -11531.605    110.16345   -537.64402   -528.51769   -703.66543    29.003488    26.020501    104.34455      46.7237      46.7237      46.7237           90           90           90     102002.7   -589.94238 
  521000       520495   -6659.7826    585.83619   -7245.6188    4293.7459   -11539.365    113.53894   -606.65721   -388.31179   -591.14782   -172.22857   -180.27014    95.466431      46.7237      46.7237      46.7237           90           90           90     102002.7    -528.7056 
  522000       521495   -6691.4944    558.26601   -7249.7604    4290.1225   -11539.883    108.19565    -821.1522   -961.86369   -728.55017    -126.7043    175.53083    54.602479      46.7237      46.7237      46.7237           90           90           90     102002.7   -837.18869 
  523000       522495   -6651.3603     573.4943   -7224.8546     4297.365    -11522.22      111.147   -587.24002   -871.55494   -1097.9657   -122.31306    114.99283   -69.463583      46.7237      46.7237      46.7237           90           90           90     102002.7   -852.25356 
  524000       523495   -6660.2939    572.32948   -7232.6234    4323.2781   -11555.901    110.92125   -876.98702   -757.62198   -611.20568   -42.667944   -223.70413   -86.547963      46.7237      46.7237      46.7237           90           90           90     102002.7   -748.60489 
  525000       524495   -6665.1017     570.4578   -7235.5595    4315.9659   -11551.525     110.5585   -636.98459   -951.36013   -996.75971    3.5620016    17.306905   -29.653012      46.7237      46.7237      46.7237           90           90           90     102002.7   -861.70147 
  526000       525495   -6686.7974    559.25018   -7246.0476    4296.6163   -11542.664    108.38639   -704.99066   -928.39152    -910.7387    232.53182    88.950335   -40.137026      46.7237      46.7237      46.7237           90           90           90     102002.7   -848.04029 
  527000       526495   -6667.1624    579.79541   -7246.9578    4299.1731   -11546.131    112.36819   -960.05969   -683.99975   -836.12521    30.347403   -56.570795    71.567151      46.7237      46.7237      46.7237           90           90           90     102002.7   -826.72822 
  528000       527495   -6648.1715    581.77038   -7229.9419    4312.7231   -11542.665    112.75096   -195.17697   -760.03305   -823.87925    70.627071   -231.06783   -60.308898      46.7237      46.7237      46.7237           90           90           90     102002.7   -593.02976 
  529000       528495   -6653.4856    590.46859   -7243.9542    4314.1378   -11558.092    114.43673   -882.10255   -614.37243   -830.84815    130.13897   -136.99545   -92.652498      46.7237      46.7237      46.7237           90           90           90     102002.7   -775.77438 
  530000       529495   -6642.8767    567.15795   -7210.0347    4332.2447   -11542.279    109.91897   -1057.4293   -690.95342   -495.56423   -31.372095    263.94942    185.66855      46.7237      46.7237      46.7237           90           90           90     102002.7   -747.98232 
  531000       530495   -6672.6223    574.40649   -7247.0288    4304.1849   -11551.214    111.32379   -908.31044   -983.81286   -735.52709    -238.8604   -13.113353   -116.24241      46.7237      46.7237      46.7237           90           90           90     102002.7   -875.88346 
  532000       531495    -6657.649    569.06393   -7226.7129     4309.013   -11535.726    110.28836   -217.76205   -426.47372   -424.36971   -210.32734   -162.23432   -26.845301      46.7237      46.7237      46.7237           90           90           90     102002.7   -356.20183 
  533000       532495   -6681.8503    575.19654   -7257.0468    4294.9411   -11551.988     111.4769   -1179.2848   -533.57995   -461.34128    -20.15445    -55.75594     238.0641      46.7237      46.7237      46.7237           90           90           90     102002.7   -724.73533 
  534000       533495   -6664.6678    574.17585   -7238.8436    4304.7904   -11543.634    111.27909   -804.85305   -866.00502   -570.31649   -127.61532    20.691066   -34.096668      46.7237      46.7237      46.7237           90           90           90     102002.7   -747.05819 
  535000       534495    -6701.058    555.89658   -7256.9546    4289.3354    -11546.29    107.73644   -407.88484   -359.93632   -590.27952   -277.72946   -73.798089    149.44105      46.7237      46.7237      46.7237           90           90           90     102002.7   -452.70023 
  536000       535495   -6659.0018    559.63332   -7218.6351    4324.0111   -11542.646    108.46065   -936.58249    -1170.224   -714.92198    -123.3074   -96.098055    55.363211      46.7237      46.7237      46.7237           90           90           90     102002.7   -940.57614 
  537000       536495   -6681.5363    554.36401   -7235.9003    4312.1062   -11548.006    107.43942    -884.9923   -405.50604   -570.31331   -171.14732    179.39854   -20.823787      46.7237      46.7237      46.7237           90           90           90     102002.7   -620.27055 
  538000       537495    -6677.941    560.18796    -7238.129    4305.2287   -11543.358    108.56814   -597.38221   -876.54285   -628.45065   -243.22793    182.07413    45.065736      46.7237      46.7237      46.7237           90           90           90     102002.7    -700.7919 
  539000       538495   -6677.0538    558.14914   -7235.2029    4325.5062   -11560.709      108.173   -592.08518   -1300.1407   -555.06579   -163.31393   -232.09921   -165.82001      46.7237      46.7237      46.7237           90           90           90     102002.7    -815.7639 
  540000       539495    -6686.192    547.23815   -7233.4301    4301.3557   -11534.786    106.05838   -881.12843   -1330.9143     -870.925    -230.4234   -182.90266   -146.90978      46.7237      46.7237      46.7237           90           90           90     102002.7   -1027.6559 
  541000       540495   -6660.1717    575.61021   -7235.7819    4315.1268   -11550.909    111.55707   -933.30069    -1380.288   -1024.3497   -21.175654       79.657    227.54885      46.7237      46.7237      46.7237           90           90           90     102002.7   -1112.6461 
  542000       541495   -6665.7558    560.80032   -7226.5561    4318.9348   -11545.491    108.68682   -818.59524   -665.02014   -1077.1562    71.493107    81.631757   -36.531978      46.7237      46.7237      46.7237           90           90           90     102002.7   -853.59051 
  543000       542495   -6670.9728    561.10269   -7232.0755    4309.9321   -11542.008    108.74542   -504.32185   -945.23186   -1032.1468    -224.3301    16.961269    143.00636      46.7237      46.7237      46.7237           90           90           90     102002.7   -827.23349 
  544000       543495   -6654.5071     570.4714   -7224.9785    4324.5901   -11549.569    110.56114   -985.25646   -387.46871   -667.44029   -82.059198    259.60298    217.94947      46.7237      46.7237      46.7237           90           90           90     102002.7   -680.05515 
  545000       544495   -6687.2074    561.61799   -7248.8254    4282.6444    -11531.47    108.84529    -1007.216   -793.30922   -903.61956    53.391836   -30.846927   -116.36583      46.7237      46.7237      46.7237           90           90           90     102002.7   -901.38159 
  546000       545495   -6656.1038    575.67898   -7231.7828    4323.3628   -11555.146     111.5704   -770.81196   -412.86643   -574.28381   -109.41237    234.08676    58.171127      46.7237      46.7237      46.7237           90           90           90     102002.7    -585.9874 
  547000       546495   -6700.1558    543.50865   -7243.6644    4295.2456    -11538.91    105.33558    -989.3178   -926.18488   -1042.5334    177.61263    239.32168    162.55814      46.7237      46.7237      46.7237           90           90           90     102002.7   -986.01203 
  548000       547495   -6667.3453    571.02879    -7238.374    4322.8296   -11561.204    110.66916   -204.73523   -806.70671   -594.42501     -252.425     64.61922    77.050463      46.7237      46.7237      46.7237           90           90           90     102002.7   -535.28898 
  549000       548495   -6650.6277    589.38414   -7240.0118    4300.0907   -11540.103    114.22655   -1154.7025    -616.4399   -567.54849    212.25727    214.58059    87.286001      46.7237      46.7237      46.7237           90           90           90     102002.7   -779.56364 
  550000       549495   -6674.8573    567.87764   -7242.7349    4306.2714   -11549.006    110.05845   -938.55554   -929.50281   -622.56087    147.21749    83.131524    62.861323      46.7237      46.7237      46.7237           90           90           90     102002.7   -830.20641 
  551000       550495   -6659.8668    562.56828   -7222.4351    4320.0575   -11542.493    109.02946   -1117.4467   -737.67942   -591.39493   -148.46095    381.42789   -35.814593      46.7237      46.7237      46.7237           90           90           90     102002.7   -815.50701 
  552000       551495   -6671.0456    548.31295   -7219.3585    4319.3701   -11538.729    106.26669   -702.60075   -416.78077   -1161.5428    163.75891    68.082602    -44.35429      46.7237      46.7237      46.7237           90           90           90     102002.7    -760.3081 
  553000       552495   -6663.2642    567.46569   -7230.7299    4319.2509   -11549.981    109.97861   -583.61582   -436.36921    -426.8255    113.45271    182.78895   -152.89293      46.7237      46.7237      46.7237           90           90           90     102002.7   -482.27018 
  554000       553495   -6670.7005    574.28289   -7244.9834    4295.9178   -11540.901    111.29983   -876.81443   -440.63395   -916.50133   -22.376405    -127.9764   -167.41995      46.7237      46.7237      46.7237           90           90           90     102002.7    -744.6499 
  555000       554495   -6663.9098    582.52683   -7246.4366    4311.2928   -11557.729    112.89756   -468.12784   -596.71105   -268.77941   -212.39268    201.56124   -205.58137      46.7237      46.7237      46.7237           90           90           90     102002.7   -444.53943 
[...]
  936000       935495    -6670.248    573.60515   -7243.8532     4301.003   -11544.856    111.16848   -641.45921   -671.78835   -262.03951    46.036569    71.144489    21.571739      46.7237      46.7237      46.7237           90           90           90     102002.7   -525.09569 
  937000       936495   -6649.1641    580.65729   -7229.8214    4311.4069   -11541.228    112.53523   -571.42204   -14.374713   -405.74901   -56.579036   -161.80241   -112.18991      46.7237      46.7237      46.7237           90           90           90     102002.7   -330.51525 
  938000       937495    -6668.395    572.14891   -7240.5439    4311.3861    -11551.93    110.88625   -669.82836   -786.62279   -897.59895   -8.4607177    56.380128   -112.36262      46.7237      46.7237      46.7237           90           90           90     102002.7   -784.68336 
  939000       938495   -6695.4355    562.13586   -7257.5714    4289.5815   -11547.153    108.94566    -364.0414   -437.65419   -462.31744   -60.580931    9.0722852   -36.807668      46.7237      46.7237      46.7237           90           90           90     102002.7   -421.33768 
  940000       939495   -6662.1308     561.8773   -7224.0081    4328.3654   -11552.374    108.89555   -1128.0556   -680.40789   -791.14239    -177.5627   -99.314192   -57.787244      46.7237      46.7237      46.7237           90           90           90     102002.7   -866.53528 
  941000       940495   -6707.3945     554.1125    -7261.507    4289.9481   -11551.455    107.39068   -175.48892   -764.61296    -753.8755   -37.352232    226.35226    142.16643      46.7237      46.7237      46.7237           90           90           90     102002.7   -564.65913 
  942000       941495    -6648.933    576.68323   -7225.6162    4321.2628   -11546.879    111.76503   -932.81139   -809.96719   -976.80886    8.5563246   -35.509565    219.96802      46.7237      46.7237      46.7237           90           90           90     102002.7   -906.52914 
  943000       942495    -6676.874    567.88364   -7244.7577    4317.9239   -11562.682    110.05961   -820.61059   -748.84027   -685.64103     9.043617   -208.76158   -34.812552      46.7237      46.7237      46.7237           90           90           90     102002.7   -751.69729 
  944000       943495   -6687.5871    552.81878   -7240.4059    4297.4397   -11537.846    107.13994   -680.40563   -991.02446   -921.99182    7.7734965     205.8405    157.70342      46.7237      46.7237      46.7237           90           90           90     102002.7   -864.47397 
  945000       944495   -6639.5489    571.16482   -7210.7138    4341.5415   -11552.255    110.69553   -670.50244   -737.47426   -994.83338    129.40733    174.22645   -57.870204      46.7237      46.7237      46.7237           90           90           90     102002.7    -800.9367 
  946000       945495   -6648.4858    576.07666   -7224.5624    4319.2242   -11543.787    111.64748    -714.4771   -474.90735   -484.48779    159.61584    146.67045    109.40878      46.7237      46.7237      46.7237           90           90           90     102002.7   -557.95742 
  947000       946495   -6668.9338    570.62897   -7239.5628    4315.3686   -11554.931    110.59168   -1123.1793   -946.42138   -528.89808    250.56358    151.48264    5.5579989      46.7237      46.7237      46.7237           90           90           90     102002.7   -866.16627 
  948000       947495     -6704.54    547.57537   -7252.1154    4290.4513   -11542.567    106.12374   -951.09711    -740.7233   -794.63026     225.5862    5.3536614   -62.627684      46.7237      46.7237      46.7237           90           90           90     102002.7   -828.81689 
  949000       948495    -6643.108    569.82434   -7212.9324    4337.7327   -11550.665    110.43574   -1296.4399   -646.95059   -760.97516   -38.778884     143.4534    1.9430191      46.7237      46.7237      46.7237           90           90           90     102002.7   -901.45522 
  950000       949495   -6679.1219    552.66627   -7231.7882     4325.661   -11557.449    107.11039   -538.08342   -1107.5246   -662.52868   -12.717149   -129.53862   -194.86753      46.7237      46.7237      46.7237           90           90           90     102002.7   -769.37891 
  951000       950495   -6678.0533    568.61578   -7246.6691     4290.787   -11537.456    110.20151   -806.16803   -1079.4103    -313.8962   -43.890714    158.72047    81.767623      46.7237      46.7237      46.7237           90           90           90     102002.7   -733.15818 
  952000       951495   -6659.3691    568.17171   -7227.5408    4318.3573   -11545.898    110.11544   -1254.5927   -918.09465   -412.54689    124.89749   -21.352116    51.863835      46.7237      46.7237      46.7237           90           90           90     102002.7   -861.74476 
  953000       952495   -6667.5064    567.99059    -7235.497    4305.1251   -11540.622    110.08034    -232.2134   -736.40007   -586.19196    39.560683    105.98205   -304.43601      46.7237      46.7237      46.7237           90           90           90     102002.7   -518.26847 
  954000       953495   -6703.7556    540.83566   -7244.5912    4300.4479   -11545.039    104.81754   -931.46755   -933.87506   -818.61322    50.551705   -243.98894   -52.389293      46.7237      46.7237      46.7237           90           90           90     102002.7   -894.65194 
  955000       954495   -6654.5936    576.14656   -7230.7402    4317.7697    -11548.51    111.66102   -687.87195   -283.70563   -689.24874    271.42482    180.51486   -54.453799      46.7237      46.7237      46.7237           90           90           90     102002.7   -553.60877 
  956000       955495   -6693.3003    551.02591   -7244.3262    4290.8787   -11535.205    106.79247   -853.26245   -605.72529   -515.73588    205.40589   -91.563182    -350.0996      46.7237      46.7237      46.7237           90           90           90     102002.7    -658.2412 
  957000       956495   -6657.6894    577.53642   -7235.2258    4288.0649   -11523.291    111.93039    -360.3705    -275.2139   -277.63044    75.527199    136.11872   -109.88135      46.7237      46.7237      46.7237           90           90           90     102002.7   -304.40495 
  958000       957495    -6660.037    566.78015   -7226.8171    4331.8342   -11558.651    109.84575   -987.08694   -819.15041    -147.2319    105.69972    182.67926    40.834317      46.7237      46.7237      46.7237           90           90           90     102002.7   -651.15642 
  959000       958495   -6681.0769    565.02234   -7246.0993    4286.3444   -11532.444    109.50508   -328.46086   -156.18187   -356.28794    194.07256    13.482532   -124.05128      46.7237      46.7237      46.7237           90           90           90     102002.7   -280.31022 
  960000       959495   -6655.2756    564.96545   -7220.2411    4329.3409   -11549.582    109.49405   -93.956459   -645.19069   -665.37425    -443.4486   -116.33789    -45.34255      46.7237      46.7237      46.7237           90           90           90     102002.7    -468.1738 
  961000       960495   -6700.2831    556.31787    -7256.601    4284.8552   -11541.456    107.81809   -652.18278   -997.91463   -251.03163    78.511876    71.532414    288.89076      46.7237      46.7237      46.7237           90           90           90     102002.7   -633.70968 
  962000       961495   -6656.5828    576.11526    -7232.698    4313.8935   -11546.592    111.65496   -601.40629   -559.58421   -836.81801   -32.530905    136.28171    123.86104      46.7237      46.7237      46.7237           90           90           90     102002.7   -665.93617 
  963000       962495   -6643.7172    583.86388    -7227.581    4317.3467   -11544.928    113.15669   -866.08127   -410.02826   -516.36335    186.38156     161.3018    2.4162201      46.7237      46.7237      46.7237           90           90           90     102002.7   -597.49096 
  964000       963495   -6671.8815    564.37751    -7236.259    4301.9917   -11538.251     109.3801   -827.67489   -70.698393   -778.56841    8.9408084    342.51198   -114.43937      46.7237      46.7237      46.7237           90           90           90     102002.7   -558.98056 
  965000       964495   -6636.7045    579.80245    -7216.507     4328.132   -11544.639    112.36956   -639.57781   -716.35623   -734.89419   -98.181659     111.3631   -41.933738      46.7237      46.7237      46.7237           90           90           90     102002.7   -696.94274 
  966000       965495   -6653.2077    569.85724   -7223.0649    4323.6084   -11546.673    110.44211   -560.17653   -411.10904   -664.63702   -255.57408   -79.449994   -179.96965      46.7237      46.7237      46.7237           90           90           90     102002.7   -545.30753 
  967000       966495   -6655.5791    568.29407   -7223.8731    4323.1334   -11547.007    110.13916   -341.93754   -854.02916   -231.37104    35.963228   -122.59134   -95.437411      46.7237      46.7237      46.7237           90           90           90     102002.7   -475.77925 
  968000       967495   -6681.4011    558.05043   -7239.4515    4288.5458   -11527.997    108.15387   -721.74668     -474.134   -887.56335   -30.530053    243.77885   -95.873725      46.7237      46.7237      46.7237           90           90           90     102002.7   -694.48135 
  969000       968495   -6681.8967     563.0236   -7244.9203    4302.5799     -11547.5    109.11771   -416.43712   -723.76362   -995.91607    92.843284   -19.184541    11.692723      46.7237      46.7237      46.7237           90           90           90     102002.7   -712.03894 
  970000       969495   -6677.4362    568.22996   -7245.6661    4309.2243    -11554.89    110.12673   -676.17508   -637.48498    -860.0586    120.77198   -224.05354   -132.40109      46.7237      46.7237      46.7237           90           90           90     102002.7   -724.57288 
  971000       970495   -6654.5732    571.45387   -7226.0271    4309.8477   -11535.875    110.75155   -651.28294   -493.67179   -474.67681    175.20631    10.111325   -91.748241      46.7237      46.7237      46.7237           90           90           90     102002.7   -539.87718 
  972000       971495   -6663.7611    570.61779   -7234.3789    4319.0278   -11553.407    110.58951   -787.60203   -634.63889   -585.66289    121.39519    116.86125   -73.879659      46.7237      46.7237      46.7237           90           90           90     102002.7   -669.30127 
  973000       972495   -6653.5637    566.20115   -7219.7649    4326.2377   -11546.003    109.73354   -694.57127   -734.31067    -288.6644    263.92256    208.94161   -67.217828      46.7237      46.7237      46.7237           90           90           90     102002.7   -572.51545 
  974000       973495   -6658.6182    588.38057   -7246.9988     4294.796   -11541.795    114.03206   -261.64236   -670.08422    -711.6795    185.94302    71.988978   -62.516325      46.7237      46.7237      46.7237           90           90           90     102002.7   -547.80203 
  975000       974495   -6685.0339    558.87999   -7243.9139    4294.3988   -11538.313    108.31465   -383.57171   -459.84592   -355.55056   0.94917528    124.62727    30.008561      46.7237      46.7237      46.7237           90           90           90     102002.7   -399.65606 
  976000       975495   -6679.3571    559.29825   -7238.6554    4307.0744    -11545.73    108.39571   -834.59154   -711.14756   -863.91649   -27.318224    37.347766    -3.528217      46.7237      46.7237      46.7237           90           90           90     102002.7   -803.21853 
  977000       976495   -6662.4242     572.5868    -7235.011      4317.03   -11552.041    110.97112   -284.88732   -1069.5761   -448.25972    131.44849    76.721067     103.5799      46.7237      46.7237      46.7237           90           90           90     102002.7   -600.90773 
  978000       977495   -6709.1717    534.50855   -7243.6802    4295.1251   -11538.805     103.5913   -559.68004   -708.28072   -778.18069    59.206588     13.23401    393.78684      46.7237      46.7237      46.7237           90           90           90     102002.7   -682.04715 
  979000       978495    -6650.665     568.2971   -7218.9621    4327.6304   -11546.593    110.13975   -618.06637   -697.63191   -472.28378     40.37878    50.143757    47.234472      46.7237      46.7237      46.7237           90           90           90     102002.7   -595.99402 
  980000       979495   -6649.8282    580.48433   -7230.3126    4322.9177    -11553.23    112.50171   -672.37876   -1129.6909   -805.93953    24.234243   -3.2719308    69.654059      46.7237      46.7237      46.7237           90           90           90     102002.7   -869.33641 
  981000       980495   -6660.2322    567.95577   -7228.1879    4309.7017    -11537.89    110.07359   -803.07499     -906.723   -594.34888    28.183411   -153.46028   -283.22358      46.7237      46.7237      46.7237           90           90           90     102002.7   -768.04896 
  982000       981495   -6671.9851    557.16712   -7229.1522    4305.3512   -11534.503    107.98268   -606.27842   -579.99434   -896.16994   -170.10105    36.671837   -100.78599      46.7237      46.7237      46.7237           90           90           90     102002.7   -694.14757 
  983000       982495   -6666.5888    562.33365   -7228.9225    4310.6589   -11539.581    108.98399   -796.76838   -1280.2975   -713.12594    74.943909   -161.06461   -117.31022      46.7237      46.7237      46.7237           90           90           90     102002.7   -930.06394 
  984000       983495   -6632.2822    591.67747   -7223.9596     4323.298   -11547.258    114.67102   -793.49658   -662.52489   -881.08431     141.6452   -193.76435   -96.961662      46.7237      46.7237      46.7237           90           90           90     102002.7   -779.03526 
  985000       984495   -6686.2383    564.36232   -7250.6006    4310.2856   -11560.886    109.37716   -506.09261   -857.14225   -1273.6069   -76.192884    93.564032   -209.86623      46.7237      46.7237      46.7237           90           90           90     102002.7   -878.94725 
  986000       985495   -6688.2726    572.24465   -7260.5172    4286.4193   -11546.936    110.90481    -179.3336   -412.42146   -1034.0355   -150.48273    195.03903   -251.44381      46.7237      46.7237      46.7237           90           90           90     102002.7   -541.93018 
  987000       986495   -6660.5925    575.10396   -7235.6965    4326.3578   -11562.054    111.45896   -777.59489   -941.85813   -1173.1595      98.3671   -117.40651    137.84536      46.7237      46.7237      46.7237           90           90           90     102002.7   -964.20418 
  988000       987495   -6690.1777    559.53759   -7249.7153    4298.3659   -11548.081    108.44209   -1510.7085   -498.88984   -879.31925    219.42352    170.93075   -15.059114      46.7237      46.7237      46.7237           90           90           90     102002.7   -962.97253 
  989000       988495   -6667.4029    573.49899   -7240.9019    4299.6519   -11540.554    111.14791   -601.92688   -548.34962   -911.46335    264.47891   -19.866873   -185.35722      46.7237      46.7237      46.7237           90           90           90     102002.7   -687.24661 
  990000       989495   -6644.9491    576.23691    -7221.186    4317.9645    -11539.15    111.67853   -860.67533   -865.79471   -1210.1983    13.965912    52.847728    24.711967      46.7237      46.7237      46.7237           90           90           90     102002.7   -978.88946 
  991000       990495   -6671.1667    574.53487   -7245.7015    4322.2547   -11567.956    111.34867   -1107.6586   -887.74908   -579.72192   -170.07211   -74.680727    64.274672      46.7237      46.7237      46.7237           90           90           90     102002.7   -858.37655 
  992000       991495   -6684.2397    552.21488   -7236.4546    4306.1619   -11542.616    107.02291   -940.43788   -626.61979   -602.14055    94.839222   -159.20679    103.45668      46.7237      46.7237      46.7237           90           90           90     102002.7   -723.06607 
  993000       992495   -6667.3475    580.49906   -7247.8465    4305.2461   -11553.093    112.50457   -701.74669   -739.36857   -847.84918    -10.56574   -365.46636   -120.87469      46.7237      46.7237      46.7237           90           90           90     102002.7   -762.98814 
  994000       993495    -6682.617    565.64665   -7248.2637    4298.4991   -11546.763    109.62607   -722.56139   -595.72847   -1306.8615    213.57038   -158.28191    159.23648      46.7237      46.7237      46.7237           90           90           90     102002.7   -875.05045 
  995000       994495   -6658.9417    566.33062   -7225.2723    4313.2869   -11538.559    109.75863   -931.39466   -1078.0841   -457.09042    213.68772    11.000885    187.30642      46.7237      46.7237      46.7237           90           90           90     102002.7   -822.18972 
  996000       995495   -6686.7889    562.09231   -7248.8812     4300.448   -11549.329    108.93722   -541.14322   -889.98456   -1199.9782   -132.42077   -126.19366   -110.67779      46.7237      46.7237      46.7237           90           90           90     102002.7   -877.03532 
  997000       996495   -6662.6812    560.24276    -7222.924    4322.3559    -11545.28    108.57876   -1262.5866   -767.11716   -841.37812     99.56283    57.883228    95.517379      46.7237      46.7237      46.7237           90           90           90     102002.7    -957.0273 
  998000       997495   -6683.8584    567.85065    -7251.709    4291.4024   -11543.111    110.05322   -831.53887   -533.33279   -718.81934   -123.03419   -16.756101   -99.654377      46.7237      46.7237      46.7237           90           90           90     102002.7   -694.56367 
  999000       998495   -6655.1304    566.97904   -7222.1095    4314.5306    -11536.64     109.8843    -790.7037   -886.68899   -619.12617    52.432227    136.91555    551.86427      46.7237      46.7237      46.7237           90           90           90     102002.7   -765.50628 
 1000000       999495   -6670.7285    578.74069   -7249.4692    4294.5453   -11544.014    112.16378   -1052.7567   -520.59407   -692.82725    240.49072   -274.28317   -68.086347      46.7237      46.7237      46.7237           90           90           90     102002.7   -755.39268 
 1000505      1000000   -6662.4221    570.42689    -7232.849    4320.9673   -11553.816    110.55251   -662.66048   -755.56906    -468.1357   -2.6641023    139.47079   -70.647161      46.7237      46.7237      46.7237           90           90           90     102002.7   -628.78842 
Loop time of 607.089 on 24 procs for 500000 steps with 1732 atoms

Performance: 71.159 ns/day, 0.337 hours/ns, 823.603 timesteps/s
99.9% CPU use with 24 MPI tasks x no OpenMP threads

MPI task timing breakdown:
Section |  min time  |  avg time  |  max time  |%varavg| %total
---------------------------------------------------------------
Pair    | 206.27     | 300.69     | 393.31     | 297.4 | 49.53
Bond    | 68.221     | 82.308     | 91.031     |  56.1 | 13.56
Neigh   | 1.4885     | 1.5064     | 1.5182     |   1.0 |  0.25
Comm    | 113.21     | 207.26     | 299.87     | 361.8 | 34.14
Output  | 0.3515     | 0.41174    | 0.4145     |   2.0 |  0.07
Modify  | 11.553     | 11.886     | 12.293     |   6.3 |  1.96
Other   |            | 3.032      |            |       |  0.50

Nlocal:    72.1667 ave 93 max 46 min
Histogram: 2 1 3 1 3 2 3 4 2 3
Nghost:    1975.83 ave 2147 max 1876 min
Histogram: 9 7 0 0 0 0 0 0 4 4
Neighs:    7634.25 ave 11952 max 3558 min
Histogram: 2 1 1 4 3 7 2 1 2 1

Total # of neighbors = 183222
Ave neighs/atom = 105.786
Ave special neighs/atom = 6.65127
Neighbor list builds = 2927
Dangerous builds = 0
Total wall time: 0:19:30
