LAMMPS (30 Mar 2018)
Reading data file ...
  orthogonal box = (0 0 0) to (46.7237 46.7237 46.7237)
  2 by 3 by 4 MPI processor grid
  reading atoms ...
  1768 atoms
  scanning bonds ...
  5 = max bonds/atom
  scanning angles ...
  10 = max angles/atom
  scanning dihedrals ...
  32 = max dihedrals/atom
  scanning impropers ...
  3 = max impropers/atom
  reading bonds ...
  2064 bonds
  reading angles ...
  3696 angles
  reading dihedrals ...
  6240 dihedrals
  reading impropers ...
  1008 impropers
Finding 1-2 1-3 1-4 neighbors ...
  special bond factors lj:   0          0          0         
  special bond factors coul: 0          0          0         
  5 = max # of 1-2 neighbors
  8 = max # of 1-3 neighbors
  20 = max # of 1-4 neighbors
  19 = max # of special neighbors
Finding 1-2 1-3 1-4 neighbors ...
  special bond factors lj:   0          0          1         
  special bond factors coul: 1          1          1         
  5 = max # of 1-2 neighbors
  8 = max # of 1-3 neighbors
  19 = max # of special neighbors
WARNING: Using 'neigh_modify every 1 delay 0 check yes' setting during minimization (../min.cpp:168)
Neighbor list info ...
  update every 1 steps, delay 0 steps, check yes
  max neighbors/atom: 2000, page size: 100000
  master list distance cutoff = 16
  ghost atom cutoff = 16
  binsize = 8, bins = 6 6 6
  3 neighbor lists, perpetual/occasional/extra = 3 0 0
  (1) pair buck6d/coul/gauss/dsf, perpetual, skip from (3)
      attributes: half, newton on
      pair build: skip
      stencil: none
      bin: none
  (2) pair lj/cut, perpetual, skip from (3)
      attributes: half, newton on
      pair build: skip
      stencil: none
      bin: none
  (3) neighbor class addition, perpetual
      attributes: half, newton on
      pair build: half/bin/newton
      stencil: half/bin/3d/newton
      bin: standard
Setting up cg style minimization ...
  Unit style    : real
  Current step  : 0
WARNING: Inconsistent image flags (../domain.cpp:786)
Per MPI rank memory allocation (min/avg/max) = 22.87 | 23.28 | 24.42 Mbytes
Step Temp E_pair E_mol TotEng Press 
       0            0   -11627.328    6482.8914   -5144.4362     6235.777 
     504            0   -11648.942    3724.3149   -7924.6266   -463.91706 
Loop time of 1.19963 on 24 procs for 504 steps with 1768 atoms

99.9% CPU use with 24 MPI tasks x no OpenMP threads

Minimization stats:
  Stopping criterion = max force evaluations
  Energy initial, next-to-last, final = 
        -5144.43624064     -7924.62030594     -7924.62664852
  Force two-norm initial, final = 2576.76 3.8543
  Force max component initial, final = 151.99 0.674557
  Final line search alpha, max atom move = 0.0157048 0.0105938
  Iterations, force evaluations = 504 1000

MPI task timing breakdown:
Section |  min time  |  avg time  |  max time  |%varavg| %total
---------------------------------------------------------------
Pair    | 0.44635    | 0.61809    | 0.76767    |  11.9 | 51.52
Bond    | 0.11339    | 0.1576     | 0.18724    |   4.8 | 13.14
Neigh   | 0.0049712  | 0.0054802  | 0.0058227  |   0.4 |  0.46
Comm    | 0.25218    | 0.39146    | 0.55904    |  15.2 | 32.63
Output  | 0          | 0          | 0          |   0.0 |  0.00
Modify  | 0          | 0          | 0          |   0.0 |  0.00
Other   |            | 0.027      |            |       |  2.25

Nlocal:    73.6667 ave 88 max 53 min
Histogram: 1 1 1 3 4 1 3 1 7 2
Nghost:    2005.92 ave 2181 max 1910 min
Histogram: 15 1 0 0 0 0 0 0 1 7
Neighs:    7630.29 ave 11314 max 4679 min
Histogram: 4 3 2 4 1 2 1 2 3 2

Total # of neighbors = 183127
Ave neighs/atom = 103.579
Ave special neighs/atom = 6.51584
Neighbor list builds = 9
Dangerous builds = 0
Neighbor list info ...
  update every 1 steps, delay 10 steps, check yes
  max neighbors/atom: 2000, page size: 100000
  master list distance cutoff = 16
  ghost atom cutoff = 16
  binsize = 8, bins = 6 6 6
  3 neighbor lists, perpetual/occasional/extra = 3 0 0
  (1) pair buck6d/coul/gauss/dsf, perpetual, skip from (3)
      attributes: half, newton on
      pair build: skip
      stencil: none
      bin: none
  (2) pair lj/cut, perpetual, skip from (3)
      attributes: half, newton on
      pair build: skip
      stencil: none
      bin: none
  (3) neighbor class addition, perpetual
      attributes: half, newton on
      pair build: half/bin/newton
      stencil: half/bin/3d/newton
      bin: standard
Setting up Verlet run ...
  Unit style    : real
  Current step  : 504
  Time step     : 1
WARNING: Inconsistent image flags (../domain.cpp:786)
Per MPI rank memory allocation (min/avg/max) = 22.52 | 22.69 | 23.3 Mbytes
Step Temp PotEng TotEng Press Volume Lx Ly Lz 
     504          110   -7924.6266   -7345.2466   -204.26923     102002.7      46.7237      46.7237      46.7237 
    1000    99.781042   -7426.6982   -6901.1424   -734.14513     102002.7      46.7237      46.7237      46.7237 
    2000    109.11685   -7309.8895   -6735.1611   -599.23029     102002.7      46.7237      46.7237      46.7237 
    3000    106.78238   -7308.1857   -6745.7531   -919.78764     102002.7      46.7237      46.7237      46.7237 
    4000    108.09667   -7349.1117   -6779.7567   -949.41619     102002.7      46.7237      46.7237      46.7237 
    5000    111.01843   -7316.8031   -6732.0588   -924.79992     102002.7      46.7237      46.7237      46.7237 
    6000    111.08768   -7348.2678   -6763.1588   -438.56358     102002.7      46.7237      46.7237      46.7237 
    7000    111.56786   -7331.1043   -6743.4662   -840.74364     102002.7      46.7237      46.7237      46.7237 
    8000    111.15385   -7342.7897   -6757.3322   -707.61488     102002.7      46.7237      46.7237      46.7237 
    9000    110.05355   -7338.2697   -6758.6076   -591.05715     102002.7      46.7237      46.7237      46.7237 
   10000    108.82443   -7326.7037   -6753.5155   -504.02159     102002.7      46.7237      46.7237      46.7237 
   11000    108.65166   -7296.5096   -6724.2314   -441.46401     102002.7      46.7237      46.7237      46.7237 
   12000    109.10035   -7330.7932   -6756.1517   -464.32425     102002.7      46.7237      46.7237      46.7237 
   13000    115.52966   -7333.8557   -6725.3504   -432.23601     102002.7      46.7237      46.7237      46.7237 
   14000    107.45419    -7327.918   -6761.9469   -528.16291     102002.7      46.7237      46.7237      46.7237 
   15000    106.68691   -7342.0319   -6780.1022   -514.86095     102002.7      46.7237      46.7237      46.7237 
   16000    108.51973   -7329.7259   -6758.1425   -808.62994     102002.7      46.7237      46.7237      46.7237 
   17000    109.95627   -7319.4595   -6740.3098    -661.8614     102002.7      46.7237      46.7237      46.7237 
   18000    107.95804   -7326.6025   -6757.9776   -669.74036     102002.7      46.7237      46.7237      46.7237 
   19000    106.11594   -7317.5087   -6758.5863   -503.29123     102002.7      46.7237      46.7237      46.7237 
   20000    112.95354   -7347.6755   -6752.7389   -390.83543     102002.7      46.7237      46.7237      46.7237 
   21000    110.47421   -7317.2055   -6735.3277   -533.94765     102002.7      46.7237      46.7237      46.7237 
   22000    106.41515   -7326.3641   -6765.8658   -747.92863     102002.7      46.7237      46.7237      46.7237 
   23000    110.24871   -7353.1769   -6772.4868   -596.09124     102002.7      46.7237      46.7237      46.7237 
   24000    109.13553   -7332.7176   -6757.8908   -915.10867     102002.7      46.7237      46.7237      46.7237 
   25000    110.84935   -7328.2865   -6744.4329   -705.93242     102002.7      46.7237      46.7237      46.7237 
   26000    106.71571   -7335.8426   -6773.7612   -319.28194     102002.7      46.7237      46.7237      46.7237 
   27000    113.00741   -7304.1734    -6708.953   -594.89735     102002.7      46.7237      46.7237      46.7237 
   28000    108.81076   -7335.1607   -6762.0444   -625.23182     102002.7      46.7237      46.7237      46.7237 
   29000    112.68407   -7307.5428   -6714.0254   -741.61182     102002.7      46.7237      46.7237      46.7237 
   30000    110.67324   -7328.3874   -6745.4613   -625.58718     102002.7      46.7237      46.7237      46.7237 
   31000    108.94352   -7348.0248   -6774.2093   -626.62488     102002.7      46.7237      46.7237      46.7237 
   32000     112.2427   -7335.8784   -6744.6858   -228.99324     102002.7      46.7237      46.7237      46.7237 
   33000    111.39847     -7331.13   -6744.3841   -661.16648     102002.7      46.7237      46.7237      46.7237 
   34000    113.25261   -7327.9091   -6731.3973   -510.83278     102002.7      46.7237      46.7237      46.7237 
   35000    109.35648   -7338.6924   -6762.7018   -451.88217     102002.7      46.7237      46.7237      46.7237 
   36000     113.6859   -7316.2284   -6717.4344   -681.21187     102002.7      46.7237      46.7237      46.7237 
   37000    111.84111   -7340.5391   -6751.4618   -520.05955     102002.7      46.7237      46.7237      46.7237 
   38000    109.08008   -7330.5906   -6756.0559   -1093.2436     102002.7      46.7237      46.7237      46.7237 
   39000    113.23259   -7333.9927   -6737.5863   -693.36942     102002.7      46.7237      46.7237      46.7237 
   40000    106.96133   -7319.5382   -6756.1631   -795.84682     102002.7      46.7237      46.7237      46.7237 
   41000    112.49912   -7337.7629   -6745.2197   -499.27808     102002.7      46.7237      46.7237      46.7237 
   42000    110.92144   -7341.3076   -6757.0742   -687.28133     102002.7      46.7237      46.7237      46.7237 
   43000     111.9341   -7326.7833   -6737.2162   -586.81133     102002.7      46.7237      46.7237      46.7237 
   44000    111.25861   -7317.4154   -6731.4062   -573.38881     102002.7      46.7237      46.7237      46.7237 
   45000     108.3638   -7341.8015   -6771.0395   -981.50398     102002.7      46.7237      46.7237      46.7237 
   46000    109.00011   -7324.4149   -6750.3013   -411.53067     102002.7      46.7237      46.7237      46.7237 
   47000    110.09259   -7311.4916   -6731.6239   -949.33099     102002.7      46.7237      46.7237      46.7237 
   48000    108.93744   -7336.9617   -6763.1783   -830.74755     102002.7      46.7237      46.7237      46.7237 
   49000    113.27234   -7319.6366   -6723.0209   -771.01362     102002.7      46.7237      46.7237      46.7237 
   50000    111.84484   -7330.1367   -6741.0397   -1004.3388     102002.7      46.7237      46.7237      46.7237 
   51000    108.31918   -7353.5535   -6783.0266   -508.84586     102002.7      46.7237      46.7237      46.7237 
   52000    111.48068   -7339.4137   -6752.2347   -910.79389     102002.7      46.7237      46.7237      46.7237 
   53000    112.55986   -7317.7585   -6724.8954   -872.34037     102002.7      46.7237      46.7237      46.7237 
   54000    108.74432   -7329.0414   -6756.2751   -721.56644     102002.7      46.7237      46.7237      46.7237 
   55000    110.95056   -7319.4002   -6735.0134   -520.51667     102002.7      46.7237      46.7237      46.7237 
   56000    105.78811   -7329.1127    -6771.917   -839.85837     102002.7      46.7237      46.7237      46.7237 
   57000    111.60163   -7351.5731   -6763.7571   -759.41032     102002.7      46.7237      46.7237      46.7237 
   58000    112.12185   -7303.2685   -6712.7124     -408.072     102002.7      46.7237      46.7237      46.7237 
   59000    107.48768   -7324.1928   -6758.0454   -885.70536     102002.7      46.7237      46.7237      46.7237 
   60000    107.11835   -7340.4555   -6776.2534   -758.76868     102002.7      46.7237      46.7237      46.7237 
   61000    109.82986   -7325.7159    -6747.232   -780.49709     102002.7      46.7237      46.7237      46.7237 
   62000    110.46043   -7320.0905   -6738.2853   -639.60263     102002.7      46.7237      46.7237      46.7237 
   63000    107.89629   -7319.2084   -6750.9088   -870.20299     102002.7      46.7237      46.7237      46.7237 
   64000    111.51938    -7319.259   -6731.8763   -885.68313     102002.7      46.7237      46.7237      46.7237 
   65000     110.7418   -7337.9068   -6754.6197   -506.30847     102002.7      46.7237      46.7237      46.7237 
   66000     109.1986   -7331.3087   -6756.1497   -911.11501     102002.7      46.7237      46.7237      46.7237 
   67000    108.27002   -7329.3361    -6759.068   -952.32365     102002.7      46.7237      46.7237      46.7237 
   68000    109.29034   -7348.1152    -6772.473   -887.07801     102002.7      46.7237      46.7237      46.7237 
   69000    109.47133    -7322.957   -6746.3615   -1045.0308     102002.7      46.7237      46.7237      46.7237 
   70000    110.17863   -7323.4413   -6743.1204   -874.56219     102002.7      46.7237      46.7237      46.7237 
   71000    108.72696   -7337.1201   -6764.4453   -805.83026     102002.7      46.7237      46.7237      46.7237 
   72000    110.68341   -7337.2989   -6754.3193   -798.98324     102002.7      46.7237      46.7237      46.7237 
   73000    114.58584   -7334.2005   -6730.6664   -585.86739     102002.7      46.7237      46.7237      46.7237 
   74000     109.2183   -7323.1962   -6747.9334   -847.15515     102002.7      46.7237      46.7237      46.7237 
   75000     109.6516    -7354.712    -6777.167   -561.57636     102002.7      46.7237      46.7237      46.7237 
   76000    108.16174   -7330.6776   -6760.9798   -786.26851     102002.7      46.7237      46.7237      46.7237 
   77000    109.91859   -7313.1173   -6734.1661    -692.6581     102002.7      46.7237      46.7237      46.7237 
   78000     107.3592   -7340.2216   -6774.7509   -645.77905     102002.7      46.7237      46.7237      46.7237 
   79000    110.96195    -7356.939   -6772.4923   -470.95722     102002.7      46.7237      46.7237      46.7237 
   80000    106.63335   -7319.9105   -6758.2628   -567.30439     102002.7      46.7237      46.7237      46.7237 
   81000    115.18817   -7315.6719   -6708.9653   -634.28536     102002.7      46.7237      46.7237      46.7237 
   82000    107.93107   -7334.8123   -6766.3295   -729.41412     102002.7      46.7237      46.7237      46.7237 
   83000    106.83656   -7337.1992   -6774.4813   -777.60661     102002.7      46.7237      46.7237      46.7237 
   84000    110.28193   -7336.8297   -6755.9647   -614.39404     102002.7      46.7237      46.7237      46.7237 
   85000    107.31383   -7331.6258   -6766.3941   -763.19671     102002.7      46.7237      46.7237      46.7237 
   86000    111.04218   -7333.6731   -6748.8037   -873.11433     102002.7      46.7237      46.7237      46.7237 
   87000    107.65214   -7336.7888   -6769.7752   -588.39862     102002.7      46.7237      46.7237      46.7237 
   88000    112.81319   -7341.4903   -6747.2929   -519.24276     102002.7      46.7237      46.7237      46.7237 
   89000     112.0379   -7329.5293   -6739.4155   -359.64807     102002.7      46.7237      46.7237      46.7237 
   90000    111.46099   -7342.3304   -6755.2551   -586.82257     102002.7      46.7237      46.7237      46.7237 
   91000    107.78177   -7338.9779   -6771.2815   -543.51723     102002.7      46.7237      46.7237      46.7237 
   92000    109.77243   -7322.5125   -6744.3311   -503.08212     102002.7      46.7237      46.7237      46.7237 
   93000    107.32916   -7341.0689   -6775.7564   -540.92662     102002.7      46.7237      46.7237      46.7237 
   94000    108.29818    -7328.494   -6758.0776   -632.24583     102002.7      46.7237      46.7237      46.7237 
   95000    110.70227   -7337.2082   -6754.1292   -432.29463     102002.7      46.7237      46.7237      46.7237 
   96000    106.86342    -7328.164   -6765.3046   -687.01255     102002.7      46.7237      46.7237      46.7237 
   97000    112.75791   -7328.9561   -6735.0499   -624.24686     102002.7      46.7237      46.7237      46.7237 
   98000    109.92006   -7320.6729    -6741.714    -540.1661     102002.7      46.7237      46.7237      46.7237 
   99000    108.98823   -7338.9159    -6764.865   -705.82329     102002.7      46.7237      46.7237      46.7237 
  100000    110.66953   -7324.6069   -6741.7004   -630.65017     102002.7      46.7237      46.7237      46.7237 
  101000    109.29438   -7306.3837   -6730.7202   -732.33427     102002.7      46.7237      46.7237      46.7237 
  102000    114.19977   -7331.4665   -6729.9658   -595.95347     102002.7      46.7237      46.7237      46.7237 
  103000    105.40501   -7320.5073   -6765.3295    -736.4049     102002.7      46.7237      46.7237      46.7237 
  104000    111.43812   -7329.5445   -6742.5898    -722.4821     102002.7      46.7237      46.7237      46.7237 
  105000    107.20007   -7328.6867   -6764.0541   -553.14966     102002.7      46.7237      46.7237      46.7237 
  106000    115.89817   -7319.6703   -6709.2241   -694.00251     102002.7      46.7237      46.7237      46.7237 
  107000     110.0122   -7323.7859   -6744.3416   -804.76397     102002.7      46.7237      46.7237      46.7237 
  108000    107.98578   -7345.2335   -6776.4626   -361.98811     102002.7      46.7237      46.7237      46.7237 
  109000    107.59521   -7315.7608    -6749.047   -582.52478     102002.7      46.7237      46.7237      46.7237 
  110000    110.31069   -7320.9865     -6739.97   -525.73105     102002.7      46.7237      46.7237      46.7237 
  111000    108.46417   -7335.7117    -6764.421   -593.41332     102002.7      46.7237      46.7237      46.7237 
  112000    109.24835   -7340.2723   -6764.8512   -525.47702     102002.7      46.7237      46.7237      46.7237 
  113000    111.70646   -7332.6619   -6744.2938   -639.22556     102002.7      46.7237      46.7237      46.7237 
  114000    112.93342   -7349.7168   -6754.8861   -766.42213     102002.7      46.7237      46.7237      46.7237 
  115000    109.04788   -7313.4613   -6739.0961   -552.58643     102002.7      46.7237      46.7237      46.7237 
  116000    111.22968   -7324.9945   -6739.1376   -856.75133     102002.7      46.7237      46.7237      46.7237 
  117000    110.71767   -7341.5555   -6758.3954   -417.86487     102002.7      46.7237      46.7237      46.7237 
  118000    112.20983   -7312.7856   -6721.7661   -1031.4411     102002.7      46.7237      46.7237      46.7237 
  119000    110.40181   -7329.6295   -6748.1331   -434.99631     102002.7      46.7237      46.7237      46.7237 
  120000    109.79129   -7330.6935   -6752.4128   -670.70321     102002.7      46.7237      46.7237      46.7237 
  121000    114.16932   -7337.9067   -6736.5665   -719.13167     102002.7      46.7237      46.7237      46.7237 
  122000    112.01615   -7342.8721   -6752.8729   -596.45639     102002.7      46.7237      46.7237      46.7237 
  123000    106.18784   -7325.5475   -6766.2464   -712.20387     102002.7      46.7237      46.7237      46.7237 
  124000    108.08532   -7319.5892   -6750.2939   -592.20348     102002.7      46.7237      46.7237      46.7237 
  125000     109.3088   -7324.8182   -6749.0788   -800.91781     102002.7      46.7237      46.7237      46.7237 
  126000    113.69614   -7330.4419    -6731.594   -790.28715     102002.7      46.7237      46.7237      46.7237 
  127000    111.13829    -7330.518   -6745.1424   -791.99879     102002.7      46.7237      46.7237      46.7237 
  128000    111.06621   -7355.3599    -6770.364   -968.20416     102002.7      46.7237      46.7237      46.7237 
  129000    112.05882   -7325.5765   -6735.3525   -577.21358     102002.7      46.7237      46.7237      46.7237 
  130000    107.44141   -7330.2293   -6764.3256    -556.9331     102002.7      46.7237      46.7237      46.7237 
  131000     109.8233   -7330.8279   -6752.3785   -711.33956     102002.7      46.7237      46.7237      46.7237 
  132000    111.69319   -7361.8291   -6773.5309   -520.94745     102002.7      46.7237      46.7237      46.7237 
  133000    112.16753   -7339.8675   -6749.0708   -808.92491     102002.7      46.7237      46.7237      46.7237 
  134000    111.87474   -7324.9184   -6735.6639   -467.61123     102002.7      46.7237      46.7237      46.7237 
  135000    108.01101   -7340.0871   -6771.1833   -356.72261     102002.7      46.7237      46.7237      46.7237 
  136000    111.06659   -7330.3299   -6745.3321   -618.93384     102002.7      46.7237      46.7237      46.7237 
  137000    113.15938   -7301.8996   -6705.8788   -864.61779     102002.7      46.7237      46.7237      46.7237 
  138000    109.50815   -7336.8509   -6760.0614   -686.81254     102002.7      46.7237      46.7237      46.7237 
  139000    111.27261   -7321.9301   -6735.8471    -691.8537     102002.7      46.7237      46.7237      46.7237 
  140000     109.6546   -7318.2706   -6740.7098   -500.01133     102002.7      46.7237      46.7237      46.7237 
  141000    112.89884   -7332.7894   -6738.1409   -625.52794     102002.7      46.7237      46.7237      46.7237 
  142000    107.15078   -7331.2381   -6766.8651   -747.82013     102002.7      46.7237      46.7237      46.7237 
  143000    108.70013   -7338.8629   -6766.3293   -667.33419     102002.7      46.7237      46.7237      46.7237 
  144000    110.11008   -7323.7168   -6743.7569   -885.43924     102002.7      46.7237      46.7237      46.7237 
  145000    111.66582   -7340.9505   -6752.7964   -549.01245     102002.7      46.7237      46.7237      46.7237 
  146000     111.2512   -7314.9715   -6729.0012   -656.60818     102002.7      46.7237      46.7237      46.7237 
  147000    107.81548   -7334.7989   -6766.9249   -510.98585     102002.7      46.7237      46.7237      46.7237 
  148000    108.21634   -7332.2827   -6762.2973   -352.62859     102002.7      46.7237      46.7237      46.7237 
  149000    113.08869   -7334.7012   -6739.0527   -490.85305     102002.7      46.7237      46.7237      46.7237 
  150000    106.98857    -7333.093   -6769.5745   -678.58491     102002.7      46.7237      46.7237      46.7237 
  151000    107.99721   -7315.1141   -6746.2829   -735.63596     102002.7      46.7237      46.7237      46.7237 
  152000    108.97234   -7337.2816   -6763.3143   -577.75788     102002.7      46.7237      46.7237      46.7237 
  153000     109.4403   -7335.1661    -6758.734   -489.60685     102002.7      46.7237      46.7237      46.7237 
  154000    109.57402    -7330.975   -6753.8386   -761.95988     102002.7      46.7237      46.7237      46.7237 
  155000    110.49415   -7343.0184   -6761.0356   -469.71542     102002.7      46.7237      46.7237      46.7237 
  156000    107.23982   -7344.8576   -6780.0157   -673.16553     102002.7      46.7237      46.7237      46.7237 
  157000    106.47495   -7336.0909   -6775.2776   -607.96277     102002.7      46.7237      46.7237      46.7237 
  158000    107.20491   -7325.4973   -6760.8392   -517.81221     102002.7      46.7237      46.7237      46.7237 
  159000    112.14557   -7319.4631   -6728.7821   -996.36916     102002.7      46.7237      46.7237      46.7237 
  160000    107.63425   -7331.5485    -6764.629   -878.02053     102002.7      46.7237      46.7237      46.7237 
  161000    108.94344   -7323.6087   -6749.7937   -681.75939     102002.7      46.7237      46.7237      46.7237 
  162000    105.30646   -7330.7546   -6776.0958   -700.52447     102002.7      46.7237      46.7237      46.7237 
  163000    111.92137   -7327.3533   -6737.8532   -519.98786     102002.7      46.7237      46.7237      46.7237 
  164000    105.60835   -7347.0947   -6790.8459   -741.59619     102002.7      46.7237      46.7237      46.7237 
  165000    111.10189   -7328.3757   -6743.1919   -742.56725     102002.7      46.7237      46.7237      46.7237 
  166000    109.19309   -7346.0887   -6770.9587   -517.82286     102002.7      46.7237      46.7237      46.7237 
  167000    108.56988   -7348.3727   -6776.5253   -654.56925     102002.7      46.7237      46.7237      46.7237 
  168000    113.80701   -7340.4109    -6740.979   -610.98781     102002.7      46.7237      46.7237      46.7237 
  169000    111.24844   -7313.9691   -6728.0134   -537.75807     102002.7      46.7237      46.7237      46.7237 
  170000    109.12951   -7337.6512   -6762.8562   -681.52215     102002.7      46.7237      46.7237      46.7237 
  171000     110.0977   -7355.9586   -6776.0639   -670.61921     102002.7      46.7237      46.7237      46.7237 
  172000    107.65413   -7333.4459   -6766.4217   -664.09085     102002.7      46.7237      46.7237      46.7237 
  173000      112.818    -7331.475   -6737.2523   -695.51614     102002.7      46.7237      46.7237      46.7237 
  174000    111.07384   -7338.6504   -6753.6144   -895.28086     102002.7      46.7237      46.7237      46.7237 
  175000    111.34368   -7338.2933    -6751.836   -630.94422     102002.7      46.7237      46.7237      46.7237 
  176000    113.32207   -7356.5332   -6759.6555   -731.24978     102002.7      46.7237      46.7237      46.7237 
  177000    109.38825   -7317.4082   -6741.2503   -652.75072     102002.7      46.7237      46.7237      46.7237 
  178000     108.5222     -7351.04   -6779.4436   -656.40981     102002.7      46.7237      46.7237      46.7237 
  179000    110.45186   -7325.4899   -6743.7299   -626.87953     102002.7      46.7237      46.7237      46.7237 
  180000    113.66467   -7337.7307   -6739.0485   -660.49469     102002.7      46.7237      46.7237      46.7237 
  181000     106.4793   -7342.2469   -6781.4106   -801.51248     102002.7      46.7237      46.7237      46.7237 
  182000    112.37251    -7321.483   -6729.6067   -702.94516     102002.7      46.7237      46.7237      46.7237 
  183000    110.20308   -7339.7541   -6759.3044   -797.55266     102002.7      46.7237      46.7237      46.7237 
  184000    108.80538   -7340.3832   -6767.2953   -824.10053     102002.7      46.7237      46.7237      46.7237 
  185000    108.62601   -7333.7935   -6761.6504   -912.40068     102002.7      46.7237      46.7237      46.7237 
  186000    115.18065   -7315.4065   -6708.7396   -587.37118     102002.7      46.7237      46.7237      46.7237 
  187000    109.42683   -7338.0618   -6761.7007    -500.5409     102002.7      46.7237      46.7237      46.7237 
  188000    109.54928   -7317.7524   -6740.7463   -661.10514     102002.7      46.7237      46.7237      46.7237 
  189000    109.62557    -7359.672   -6782.2641   -596.29764     102002.7      46.7237      46.7237      46.7237 
  190000    108.51601   -7327.3922   -6755.8285   -738.42333     102002.7      46.7237      46.7237      46.7237 
  191000     113.2578   -7346.4401   -6749.9009   -466.06358     102002.7      46.7237      46.7237      46.7237 
  192000    108.81723   -7318.5381   -6745.3879    -669.8032     102002.7      46.7237      46.7237      46.7237 
  193000    112.98826   -7314.8799   -6719.7604   -871.58544     102002.7      46.7237      46.7237      46.7237 
  194000    109.19612   -7340.7128   -6765.5668   -477.08815     102002.7      46.7237      46.7237      46.7237 
  195000     111.3584    -7325.673   -6739.1381   -771.47248     102002.7      46.7237      46.7237      46.7237 
  196000    111.19305   -7317.6228   -6731.9588   -834.82941     102002.7      46.7237      46.7237      46.7237 
  197000    110.04204   -7313.8081   -6734.2066   -769.37457     102002.7      46.7237      46.7237      46.7237 
  198000    110.37156   -7341.0964   -6759.7593   -546.58657     102002.7      46.7237      46.7237      46.7237 
  199000    109.29573   -7322.1163   -6746.4457   -844.68627     102002.7      46.7237      46.7237      46.7237 
  200000    108.61324   -7334.9762   -6762.9003   -807.42641     102002.7      46.7237      46.7237      46.7237 
  201000    109.46434   -7339.5354   -6762.9768   -479.64921     102002.7      46.7237      46.7237      46.7237 
  202000    110.39496    -7332.248   -6750.7877   -834.90898     102002.7      46.7237      46.7237      46.7237 
  203000    109.41918   -7328.0675   -6751.7467   -618.81654     102002.7      46.7237      46.7237      46.7237 
  204000    107.21728   -7346.5708   -6781.8476   -811.73916     102002.7      46.7237      46.7237      46.7237 
  205000    112.63201   -7333.1131     -6739.87   -673.76895     102002.7      46.7237      46.7237      46.7237 
  206000    111.55546   -7336.3003   -6748.7275   -666.96838     102002.7      46.7237      46.7237      46.7237 
  207000    112.74767   -7323.4348   -6729.5825    -824.4618     102002.7      46.7237      46.7237      46.7237 
  208000    110.45931   -7336.1329   -6754.3337   -847.20823     102002.7      46.7237      46.7237      46.7237 
  209000    108.69462    -7309.993   -6737.4885   -601.80379     102002.7      46.7237      46.7237      46.7237 
  210000    109.41659   -7336.6856   -6760.3785   -563.04017     102002.7      46.7237      46.7237      46.7237 
  211000    108.45316   -7334.3001   -6763.0673   -829.05095     102002.7      46.7237      46.7237      46.7237 
  212000    107.42481   -7331.5782   -6765.7619   -625.65647     102002.7      46.7237      46.7237      46.7237 
  213000    111.54968    -7324.901   -6737.3586   -858.86288     102002.7      46.7237      46.7237      46.7237 
  214000    111.18266   -7330.5246   -6744.9154   -963.72256     102002.7      46.7237      46.7237      46.7237 
  215000    110.65271   -7334.9322   -6752.1142   -710.70517     102002.7      46.7237      46.7237      46.7237 
  216000    109.43295   -7338.6724   -6762.2791   -501.95779     102002.7      46.7237      46.7237      46.7237 
  217000    109.32165   -7316.8905   -6741.0834   -424.73299     102002.7      46.7237      46.7237      46.7237 
  218000    111.70017   -7343.0699   -6754.7348   -386.37681     102002.7      46.7237      46.7237      46.7237 
  219000    110.90568   -7318.1621   -6734.0117   -780.92431     102002.7      46.7237      46.7237      46.7237 
  220000    107.52945   -7346.8431   -6780.4757   -528.52119     102002.7      46.7237      46.7237      46.7237 
  221000    111.15953   -7320.7812   -6735.2938   -559.55854     102002.7      46.7237      46.7237      46.7237 
  222000    111.29777   -7334.6757   -6748.4602   -593.98793     102002.7      46.7237      46.7237      46.7237 
  223000    111.61445   -7327.9833   -6740.0998   -504.94071     102002.7      46.7237      46.7237      46.7237 
  224000    112.01853   -7326.4396   -6736.4278   -704.42413     102002.7      46.7237      46.7237      46.7237 
  225000    108.23272   -7340.9038   -6770.8322   -954.77437     102002.7      46.7237      46.7237      46.7237 
  226000    110.78413   -7323.4222    -6739.912    -754.3807     102002.7      46.7237      46.7237      46.7237 
  227000    112.12245   -7339.8125   -6749.2533   -673.78143     102002.7      46.7237      46.7237      46.7237 
  228000    109.36512   -7344.3551    -6768.319   -488.11086     102002.7      46.7237      46.7237      46.7237 
  229000    110.44356   -7322.6527   -6740.9364   -653.90089     102002.7      46.7237      46.7237      46.7237 
  230000    106.49288   -7334.8858   -6773.9781   -739.02525     102002.7      46.7237      46.7237      46.7237 
  231000    111.28747    -7325.504   -6739.3427   -615.53906     102002.7      46.7237      46.7237      46.7237 
  232000    106.76946   -7338.7489   -6776.3844   -598.73607     102002.7      46.7237      46.7237      46.7237 
  233000     107.6783   -7331.2615   -6764.1101   -703.63109     102002.7      46.7237      46.7237      46.7237 
  234000    109.83568   -7317.6237   -6739.1092   -836.46684     102002.7      46.7237      46.7237      46.7237 
  235000    108.61031   -7327.0376   -6754.9772   -480.82898     102002.7      46.7237      46.7237      46.7237 
  236000    108.28207   -7327.7253   -6757.3937   -537.27381     102002.7      46.7237      46.7237      46.7237 
  237000    110.31018   -7322.8648    -6741.851   -763.68134     102002.7      46.7237      46.7237      46.7237 
  238000    108.78231   -7346.4086   -6773.4422   -945.85043     102002.7      46.7237      46.7237      46.7237 
  239000    108.63445   -7319.6651   -6747.4775   -669.14991     102002.7      46.7237      46.7237      46.7237 
  240000    109.54179   -7323.8963   -6746.9297   -872.77823     102002.7      46.7237      46.7237      46.7237 
  241000    108.48589    -7341.174   -6769.7689   -571.11096     102002.7      46.7237      46.7237      46.7237 
  242000    109.19993   -7342.5571   -6767.3911   -631.85494     102002.7      46.7237      46.7237      46.7237 
  243000    109.32022   -7325.8819   -6750.0823   -820.24968     102002.7      46.7237      46.7237      46.7237 
  244000    109.26079   -7320.4518   -6744.9652   -1066.6048     102002.7      46.7237      46.7237      46.7237 
  245000    110.41555   -7315.2223   -6733.6535   -639.13672     102002.7      46.7237      46.7237      46.7237 
  246000    110.03378   -7333.3635   -6753.8055   -777.11119     102002.7      46.7237      46.7237      46.7237 
  247000    109.95924   -7314.4303   -6735.2649    -639.3757     102002.7      46.7237      46.7237      46.7237 
  248000    107.16813    -7325.489   -6761.0247   -770.68982     102002.7      46.7237      46.7237      46.7237 
  249000    112.81397    -7329.107   -6734.9055   -630.38439     102002.7      46.7237      46.7237      46.7237 
  250000    106.58587   -7325.1851   -6763.7876   -647.64436     102002.7      46.7237      46.7237      46.7237 
  251000    109.29402   -7336.2791   -6760.6176   -653.25209     102002.7      46.7237      46.7237      46.7237 
  252000    112.20993   -7341.4275   -6750.4075   -546.59672     102002.7      46.7237      46.7237      46.7237 
  253000    105.63417   -7335.5539   -6779.1691     -494.761     102002.7      46.7237      46.7237      46.7237 
  254000    110.19242   -7340.1861   -6759.7926   -556.14125     102002.7      46.7237      46.7237      46.7237 
  255000    106.64987   -7335.4002   -6773.6656   -703.49192     102002.7      46.7237      46.7237      46.7237 
  256000    108.30952   -7326.1756   -6755.6995    -920.1774     102002.7      46.7237      46.7237      46.7237 
  257000    116.52574    -7320.987   -6707.2353    -711.5981     102002.7      46.7237      46.7237      46.7237 
  258000    109.52274   -7341.8077   -6764.9414   -590.26063     102002.7      46.7237      46.7237      46.7237 
  259000      112.659   -7327.5201   -6734.1349   -623.16495     102002.7      46.7237      46.7237      46.7237 
  260000    110.08662   -7336.5828   -6756.7466    -540.7627     102002.7      46.7237      46.7237      46.7237 
  261000    109.06373   -7309.6338   -6735.1852   -649.37018     102002.7      46.7237      46.7237      46.7237 
  262000    111.37439   -7320.5426   -6733.9235   -827.05025     102002.7      46.7237      46.7237      46.7237 
  263000    109.56351   -7357.7688   -6780.6878    -811.4375     102002.7      46.7237      46.7237      46.7237 
  264000    106.34499   -7314.3436   -6754.2148   -947.33708     102002.7      46.7237      46.7237      46.7237 
  265000     111.8072   -7331.3645   -6742.4658   -902.90508     102002.7      46.7237      46.7237      46.7237 
  266000    102.62772    -7351.999   -6811.4494   -912.32973     102002.7      46.7237      46.7237      46.7237 
  267000    110.67712   -7332.8668   -6749.9203   -850.64243     102002.7      46.7237      46.7237      46.7237 
  268000    110.32118    -7336.179   -6755.1072   -350.53663     102002.7      46.7237      46.7237      46.7237 
  269000    110.48027   -7349.2181   -6767.3084   -529.05785     102002.7      46.7237      46.7237      46.7237 
  270000    111.70152    -7335.288   -6746.9459   -619.17641     102002.7      46.7237      46.7237      46.7237 
  271000    110.05259    -7352.603    -6772.946   -741.12197     102002.7      46.7237      46.7237      46.7237 
  272000     108.9098   -7314.8116   -6741.1737   -629.87383     102002.7      46.7237      46.7237      46.7237 
  273000    108.32725   -7328.2649   -6757.6954   -572.29369     102002.7      46.7237      46.7237      46.7237 
  274000      111.694    -7329.173   -6740.8705   -638.88328     102002.7      46.7237      46.7237      46.7237 
  275000    110.91134   -7325.6723   -6741.4921   -730.56943     102002.7      46.7237      46.7237      46.7237 
  276000    112.42365   -7347.9323   -6755.7867   -847.11617     102002.7      46.7237      46.7237      46.7237 
  277000    111.64058   -7320.0763   -6732.0552   -748.78774     102002.7      46.7237      46.7237      46.7237 
  278000    112.77928    -7345.725   -6751.7062   -459.56854     102002.7      46.7237      46.7237      46.7237 
  279000    108.06539   -7342.4592   -6773.2689   -648.78116     102002.7      46.7237      46.7237      46.7237 
  280000    109.20119   -7327.5507    -6752.378   -722.08808     102002.7      46.7237      46.7237      46.7237 
  281000    108.87698   -7341.1231   -6767.6581    -453.1438     102002.7      46.7237      46.7237      46.7237 
  282000    110.31228   -7319.9872   -6738.9624   -369.33455     102002.7      46.7237      46.7237      46.7237 
  283000    111.59194   -7320.3422   -6732.5773   -273.29559     102002.7      46.7237      46.7237      46.7237 
  284000    110.49506   -7326.4315    -6744.444   -518.17643     102002.7      46.7237      46.7237      46.7237 
  285000    111.36942   -7327.2493   -6740.6563   -591.75097     102002.7      46.7237      46.7237      46.7237 
  286000    106.09695   -7324.0134    -6765.191    -773.5918     102002.7      46.7237      46.7237      46.7237 
  287000    108.82103   -7317.8925   -6744.7222     -387.252     102002.7      46.7237      46.7237      46.7237 
  288000    114.79927   -7331.6233   -6726.9651   -636.26735     102002.7      46.7237      46.7237      46.7237 
  289000    108.83016   -7337.5875    -6764.369   -907.84762     102002.7      46.7237      46.7237      46.7237 
  290000     107.6045   -7338.1942   -6771.4314   -772.99287     102002.7      46.7237      46.7237      46.7237 
  291000    106.16202   -7320.3842   -6761.2191    -631.2095     102002.7      46.7237      46.7237      46.7237 
  292000    108.61599   -7321.1207   -6749.0303   -680.70512     102002.7      46.7237      46.7237      46.7237 
  293000    109.07598    -7337.328   -6762.8149   -938.11244     102002.7      46.7237      46.7237      46.7237 
  294000    113.12544   -7336.7324   -6740.8904   -640.86392     102002.7      46.7237      46.7237      46.7237 
  295000    109.48018   -7326.0892   -6749.4471   -789.41721     102002.7      46.7237      46.7237      46.7237 
  296000    108.70293   -7342.9151   -6770.3668   -803.42157     102002.7      46.7237      46.7237      46.7237 
  297000    106.89013   -7342.8812   -6779.8811    -590.9558     102002.7      46.7237      46.7237      46.7237 
  298000    107.85113   -7339.1366   -6771.0749   -853.78771     102002.7      46.7237      46.7237      46.7237 
  299000    109.36139   -7326.2292   -6750.2128   -569.39755     102002.7      46.7237      46.7237      46.7237 
  300000    109.40001   -7330.3724   -6754.1526   -747.68738     102002.7      46.7237      46.7237      46.7237 
  301000    105.63724   -7307.8171   -6751.4162   -400.74504     102002.7      46.7237      46.7237      46.7237 
  302000    108.37217   -7336.3711    -6765.565   -574.84692     102002.7      46.7237      46.7237      46.7237 
  303000     110.3523   -7325.3643   -6744.1287   -879.73316     102002.7      46.7237      46.7237      46.7237 
  304000    108.29097   -7354.1059   -6783.7275   -719.68819     102002.7      46.7237      46.7237      46.7237 
  305000    112.00234   -7348.5171   -6758.5905   -664.59706     102002.7      46.7237      46.7237      46.7237 
  306000    109.73178   -7327.1844    -6749.217   -785.84327     102002.7      46.7237      46.7237      46.7237 
  307000    111.95562   -7310.0614    -6720.381   -709.27535     102002.7      46.7237      46.7237      46.7237 
  308000    109.06929   -7328.0311   -6753.5532   -505.76267     102002.7      46.7237      46.7237      46.7237 
  309000    110.09213   -7314.1824   -6734.3171    -803.4213     102002.7      46.7237      46.7237      46.7237 
  310000    111.10911   -7321.3614   -6736.1396   -589.17829     102002.7      46.7237      46.7237      46.7237 
  311000    110.85712   -7337.6726    -6753.778   -615.21957     102002.7      46.7237      46.7237      46.7237 
  312000    110.72722   -7313.0708   -6729.8604   -658.14581     102002.7      46.7237      46.7237      46.7237 
  313000    107.51513   -7323.1942   -6756.9022   -679.72342     102002.7      46.7237      46.7237      46.7237 
  314000    108.61619   -7335.4828   -6763.3914   -848.59133     102002.7      46.7237      46.7237      46.7237 
  315000    111.32843   -7323.5111   -6737.1341   -934.01222     102002.7      46.7237      46.7237      46.7237 
  316000    108.99019   -7347.1222   -6773.0609   -767.93171     102002.7      46.7237      46.7237      46.7237 
  317000    110.89732    -7333.961   -6749.8547   -1036.4159     102002.7      46.7237      46.7237      46.7237 
  318000    112.38674   -7348.3123    -6756.361   -513.67556     102002.7      46.7237      46.7237      46.7237 
  319000    106.92004   -7341.1726   -6778.0149    -869.2358     102002.7      46.7237      46.7237      46.7237 
  320000    111.05676   -7341.2002   -6756.2541    -759.1139     102002.7      46.7237      46.7237      46.7237 
  321000    111.64288   -7333.7619   -6745.7286   -861.49768     102002.7      46.7237      46.7237      46.7237 
  322000    112.08775   -7321.4262   -6731.0498   -924.82566     102002.7      46.7237      46.7237      46.7237 
  323000    108.61093   -7326.4984   -6754.4348   -905.62203     102002.7      46.7237      46.7237      46.7237 
  324000    112.11985   -7321.3828   -6730.8373   -682.65769     102002.7      46.7237      46.7237      46.7237 
  325000    110.29782   -7334.1033   -6753.1546    -730.4063     102002.7      46.7237      46.7237      46.7237 
  326000    111.80249   -7333.5817   -6744.7077   -578.10311     102002.7      46.7237      46.7237      46.7237 
  327000    111.21722    -7330.485   -6744.6938   -561.24823     102002.7      46.7237      46.7237      46.7237 
  328000    109.05951   -7321.7574   -6747.3309   -457.52685     102002.7      46.7237      46.7237      46.7237 
  329000    115.13676   -7330.7795   -6724.3437    -562.4289     102002.7      46.7237      46.7237      46.7237 
  330000    108.05773   -7297.7726   -6728.6227   -552.48567     102002.7      46.7237      46.7237      46.7237 
  331000    109.63843   -7317.6492   -6740.1736    -696.5071     102002.7      46.7237      46.7237      46.7237 
  332000    108.61867   -7325.3915    -6753.287   -790.43609     102002.7      46.7237      46.7237      46.7237 
  333000    113.38115   -7341.1839    -6743.995   -685.94728     102002.7      46.7237      46.7237      46.7237 
  334000    107.86724   -7334.5314   -6766.3848   -575.32733     102002.7      46.7237      46.7237      46.7237 
  335000    114.03297   -7337.5587   -6736.9366   -796.97543     102002.7      46.7237      46.7237      46.7237 
  336000    108.77341    -7336.202   -6763.2825   -198.14314     102002.7      46.7237      46.7237      46.7237 
  337000    113.46929   -7306.8035   -6709.1504   -467.32657     102002.7      46.7237      46.7237      46.7237 
  338000    110.55813   -7328.4165   -6746.0967   -545.52496     102002.7      46.7237      46.7237      46.7237 
  339000    111.23959   -7335.0328   -6749.1238   -535.98141     102002.7      46.7237      46.7237      46.7237 
  340000    108.89316   -7350.6962    -6777.146   -581.63181     102002.7      46.7237      46.7237      46.7237 
  341000    107.69288   -7340.5562   -6773.3279    -642.6484     102002.7      46.7237      46.7237      46.7237 
  342000    110.45043   -7329.1677   -6747.4152   -615.29399     102002.7      46.7237      46.7237      46.7237 
  343000    114.18871    -7316.847   -6715.4046   -749.25783     102002.7      46.7237      46.7237      46.7237 
  344000    108.89117   -7350.7202   -6777.1804   -680.89919     102002.7      46.7237      46.7237      46.7237 
  345000    110.64276   -7334.7468   -6751.9813   -495.11484     102002.7      46.7237      46.7237      46.7237 
  346000     109.5769   -7338.3252   -6761.1736   -667.66113     102002.7      46.7237      46.7237      46.7237 
  347000    111.36444   -7312.2862   -6725.7195   -665.59707     102002.7      46.7237      46.7237      46.7237 
  348000    108.47595   -7317.5234   -6746.1707   -590.41672     102002.7      46.7237      46.7237      46.7237 
  349000    109.49552   -7337.9442   -6761.2213   -678.16108     102002.7      46.7237      46.7237      46.7237 
  350000    110.03841   -7330.9094   -6751.3271   -577.55458     102002.7      46.7237      46.7237      46.7237 
  351000    107.58066   -7311.9165   -6745.2794   -603.53579     102002.7      46.7237      46.7237      46.7237 
  352000    110.95717    -7358.583   -6774.1614   -539.73737     102002.7      46.7237      46.7237      46.7237 
  353000    107.50433   -7302.2786   -6736.0435   -630.68069     102002.7      46.7237      46.7237      46.7237 
  354000    108.79216   -7326.2915   -6753.2732   -720.17266     102002.7      46.7237      46.7237      46.7237 
  355000     108.9836   -7323.7094   -6749.6829   -740.82907     102002.7      46.7237      46.7237      46.7237 
  356000    111.80569   -7310.6252   -6721.7344   -840.09541     102002.7      46.7237      46.7237      46.7237 
  357000    110.57665   -7337.7385   -6755.3212   -533.33976     102002.7      46.7237      46.7237      46.7237 
  358000    111.89684   -7314.2995   -6724.9286    -588.1691     102002.7      46.7237      46.7237      46.7237 
  359000     112.5964   -7324.8268   -6731.7713   -694.63927     102002.7      46.7237      46.7237      46.7237 
  360000    109.29579   -7351.1737   -6775.5027   -670.71263     102002.7      46.7237      46.7237      46.7237 
  361000    109.11323   -7339.2373   -6764.5279   -709.66452     102002.7      46.7237      46.7237      46.7237 
  362000     112.2118    -7326.474   -6735.4442   -588.60118     102002.7      46.7237      46.7237      46.7237 
  363000    107.57017   -7333.5312   -6766.9493   -718.57282     102002.7      46.7237      46.7237      46.7237 
  364000    108.15851   -7348.8212   -6779.1404   -770.80239     102002.7      46.7237      46.7237      46.7237 
  365000     110.9028   -7332.6752     -6748.54   -449.79188     102002.7      46.7237      46.7237      46.7237 
  366000    109.20607   -7338.9886   -6763.7902   -861.21129     102002.7      46.7237      46.7237      46.7237 
  367000    111.95835   -7321.3216   -6731.6267   -287.73131     102002.7      46.7237      46.7237      46.7237 
  368000    109.73919   -7355.6692   -6777.6628   -846.99875     102002.7      46.7237      46.7237      46.7237 
  369000    107.64264    -7317.216   -6750.2524   -830.23391     102002.7      46.7237      46.7237      46.7237 
  370000    111.37477   -7328.5583   -6741.9372   -800.45195     102002.7      46.7237      46.7237      46.7237 
  371000    111.03745   -7335.9771   -6751.1327   -770.51962     102002.7      46.7237      46.7237      46.7237 
  372000     113.0763   -7353.7012   -6758.1181   -554.45364     102002.7      46.7237      46.7237      46.7237 
  373000    111.09645   -7321.1291   -6735.9739   -666.57788     102002.7      46.7237      46.7237      46.7237 
  374000    109.94822    -7342.008   -6762.9007   -697.08904     102002.7      46.7237      46.7237      46.7237 
  375000    113.35581   -7307.3253   -6710.2699   -765.70409     102002.7      46.7237      46.7237      46.7237 
  376000    110.65114   -7355.4152   -6772.6055   -540.40867     102002.7      46.7237      46.7237      46.7237 
  377000    110.22016   -7344.3556   -6763.8159   -856.62153     102002.7      46.7237      46.7237      46.7237 
  378000    108.04158   -7314.8628    -6745.798   -721.01595     102002.7      46.7237      46.7237      46.7237 
  379000    112.07518   -7336.8711   -6746.5609    -836.6577     102002.7      46.7237      46.7237      46.7237 
  380000    108.16247    -7327.537   -6757.8354   -596.56789     102002.7      46.7237      46.7237      46.7237 
  381000    107.99441    -7310.532   -6741.7156   -848.79187     102002.7      46.7237      46.7237      46.7237 
  382000    112.03272   -7322.1741   -6732.0875   -952.35688     102002.7      46.7237      46.7237      46.7237 
  383000    109.74311   -7324.2555   -6746.2285   -572.64679     102002.7      46.7237      46.7237      46.7237 
  384000    109.17321   -7346.6499   -6771.6246   -956.15399     102002.7      46.7237      46.7237      46.7237 
  385000    112.13432   -7319.3805   -6728.7588   -731.41502     102002.7      46.7237      46.7237      46.7237 
  386000    110.32269   -7333.8346   -6752.7549   -956.34695     102002.7      46.7237      46.7237      46.7237 
  387000    108.67174   -7323.0643   -6750.6803     -464.064     102002.7      46.7237      46.7237      46.7237 
  388000    107.72372   -7340.0668   -6772.6761   -768.08054     102002.7      46.7237      46.7237      46.7237 
  389000    110.37368   -7317.3358   -6735.9875   -634.09698     102002.7      46.7237      46.7237      46.7237 
  390000    108.37825   -7329.6343   -6758.7962   -985.29996     102002.7      46.7237      46.7237      46.7237 
  391000    109.64964   -7312.7526    -6735.218   -835.49291     102002.7      46.7237      46.7237      46.7237 
  392000    108.92879   -7331.4719    -6757.734   -659.85941     102002.7      46.7237      46.7237      46.7237 
  393000    109.34395   -7331.2921   -6755.3675   -696.21965     102002.7      46.7237      46.7237      46.7237 
  394000    109.86362   -7331.3943   -6752.7326   -758.53462     102002.7      46.7237      46.7237      46.7237 
  395000    108.36753   -7316.5293   -6745.7476   -679.47283     102002.7      46.7237      46.7237      46.7237 
  396000    105.61281   -7340.0837   -6783.8114   -394.41992     102002.7      46.7237      46.7237      46.7237 
  397000     108.8934   -7333.0755    -6759.524   -807.53429     102002.7      46.7237      46.7237      46.7237 
  398000    114.63782   -7335.6469    -6731.839   -852.26615     102002.7      46.7237      46.7237      46.7237 
  399000    111.21129   -7321.9833   -6736.2233    -829.2684     102002.7      46.7237      46.7237      46.7237 
  400000    109.95292   -7340.7827   -6761.6506   -683.53447     102002.7      46.7237      46.7237      46.7237 
  401000    112.17034    -7328.936   -6738.1246   -892.82352     102002.7      46.7237      46.7237      46.7237 
  402000     110.0675   -7344.2607   -6764.5252    -841.8642     102002.7      46.7237      46.7237      46.7237 
  403000    109.58459   -7334.1915   -6756.9995   -689.37168     102002.7      46.7237      46.7237      46.7237 
  404000    111.26132    -7325.433   -6739.4095   -654.99437     102002.7      46.7237      46.7237      46.7237 
  405000    111.13652   -7346.8438   -6761.4776   -769.07062     102002.7      46.7237      46.7237      46.7237 
  406000    109.30898   -7349.0008   -6773.2605   -606.66057     102002.7      46.7237      46.7237      46.7237 
  407000    112.95784   -7349.4731   -6754.5138   -897.66752     102002.7      46.7237      46.7237      46.7237 
  408000    110.03966   -7318.7225   -6739.1336   -936.98354     102002.7      46.7237      46.7237      46.7237 
  409000    109.93849   -7339.2693   -6760.2132   -714.08175     102002.7      46.7237      46.7237      46.7237 
  410000    111.03109   -7323.5828   -6738.7719   -982.03208     102002.7      46.7237      46.7237      46.7237 
  411000    111.15358   -7303.9964   -6718.5403   -689.61643     102002.7      46.7237      46.7237      46.7237 
  412000    109.99968   -7354.1327   -6774.7543   -929.88181     102002.7      46.7237      46.7237      46.7237 
  413000    111.55063   -7332.4304    -6744.883   -694.29418     102002.7      46.7237      46.7237      46.7237 
  414000    112.84578   -7336.2572   -6741.8881   -889.17633     102002.7      46.7237      46.7237      46.7237 
  415000    107.11457   -7330.2829   -6766.1007   -789.67585     102002.7      46.7237      46.7237      46.7237 
  416000    110.87602   -7333.4175   -6749.4234   -1059.3743     102002.7      46.7237      46.7237      46.7237 
  417000    113.73629   -7325.2839   -6726.2245   -695.09681     102002.7      46.7237      46.7237      46.7237 
  418000    108.85327   -7338.3231    -6764.983   -533.10896     102002.7      46.7237      46.7237      46.7237 
  419000    110.17449   -7344.0428   -6763.7437   -915.59905     102002.7      46.7237      46.7237      46.7237 
  420000    110.14873    -7321.073   -6740.9096    -540.8911     102002.7      46.7237      46.7237      46.7237 
  421000    108.76418   -7328.9001   -6756.0292    -925.5745     102002.7      46.7237      46.7237      46.7237 
  422000    107.66404   -7331.5201   -6764.4438   -724.49197     102002.7      46.7237      46.7237      46.7237 
  423000    110.15042   -7332.1278   -6751.9554   -616.05744     102002.7      46.7237      46.7237      46.7237 
  424000    105.65728   -7349.8425   -6793.3359   -651.66898     102002.7      46.7237      46.7237      46.7237 
  425000    109.24782   -7318.8698   -6743.4515   -919.02272     102002.7      46.7237      46.7237      46.7237 
  426000    106.07609   -7335.0756   -6776.3632   -608.22145     102002.7      46.7237      46.7237      46.7237 
  427000    110.56403   -7334.7164   -6752.3656   -916.43704     102002.7      46.7237      46.7237      46.7237 
  428000    115.99033    -7340.931   -6729.9994   -532.55693     102002.7      46.7237      46.7237      46.7237 
  429000    114.02885   -7342.0992   -6741.4988   -894.06309     102002.7      46.7237      46.7237      46.7237 
  430000    108.50576   -7332.4017   -6760.8919   -959.99014     102002.7      46.7237      46.7237      46.7237 
  431000    110.05531   -7333.9191   -6754.2477   -728.45028     102002.7      46.7237      46.7237      46.7237 
  432000    110.89427   -7315.4588   -6731.3685   -673.46614     102002.7      46.7237      46.7237      46.7237 
  433000    107.27656   -7308.8725   -6743.8371    -838.4283     102002.7      46.7237      46.7237      46.7237 
  434000    113.22672   -7312.9914    -6716.616   -853.01445     102002.7      46.7237      46.7237      46.7237 
  435000    112.76964   -7335.8624   -6741.8944   -576.17713     102002.7      46.7237      46.7237      46.7237 
  436000    112.50025   -7309.7168   -6717.1677   -670.32236     102002.7      46.7237      46.7237      46.7237 
  437000    109.68769   -7338.3919   -6760.6568    -800.9363     102002.7      46.7237      46.7237      46.7237 
  438000    106.75628   -7332.5428   -6770.2477   -670.84813     102002.7      46.7237      46.7237      46.7237 
  439000    113.44855   -7332.4737   -6734.9298   -728.12734     102002.7      46.7237      46.7237      46.7237 
  440000    112.18119   -7350.2851   -6759.4165   -768.52651     102002.7      46.7237      46.7237      46.7237 
  441000    112.71309   -7310.3663   -6716.6962   -662.93572     102002.7      46.7237      46.7237      46.7237 
  442000    112.39406   -7321.4596   -6729.4698   -1077.0605     102002.7      46.7237      46.7237      46.7237 
  443000    108.60367   -7339.1867   -6767.1613   -712.53661     102002.7      46.7237      46.7237      46.7237 
  444000    110.21567   -7352.1493   -6771.6333   -632.18482     102002.7      46.7237      46.7237      46.7237 
  445000    112.97447   -7334.3256   -6739.2787   -836.23993     102002.7      46.7237      46.7237      46.7237 
  446000    108.48064   -7335.9614    -6764.584   -725.10825     102002.7      46.7237      46.7237      46.7237 
  447000    109.94316   -7311.4005   -6732.3199   -856.04673     102002.7      46.7237      46.7237      46.7237 
  448000    106.61319   -7343.1184    -6781.577    -618.2782     102002.7      46.7237      46.7237      46.7237 
  449000    107.83731   -7331.7584   -6763.7694   -1037.5114     102002.7      46.7237      46.7237      46.7237 
  450000    111.55001   -7343.3127   -6755.7686   -631.69062     102002.7      46.7237      46.7237      46.7237 
  451000    111.60088   -7327.3878   -6739.5757   -617.45371     102002.7      46.7237      46.7237      46.7237 
  452000    111.87858   -7337.6527    -6748.378   -598.01973     102002.7      46.7237      46.7237      46.7237 
  453000    110.93516   -7309.7537    -6725.448   -619.15394     102002.7      46.7237      46.7237      46.7237 
  454000    108.24213   -7326.5926   -6756.4714   -747.01863     102002.7      46.7237      46.7237      46.7237 
  455000    109.99281   -7308.9444   -6729.6022   -714.44885     102002.7      46.7237      46.7237      46.7237 
  456000    112.90123   -7346.0202   -6751.3591   -701.66037     102002.7      46.7237      46.7237      46.7237 
  457000    110.96069   -7321.1479   -6736.7078   -809.77033     102002.7      46.7237      46.7237      46.7237 
  458000    113.10978   -7334.6987   -6738.9392   -920.54231     102002.7      46.7237      46.7237      46.7237 
  459000      110.425   -7338.4208   -6756.8022    -892.1171     102002.7      46.7237      46.7237      46.7237 
  460000    112.13385   -7325.3833   -6734.7641   -448.08612     102002.7      46.7237      46.7237      46.7237 
  461000    105.74881   -7321.0176    -6764.029   -862.66372     102002.7      46.7237      46.7237      46.7237 
  462000    111.93443   -7313.4553   -6723.8865   -421.67394     102002.7      46.7237      46.7237      46.7237 
  463000    109.39631   -7343.4937   -6767.2934   -848.49603     102002.7      46.7237      46.7237      46.7237 
  464000    110.52947    -7324.954   -6742.7852   -752.23865     102002.7      46.7237      46.7237      46.7237 
  465000    115.31382   -7344.9619   -6737.5935   -747.98588     102002.7      46.7237      46.7237      46.7237 
  466000    111.65804   -7358.6194   -6770.5063   -704.38325     102002.7      46.7237      46.7237      46.7237 
  467000    111.17756   -7343.5824        -6758   -716.44516     102002.7      46.7237      46.7237      46.7237 
  468000    107.62146   -7339.2428   -6772.3907   -726.94595     102002.7      46.7237      46.7237      46.7237 
  469000    112.87568   -7325.3029   -6730.7763    -968.7827     102002.7      46.7237      46.7237      46.7237 
  470000    110.32357   -7333.5524    -6752.468   -956.49894     102002.7      46.7237      46.7237      46.7237 
  471000    107.30846   -7318.5076   -6753.3041   -777.79065     102002.7      46.7237      46.7237      46.7237 
  472000    109.82303   -7325.1566   -6746.7086   -643.04449     102002.7      46.7237      46.7237      46.7237 
  473000    111.13957   -7326.2061   -6740.8239   -846.60628     102002.7      46.7237      46.7237      46.7237 
  474000    109.56526    -7341.537   -6764.4468   -795.96382     102002.7      46.7237      46.7237      46.7237 
  475000    107.64776   -7343.4744   -6776.4839   -647.96842     102002.7      46.7237      46.7237      46.7237 
  476000    108.96971   -7316.3705   -6742.4171   -604.24916     102002.7      46.7237      46.7237      46.7237 
  477000    113.67195    -7325.732   -6727.0114   -722.34554     102002.7      46.7237      46.7237      46.7237 
  478000    111.59786   -7322.0341    -6734.238   -509.14674     102002.7      46.7237      46.7237      46.7237 
  479000    109.02639   -7346.3381   -6772.0861   -434.64009     102002.7      46.7237      46.7237      46.7237 
  480000     108.9542   -7315.3405   -6741.4688   -534.31169     102002.7      46.7237      46.7237      46.7237 
  481000    106.15673   -7345.5534   -6786.4162   -478.63077     102002.7      46.7237      46.7237      46.7237 
  482000    107.74486   -7316.2752   -6748.7732   -678.27309     102002.7      46.7237      46.7237      46.7237 
  483000    108.75224     -7337.65   -6764.8419    -608.8074     102002.7      46.7237      46.7237      46.7237 
  484000    110.58954   -7317.0672    -6734.582    -526.3336     102002.7      46.7237      46.7237      46.7237 
  485000    111.36366   -7335.0854   -6748.5228   -775.73212     102002.7      46.7237      46.7237      46.7237 
  486000    113.24327   -7321.8664   -6725.4037   -817.04181     102002.7      46.7237      46.7237      46.7237 
  487000    110.29966   -7319.5103   -6738.5519   -768.78299     102002.7      46.7237      46.7237      46.7237 
  488000    109.64161   -7343.5103   -6766.0179   -728.07883     102002.7      46.7237      46.7237      46.7237 
  489000    111.79757   -7321.1293   -6732.2813   -813.44423     102002.7      46.7237      46.7237      46.7237 
  490000    108.45989   -7324.6894   -6753.4213   -734.14226     102002.7      46.7237      46.7237      46.7237 
  491000    109.43733   -7319.4332   -6743.0168   -529.11813     102002.7      46.7237      46.7237      46.7237 
  492000    112.28966   -7301.7108   -6710.2709   -722.71401     102002.7      46.7237      46.7237      46.7237 
  493000    108.63378   -7330.1678   -6757.9837   -703.71333     102002.7      46.7237      46.7237      46.7237 
  494000    113.67058    -7305.178   -6706.4647   -689.73905     102002.7      46.7237      46.7237      46.7237 
  495000    109.51369   -7361.8138   -6784.9952   -772.38498     102002.7      46.7237      46.7237      46.7237 
  496000    113.64515   -7334.0334    -6735.454   -827.75315     102002.7      46.7237      46.7237      46.7237 
  497000    107.26255   -7339.7839   -6774.8223   -692.19445     102002.7      46.7237      46.7237      46.7237 
  498000    112.41201   -7343.1708   -6751.0865    -605.5702     102002.7      46.7237      46.7237      46.7237 
  499000    103.80977   -7326.4593   -6779.6837   -754.71075     102002.7      46.7237      46.7237      46.7237 
  500000    111.17103   -7346.4172   -6760.8692   -517.80654     102002.7      46.7237      46.7237      46.7237 
  500504    109.56627   -7329.0854   -6751.9899   -681.74163     102002.7      46.7237      46.7237      46.7237 
Loop time of 567.245 on 24 procs for 500000 steps with 1768 atoms

Performance: 76.158 ns/day, 0.315 hours/ns, 881.454 timesteps/s
99.9% CPU use with 24 MPI tasks x no OpenMP threads

MPI task timing breakdown:
Section |  min time  |  avg time  |  max time  |%varavg| %total
---------------------------------------------------------------
Pair    | 191.37     | 279.81     | 365.1      | 281.5 | 49.33
Bond    | 68.491     | 78.816     | 86.883     |  51.2 | 13.89
Neigh   | 2.0827     | 2.1103     | 2.1252     |   1.0 |  0.37
Comm    | 110.43     | 199.36     | 282.67     | 333.9 | 35.15
Output  | 0.33972    | 0.34003    | 0.34352    |   0.1 |  0.06
Modify  | 3.4825     | 3.8025     | 4.0904     |   9.4 |  0.67
Other   |            | 3.007      |            |       |  0.53

Nlocal:    73.6667 ave 89 max 57 min
Histogram: 3 1 1 1 2 7 4 2 0 3
Nghost:    2011.25 ave 2165 max 1921 min
Histogram: 11 5 0 0 0 0 0 0 0 8
Neighs:    7641.88 ave 11217 max 4244 min
Histogram: 2 2 2 4 4 1 1 5 1 2

Total # of neighbors = 183405
Ave neighs/atom = 103.736
Ave special neighs/atom = 6.51584
Neighbor list builds = 3804
Dangerous builds = 0
Neighbor list info ...
  update every 1 steps, delay 10 steps, check yes
  max neighbors/atom: 2000, page size: 100000
  master list distance cutoff = 16
  ghost atom cutoff = 16
  binsize = 8, bins = 6 6 6
  3 neighbor lists, perpetual/occasional/extra = 3 0 0
  (1) pair buck6d/coul/gauss/dsf, perpetual, skip from (3)
      attributes: half, newton on
      pair build: skip
      stencil: none
      bin: none
  (2) pair lj/cut, perpetual, skip from (3)
      attributes: half, newton on
      pair build: skip
      stencil: none
      bin: none
  (3) neighbor class addition, perpetual
      attributes: half, newton on
      pair build: half/bin/newton
      stencil: half/bin/3d/newton
      bin: standard
Setting up Verlet run ...
  Unit style    : real
  Current step  : 500504
  Time step     : 1
WARNING: Inconsistent image flags (../domain.cpp:786)
Per MPI rank memory allocation (min/avg/max) = 24.11 | 24.46 | 24.57 Mbytes
Step Time TotEng KinEng PotEng E_mol E_pair Temp Pxx Pyy Pzz Pxy Pxz Pyz Cella Cellb Cellc CellAlpha CellBeta CellGamma Volume Press 
  500504       500000   -6751.9899    577.09555   -7329.0854    4299.4984   -11628.584    109.56627   -940.96263   -666.36501   -437.89724    52.308392   -78.091127    178.24228      46.7237      46.7237      46.7237           90           90           90     102002.7   -681.74163 
  501000       500496   -6741.0273    590.20713   -7331.2344    4312.1355    -11643.37    112.05561   -1205.7384    -777.0854   -813.62481    281.18568    99.959434    -5.508715      46.7237      46.7237      46.7237           90           90           90     102002.7   -932.14952 
  502000       501496   -6739.1924    581.13826   -7320.3306    4297.9722   -11618.303    110.33381   -850.04271   -800.06895   -958.71543   -39.439117   -62.790739    99.132628      46.7237      46.7237      46.7237           90           90           90     102002.7   -869.60903 
  503000       502496   -6770.4639    566.11915    -7336.583    4294.0924   -11630.675    107.48231   -418.70298   -805.76207   -559.26103   -27.337348    42.665644    107.35398      46.7237      46.7237      46.7237           90           90           90     102002.7   -594.57536 
  504000       503496   -6779.2085    571.72838   -7350.9369    4269.0145   -11619.951    108.54727   -822.39143   -650.79835   -885.65902    77.013566    167.54247   -230.11151      46.7237      46.7237      46.7237           90           90           90     102002.7   -786.28293 
  505000       504496   -6742.0688    576.53788   -7318.6067    4293.7082   -11612.315    109.46039   -461.97782   -487.88094   -462.44964    20.487986   -66.424509    -49.60415      46.7237      46.7237      46.7237           90           90           90     102002.7   -470.76947 
  506000       505496   -6751.8837    575.02548   -7326.9092    4309.7388   -11636.648    109.17325   -906.35414   -429.98244   -551.41224     116.5557   -28.692469    61.497058      46.7237      46.7237      46.7237           90           90           90     102002.7    -629.2496 
  507000       506496   -6760.0827    573.17161   -7333.2543    4283.1442   -11616.398    108.82128   -128.52597   -134.82526   -326.22992   -68.984188    -80.40232   -141.96938      46.7237      46.7237      46.7237           90           90           90     102002.7   -196.52705 
  508000       507496   -6752.8263    584.89303   -7337.7193     4289.567   -11627.286    111.04668   -515.03952   -478.12389   -761.83576   -173.63247   -227.90757   -116.40265      46.7237      46.7237      46.7237           90           90           90     102002.7   -584.99972 
  509000       508496   -6753.8396    566.17993   -7320.0195    4306.3773   -11626.397    107.49385   -1089.8308   -383.94182   -698.41533   -102.90651   -57.479908    130.76234      46.7237      46.7237      46.7237           90           90           90     102002.7   -724.06266 
  510000       509496   -6773.6758     573.9283   -7347.6041    4289.7998   -11637.404    108.96494   -488.62776   -950.06671    -725.1964   -46.860882    -107.9595    -141.7673      46.7237      46.7237      46.7237           90           90           90     102002.7   -721.29696 
  511000       510496   -6738.9675    575.45262   -7314.4202    4311.9124   -11626.333    109.25434    -958.3674   -766.84307   -332.46389    183.47766    29.040323   -228.62368      46.7237      46.7237      46.7237           90           90           90     102002.7   -685.89146 
  512000       511496   -6753.1386    578.67657   -7331.8151    4288.0052    -11619.82    109.86644   -610.73658   -727.31372   -883.78808   -120.83153   -65.563772    251.25701      46.7237      46.7237      46.7237           90           90           90     102002.7    -740.6128 
  513000       512496   -6759.6354    573.12723   -7332.7626    4305.8554   -11638.618    108.81285   -947.54288   -533.63503   -699.90165   -17.484032     162.0065   -100.49805      46.7237      46.7237      46.7237           90           90           90     102002.7   -727.02652 
  514000       513496   -6744.4514    590.26673   -7334.7182    4289.6503   -11624.368    112.06692   -522.18085   -696.25797   -679.62477   -98.685477   -85.181405    43.017355      46.7237      46.7237      46.7237           90           90           90     102002.7   -632.68787 
  515000       514496   -6771.5198    569.92237   -7341.4422       4295.6   -11637.042    108.20438    -142.8061   -971.95369   -1149.6315    45.069152   -71.157716   -388.76599      46.7237      46.7237      46.7237           90           90           90     102002.7   -754.79711 
  516000       515496   -6734.6077    578.16879   -7312.7765    4301.1899   -11613.966    109.77003    -481.2194   -306.35432   -627.82201   -225.60553    86.163538   -87.665884      46.7237      46.7237      46.7237           90           90           90     102002.7   -471.79858 
  517000       516496   -6773.4299    560.19571   -7333.6256    4322.3977   -11656.023     106.3577   -496.26848   -1041.9999   -901.42692   -216.30457    5.6806409   -8.6089407      46.7237      46.7237      46.7237           90           90           90     102002.7   -813.23176 
  518000       517496   -6771.3822    564.48869   -7335.8709    4292.7442   -11628.615    107.17275   -838.05353   -958.90623    -715.9488    258.23698   -107.77024   -83.480997      46.7237      46.7237      46.7237           90           90           90     102002.7   -837.63619 
  519000       518496   -6741.6622    573.75923   -7315.4214    4326.0821   -11641.503    108.93284   -376.81215   -560.08726   -653.54767    -8.106155    48.343058    63.339163      46.7237      46.7237      46.7237           90           90           90     102002.7   -530.14903 
  520000       519496   -6774.1947    555.21373   -7329.4085    4301.9882   -11631.397    105.41183   -444.84115   -543.46872   -422.46001    171.97451   -29.169195    86.523059      46.7237      46.7237      46.7237           90           90           90     102002.7   -470.25663 
  521000       520496   -6738.9401    583.11666   -7322.0568    4304.4784   -11626.535    110.70943   -671.67163   -297.40777   -796.39234    254.39709    73.354099    38.471342      46.7237      46.7237      46.7237           90           90           90     102002.7   -588.49058 
  522000       521496   -6729.2692    576.40495   -7305.6742    4324.7266   -11630.401    109.43515   -777.06556    -680.4128   -658.38614   -10.193569   -17.078633   -84.080129      46.7237      46.7237      46.7237           90           90           90     102002.7   -705.28817 
  523000       522496   -6769.8501    584.97267   -7354.8228    4276.1519   -11630.975     111.0618   -717.91826   -487.01558   -291.77331     119.9867   -58.446723   -42.843963      46.7237      46.7237      46.7237           90           90           90     102002.7   -498.90239 
  524000       523496    -6755.949    587.58478   -7343.5338    4280.3588   -11623.893    111.55773   -586.66715   -345.98071   -738.39804   -163.60409    187.14747    212.02001      46.7237      46.7237      46.7237           90           90           90     102002.7    -557.0153 
  525000       524496   -6732.7258    590.21693   -7322.9427    4312.0862   -11635.029    112.05747   -1172.2152   -441.09748   -769.26053    105.90124    209.76483    125.17812      46.7237      46.7237      46.7237           90           90           90     102002.7   -794.19106 
  526000       525496   -6753.7797    584.07029     -7337.85    4278.2687   -11616.119    110.89048   -608.13473   -495.37426    -242.9206     289.8347   -199.02942    20.581747      46.7237      46.7237      46.7237           90           90           90     102002.7   -448.80986 
  527000       526496   -6757.6814    573.46522   -7331.1466    4291.2404   -11622.387    108.87702   -768.80141   -592.81725   -625.39384    -200.5256    186.52951   -229.51644      46.7237      46.7237      46.7237           90           90           90     102002.7    -662.3375 
  528000       527496   -6734.2618    576.79737   -7311.0592    4304.6372   -11615.696    109.50966    -943.2102   -323.15213   -262.55541   -97.182864    97.424201    208.63193      46.7237      46.7237      46.7237           90           90           90     102002.7   -509.63925 
  529000       528496   -6763.0145    588.61762   -7351.6321    4279.2844   -11630.916    111.75383   -644.69845   -776.39492   -1121.9186   -87.772058    25.773082    163.46297      46.7237      46.7237      46.7237           90           90           90     102002.7   -847.67065 
  530000       529496   -6728.4225    583.27178   -7311.6942    4328.0919   -11639.786    110.73888   -984.49294   -704.75592   -723.82431    92.807998    109.52135    178.78625      46.7237      46.7237      46.7237           90           90           90     102002.7   -804.35772 
  531000       530496   -6761.2252    568.90522   -7330.1304    4284.8388   -11614.969    108.01127   -766.17665   -790.87009   -513.18359    80.774185    187.88217    322.24578      46.7237      46.7237      46.7237           90           90           90     102002.7   -690.07678 
  532000       531496   -6765.1308     569.1935   -7334.3243    4307.4937   -11641.818      108.066   -966.09061   -710.88663   -735.68578   -3.6166357   -21.676562    175.23212      46.7237      46.7237      46.7237           90           90           90     102002.7   -804.22101 
  533000       532496   -6749.6109    592.51274   -7342.1237    4291.2017   -11633.325    112.49335    -1164.185   -276.89088   -468.57478   -304.04299    38.297039   -80.711915      46.7237      46.7237      46.7237           90           90           90     102002.7   -636.55021 
  534000       533496   -6752.8693    575.62575    -7328.495    4297.1197   -11625.615    109.28722   -495.97226   -353.19951   -466.22508    103.19303     153.1969   -68.798586      46.7237      46.7237      46.7237           90           90           90     102002.7   -438.46562 
  535000       534496   -6760.8647    573.92025   -7334.7849    4292.4179   -11627.203    108.96341   -446.59465   -736.14251   -712.11596   -22.310302    215.30982   -189.52482      46.7237      46.7237      46.7237           90           90           90     102002.7   -631.61771 
  536000       535496   -6729.9342    595.37279    -7325.307    4292.6874   -11617.994    113.03635   -378.47283   -697.46038   -818.04678   -100.52722    46.998886   -214.76174      46.7237      46.7237      46.7237           90           90           90     102002.7   -631.32666 
  537000       536496   -6754.6145    593.68141   -7348.2959    4275.2418   -11623.538    112.71523   -626.93743    -615.6841    -622.3993   -278.86388     38.71725    89.428405      46.7237      46.7237      46.7237           90           90           90     102002.7   -621.67361 
  538000       537496   -6730.6972    604.96809   -7335.6653    4282.9945    -11618.66     114.8581   -800.35554   -301.59845   -448.64297   -50.126104    74.826287    -12.86837      46.7237      46.7237      46.7237           90           90           90     102002.7   -516.86565 
  539000       538496   -6749.9687    576.16214   -7326.1308    4298.5226   -11624.653    109.38905    -916.0253   -738.29379   -1323.7713    97.401293    232.22228   -211.77099      46.7237      46.7237      46.7237           90           90           90     102002.7   -992.69681 
  540000       539496   -6709.1914    596.65916   -7305.8506    4312.6712   -11618.522    113.28058   -664.70083   -640.63538   -175.09797    72.344471    89.652348    59.730437      46.7237      46.7237      46.7237           90           90           90     102002.7   -493.47806 
  541000       540496   -6758.3831     575.8946   -7334.2777    4266.9733   -11601.251    109.33826   -477.38639   -536.87174   -233.34356     18.62317    272.06837    57.130624      46.7237      46.7237      46.7237           90           90           90     102002.7   -415.86723 
  542000       541496   -6737.9384    588.78271   -7326.7211    4290.5552   -11617.276    111.78517   -246.39819   -691.07543   -743.96403   -214.18029   -18.222184    112.28273      46.7237      46.7237      46.7237           90           90           90     102002.7   -560.47922 
  543000       542496   -6737.8448    598.52816    -7336.373    4286.9562   -11623.329    113.63542    -532.2557   -607.91776   -420.88389   -46.652469   -116.85569   -56.635811      46.7237      46.7237      46.7237           90           90           90     102002.7   -520.35245 
  544000       543496   -6775.2551    559.38512   -7334.6402    4287.6596     -11622.3     106.2038   -571.59069   -692.87942   -456.38384   -33.994051    18.980993    55.562043      46.7237      46.7237      46.7237           90           90           90     102002.7   -573.61798 
  545000       544496   -6755.3131    583.62291    -7338.936    4289.2313   -11628.167    110.80554   -858.82633   -934.93902   -845.79419    30.908979    -386.4042   -40.062132      46.7237      46.7237      46.7237           90           90           90     102002.7   -879.85318 
  546000       545496   -6741.2772    593.30114   -7334.5783    4285.7349   -11620.313    112.64303   -962.72592   -493.33057   -637.70225    86.378207   -87.480497    72.297698      46.7237      46.7237      46.7237           90           90           90     102002.7   -697.91958 
  547000       546496   -6753.3024    583.94578   -7337.2481    4291.7726   -11629.021    110.86684   -546.75999    -926.6072   -597.14695   -73.931638    33.954611   -85.253999      46.7237      46.7237      46.7237           90           90           90     102002.7   -690.17138 
  548000       547496   -6802.1436    573.42684   -7375.5705     4258.777   -11634.347    108.86974     -1077.38   -591.55266   -816.73513   -60.909542    67.802196    313.60413      46.7237      46.7237      46.7237           90           90           90     102002.7   -828.55594 
  549000       548496   -6732.2126    575.01043   -7307.2231    4338.4115   -11645.635    109.17039   -598.68613   -1038.2852   -918.72629   -13.532357    51.170007    156.93206      46.7237      46.7237      46.7237           90           90           90     102002.7   -851.89922 
  550000       549496   -6730.1844    584.00445   -7314.1888    4321.9724   -11636.161    110.87798   -1194.7302   -453.61463   -543.77234     206.6193    91.874754     65.98969      46.7237      46.7237      46.7237           90           90           90     102002.7   -730.70572 
  551000       550496   -6776.9247    571.21017   -7348.1349    4266.2527   -11614.388    108.44888   -953.32187     -687.707   -678.17143    53.425287    34.128776    276.71525      46.7237      46.7237      46.7237           90           90           90     102002.7   -773.06677 
  552000       551496   -6746.1726    579.86754   -7326.0401    4328.1382   -11654.178    110.09255   -824.49063   -1297.6578   -452.63257   -70.265082   -77.390494    19.942956      46.7237      46.7237      46.7237           90           90           90     102002.7   -858.26032 
  553000       552496   -6756.2843    565.92928   -7322.2135     4319.805   -11642.019    107.44626   -916.26447   -857.33205   -956.72028    325.29933   -143.08583    16.139263      46.7237      46.7237      46.7237           90           90           90     102002.7    -910.1056 
  554000       553496   -6763.6106     574.8027   -7338.4133    4285.0688   -11623.482    109.13095   -655.13044   -677.95721   -666.57294     7.126661    55.787722    99.629617      46.7237      46.7237      46.7237           90           90           90     102002.7   -666.55353 
  555000       554496   -6732.1986    604.28044   -7336.4791    4291.7202   -11628.199    114.72754   -656.97776   -323.74485   -454.80458    58.086203    333.59311   -331.73827      46.7237      46.7237      46.7237           90           90           90     102002.7   -478.50906 
[...]
  936000       935496   -6786.2937    564.26554   -7350.5592    4270.8772   -11621.436    107.13039    218.34759   -799.18476   -192.78365    53.180214      153.837   -149.13761      46.7237      46.7237      46.7237           90           90           90     102002.7   -257.87361 
  937000       936496   -6747.1694    581.62997   -7328.7993    4286.2803    -11615.08    110.42717   -625.12416   -1002.7761   -625.97087   -5.4608153    435.10169   -313.61517      46.7237      46.7237      46.7237           90           90           90     102002.7   -751.29038 
  938000       937496   -6728.3961    589.82198   -7318.2181    4315.9978   -11634.216    111.98249   -949.04514   -466.36459   -463.03859   -200.29251    63.044863   -192.22276      46.7237      46.7237      46.7237           90           90           90     102002.7   -626.14944 
  939000       938496    -6752.431    573.92245   -7326.3534    4298.7962    -11625.15    108.96383   -417.54195    -795.6987   -767.33799   -168.03633    -78.71611   -54.060178      46.7237      46.7237      46.7237           90           90           90     102002.7   -660.19288 
  940000       939496   -6778.8564     560.9667   -7339.8231    4292.8501   -11632.673    106.50408    -702.7146    -1018.618   -1062.6449    209.72498    217.43066    342.25925      46.7237      46.7237      46.7237           90           90           90     102002.7   -927.99247 
  941000       940496   -6749.4086    572.10528   -7321.5139     4305.786     -11627.3    108.61883   -922.01679   -664.05496   -637.50962   -160.20072    26.567835    -196.6903      46.7237      46.7237      46.7237           90           90           90     102002.7   -741.19379 
  942000       941496   -6766.5995    574.02024   -7340.6197    4284.7508   -11625.371     108.9824   -684.91741   -1001.1794     -994.722    26.755174    125.06392    118.37732      46.7237      46.7237      46.7237           90           90           90     102002.7   -893.60626 
  943000       942496   -6771.2396    581.32633   -7352.5659    4261.6818   -11614.248    110.36952   -491.34089    -1051.223   -870.89287    -112.8323   -133.61382    5.7200596      46.7237      46.7237      46.7237           90           90           90     102002.7   -804.48559 
  944000       943496   -6749.6447    578.07824   -7327.7229    4316.8715   -11644.594    109.75284   -1056.1052   -465.30916   -381.68716   -93.562659    73.298451   -129.87816      46.7237      46.7237      46.7237           90           90           90     102002.7   -634.36718 
  945000       944496   -6725.7638      598.764   -7324.5278    4287.5197   -11612.048     113.6802   -654.59839   -855.20325   -435.53456    24.013093   -198.76683   -102.39339      46.7237      46.7237      46.7237           90           90           90     102002.7    -648.4454 
  946000       945496   -6763.6221    553.28486    -7316.907    4320.8129    -11637.72    105.04562   -789.65128   -1052.4325   -202.14669     61.75365    -119.2808    208.58076      46.7237      46.7237      46.7237           90           90           90     102002.7   -681.41016 
  947000       946496   -6748.0581    572.52932   -7320.5874    4307.9612   -11628.549    108.69933    -769.1559   -503.50804    21.383856    71.529493   -41.731772   -184.48696      46.7237      46.7237      46.7237           90           90           90     102002.7   -417.09336 
  948000       947496   -6716.2706    593.14899   -7309.4196    4324.4802     -11633.9    112.61414   -1181.2689   -165.69373   -593.50136   -74.707116    21.764215   -72.721483      46.7237      46.7237      46.7237           90           90           90     102002.7   -646.82133 
  949000       948496   -6759.0214    571.82184   -7330.8433    4296.0113   -11626.855    108.56501   -793.68794   -635.57404   -803.75207    208.90146    16.588247   -226.11731      46.7237      46.7237      46.7237           90           90           90     102002.7   -744.33802 
  950000       949496   -6735.9517    579.85437   -7315.8061    4327.9041    -11643.71    110.09005   -917.91851   -461.90046   -983.84334   -115.90793   -87.002559    75.850614      46.7237      46.7237      46.7237           90           90           90     102002.7   -787.88743 
  951000       950496   -6741.1499    572.48305   -7313.6329    4313.1068    -11626.74    108.69055   -671.27522    -778.0996   -685.96595   -9.5637702    -87.21055   -90.957059      46.7237      46.7237      46.7237           90           90           90     102002.7   -711.78026 
  952000       951496   -6772.0433    566.59894   -7338.6423    4284.8744   -11623.517     107.5734   -682.70106   -753.12034   -316.27631   -158.41489    120.42012    68.196849      46.7237      46.7237      46.7237           90           90           90     102002.7   -584.03257 
  953000       952496   -6751.3155     585.1487   -7336.4642    4291.3148   -11627.779    111.09522   -853.09566   -857.91823   -734.21208   -192.13255   -84.579094    52.505042      46.7237      46.7237      46.7237           90           90           90     102002.7   -815.07532 
  954000       953496   -6757.4301    588.15623   -7345.5863    4293.2545   -11638.841    111.66623   -1142.0262   -321.94592   -438.20591    102.89056    -168.5965    65.945719      46.7237      46.7237      46.7237           90           90           90     102002.7   -634.05936 
  955000       954496   -6767.3115    559.02937   -7326.3409    4295.9529   -11622.294    106.13626   -1230.7588   -936.10368   -539.85588    265.57346    183.28528    45.661726      46.7237      46.7237      46.7237           90           90           90     102002.7   -902.23947 
  956000       955496   -6742.5182    578.40805   -7320.9263    4320.6451   -11641.571    109.81546   -629.21286   -464.11547   -745.12777    253.82013    -89.67757   -115.05871      46.7237      46.7237      46.7237           90           90           90     102002.7    -612.8187 
  957000       956496   -6741.6134    582.12651   -7323.7399    4289.0043   -11612.744    110.52144   -666.99372   -537.28358   -322.84932    112.40302   -50.945031     -87.6386      46.7237      46.7237      46.7237           90           90           90     102002.7   -509.04221 
  958000       957496   -6771.8497    575.77287   -7347.6225    4265.0422   -11612.665    109.31515   -843.36386   -1278.5203   -539.26238    203.90636    88.109028    193.59152      46.7237      46.7237      46.7237           90           90           90     102002.7   -887.04884 
  959000       958496   -6727.6154    598.05402   -7325.6694    4298.7968   -11624.466     113.5454   -679.38124   -686.30518   -215.88549    107.82521    14.044451    113.09801      46.7237      46.7237      46.7237           90           90           90     102002.7   -527.19064 
  960000       959496   -6759.6316    571.93039    -7331.562    4295.1281    -11626.69    108.58562   -708.99274   -1111.9042   -737.04319   -124.69682    172.28716   -208.59246      46.7237      46.7237      46.7237           90           90           90     102002.7   -852.64673 
  961000       960496    -6743.638    596.09143   -7339.7295    4291.2566   -11630.986    113.17279    -540.7459    -458.7498   -433.70337   -337.25174    -66.92336     1.374593      46.7237      46.7237      46.7237           90           90           90     102002.7   -477.73302 
  962000       961496   -6796.0293    546.66984   -7342.6991    4290.0701   -11632.769     103.7897    -892.2069   -789.72508   -565.52033   -123.18224   -71.306458    136.75828      46.7237      46.7237      46.7237           90           90           90     102002.7   -749.15077 
  963000       962496   -6748.0574    576.52066   -7324.5781    4318.8824   -11643.461    109.45712   -684.54451    -533.7826   -544.62721    103.56559    95.741476   -67.475152      46.7237      46.7237      46.7237           90           90           90     102002.7   -587.65144 
  964000       963496   -6768.2432    563.44262   -7331.6858    4282.0057   -11613.692    106.97415   -812.16376   -215.01007   -674.90297    -85.70969    37.260919    23.507209      46.7237      46.7237      46.7237           90           90           90     102002.7   -567.35893 
  965000       964496   -6750.1602     599.2691   -7349.4293     4288.473   -11637.902     113.7761   -716.58226    -630.0607   -601.57248   -26.413758     73.98402    173.35101      46.7237      46.7237      46.7237           90           90           90     102002.7   -649.40515 
  966000       965496   -6731.8728     584.4989   -7316.3717    4308.6313   -11625.003    110.97186    -476.8674   -607.18504   -351.55262    51.659184   -188.78197   -31.803906      46.7237      46.7237      46.7237           90           90           90     102002.7   -478.53502 
  967000       966496   -6775.2115    567.68709   -7342.8986    4298.9688   -11641.867       107.78   -543.83088   -1148.3384   -494.47529   -109.25981   -78.202275   -44.202064      46.7237      46.7237      46.7237           90           90           90     102002.7   -728.88152 
  968000       967496   -6765.2123    574.95197   -7340.1643    4297.4679   -11637.632    109.15929   -853.75204   -731.12001   -619.14752   -167.62873    212.20151    140.20706      46.7237      46.7237      46.7237           90           90           90     102002.7   -734.67319 
  969000       968496   -6761.3575    567.17054   -7328.5281    4323.0524    -11651.58    107.68193     -418.651   -995.82872   -539.37467   -144.43141   -45.112835   -91.172921      46.7237      46.7237      46.7237           90           90           90     102002.7    -651.2848 
  970000       969496   -6760.9865    576.46773   -7337.4542    4291.1693   -11628.623    109.44707   -411.57126    -624.9733   -784.18658     201.2538   -239.58816   -238.85264      46.7237      46.7237      46.7237           90           90           90     102002.7   -606.91038 
  971000       970496   -6752.0734    569.25322   -7321.3266    4303.5326   -11624.859    108.07734   -789.86102   -920.35132   -777.42159    136.19482    154.27025    29.149624      46.7237      46.7237      46.7237           90           90           90     102002.7   -829.21131 
  972000       971496   -6749.6497    574.42975   -7324.0794    4306.3777   -11630.457    109.06014   -1260.7241   -745.15852   -690.66662   -154.81188   -73.225154    27.105973      46.7237      46.7237      46.7237           90           90           90     102002.7   -898.84975 
  973000       972496   -6760.8641    570.04831   -7330.9124    4316.4511   -11647.364    108.22829   -514.37537    -825.2191   -952.67429    117.32843   -35.542148   -38.913135      46.7237      46.7237      46.7237           90           90           90     102002.7   -764.08959 
  974000       973496   -6773.7571    578.07398   -7351.8311    4278.2843   -11630.115    109.75203   -1173.8748   -796.33284   -637.94189   -77.728675   -166.36068   -5.6866976      46.7237      46.7237      46.7237           90           90           90     102002.7   -869.38317 
  975000       974496   -6739.2718    583.31297   -7322.5847    4292.0417   -11614.626     110.7467   -950.96817   -956.55127   -749.42453    19.950405   -54.403282    97.949961      46.7237      46.7237      46.7237           90           90           90     102002.7   -885.64799 
  976000       975496   -6767.8773    560.48781   -7328.3651    4290.2246    -11618.59    106.41315   -479.34206   -614.17151    -1122.581    9.8141529   -181.66784    175.36005      46.7237      46.7237      46.7237           90           90           90     102002.7   -738.69818 
  977000       976496   -6726.4581    587.62633   -7314.0844    4301.9619   -11616.046    111.56562   -923.38859   -1360.7318   -777.20654    53.699517    149.98916    13.181004      46.7237      46.7237      46.7237           90           90           90     102002.7   -1020.4423 
  978000       977496   -6752.6545      590.578   -7343.2325    4287.1405   -11630.373    112.12602   -820.85002   -1098.2093   -686.89692    13.191851    66.619774   -207.19504      46.7237      46.7237      46.7237           90           90           90     102002.7   -868.65209 
  979000       978496   -6792.5828    568.42625    -7361.009    4276.4256   -11637.435    107.92033   -644.42874   -1089.6277   -919.36325   -158.70969    235.00332    63.330456      46.7237      46.7237      46.7237           90           90           90     102002.7   -884.47323 
  980000       979496   -6740.6423    576.96077    -7317.603    4309.3435   -11626.947    109.54068   -608.23874   -632.92981   -374.74529    106.10924    46.742055   -181.75897      46.7237      46.7237      46.7237           90           90           90     102002.7   -538.63795 
  981000       980496   -6759.0704     576.4406    -7335.511    4294.5686    -11630.08    109.44192   -123.23622   -259.34517   -933.67153    4.7665547    35.503369   -133.48238      46.7237      46.7237      46.7237           90           90           90     102002.7   -438.75097 
  982000       981496   -6740.6018    599.60073   -7340.2025    4293.8018   -11634.004    113.83906   -659.28917   -697.06153   -446.93013    41.064153    9.0301639     185.1879      46.7237      46.7237      46.7237           90           90           90     102002.7   -601.09361 
  983000       982496   -6759.3518    566.42772   -7325.7795    4306.5399   -11632.319     107.5409   -351.18168   -987.47864   -1028.3378   -16.462676   -73.169473    259.47248      46.7237      46.7237      46.7237           90           90           90     102002.7   -788.99937 
  984000       983496   -6728.5198    596.50545   -7325.0252    4286.3464   -11611.372     113.2514   -479.04499   -1114.9178   -1153.0182    317.90904    17.156108   -37.715606      46.7237      46.7237      46.7237           90           90           90     102002.7   -915.66033 
  985000       984496   -6757.6474    566.07383   -7323.7212    4314.7676   -11638.489    107.47371   -813.09436   -717.90352   -800.46514    349.24939    79.472291    231.90086      46.7237      46.7237      46.7237           90           90           90     102002.7   -777.15434 
  986000       985496   -6763.1369    579.70716   -7342.8441    4292.8696   -11635.714     110.0621    -594.4698   -1344.8424   -526.79352   -26.386916    41.853336    57.708699      46.7237      46.7237      46.7237           90           90           90     102002.7   -822.03523 
  987000       986496   -6736.2217    597.50261   -7333.7243    4281.8868   -11615.611    113.44071   -810.08648   -1103.4835   -1032.5714    77.155982    149.00724     21.16994      46.7237      46.7237      46.7237           90           90           90     102002.7   -982.04712 
  988000       987496   -6764.4956    573.86586   -7338.3614    4294.5995   -11632.961    108.95309   -853.35763   -311.83252   -1040.6271   -23.271425   -397.14198    122.15113      46.7237      46.7237      46.7237           90           90           90     102002.7   -735.27242 
  989000       988496   -6731.0694    577.41573   -7308.4851    4315.0631   -11623.548    109.62706   -804.50623   -819.13645   -903.79673   -77.502695    89.373228    32.002394      46.7237      46.7237      46.7237           90           90           90     102002.7    -842.4798 
  990000       989496   -6751.5011    571.12244   -7322.6235     4314.525   -11637.149    108.43223    -272.7059   -831.25677   -426.47215    122.76565    63.557448   -116.31932      46.7237      46.7237      46.7237           90           90           90     102002.7   -510.14494 
  991000       990496   -6769.1708    564.34451   -7333.5153    4288.3837   -11621.899    107.14538   -921.88819   -280.48319   -602.85356    235.99521    -100.2809    76.775109      46.7237      46.7237      46.7237           90           90           90     102002.7   -601.74165 
  992000       991496   -6732.2982    581.14375    -7313.442    4325.3479    -11638.79    110.33485   -351.82866    -1166.143   -1152.5435    14.763306   -121.23382   -245.34516      46.7237      46.7237      46.7237           90           90           90     102002.7   -890.17174 
  993000       992496   -6774.9643     564.1688   -7339.1331    4301.5289   -11640.662    107.11202   -808.67067   -645.50572   -594.54183    176.22259    74.389032    93.145698      46.7237      46.7237      46.7237           90           90           90     102002.7   -682.90607 
  994000       993496   -6769.9092    559.98796   -7329.8971    4293.3848   -11623.282    106.31825   -1328.1432    -939.8804   -919.79705   -107.20057    47.594748    116.80282      46.7237      46.7237      46.7237           90           90           90     102002.7   -1062.6069 
  995000       994496   -6740.0867    568.39617   -7308.4829     4307.408   -11615.891    107.91462   -871.35018   -819.27362   -803.56393   -67.863822    29.711895   -126.41718      46.7237      46.7237      46.7237           90           90           90     102002.7   -831.39591 
  996000       995496   -6748.6309    581.35068   -7329.9816    4288.8054   -11618.787    110.37414   -727.11784   -713.99758    -477.2271    136.02519   -187.75087   -84.614083      46.7237      46.7237      46.7237           90           90           90     102002.7   -639.44751 
  997000       996496    -6731.348    580.67765   -7312.0256    4299.8352   -11611.861    110.24636   -494.49789   -692.03462   -398.36526    -184.9431     313.1366   -393.55753      46.7237      46.7237      46.7237           90           90           90     102002.7   -528.29926 
  998000       997496   -6769.6011    571.80474   -7341.4058    4283.1454   -11624.551    108.56177   -748.57929   -730.98727   -1137.2933    55.544365     170.8394    182.23309      46.7237      46.7237      46.7237           90           90           90     102002.7   -872.28663 
  999000       998496   -6777.9542    570.81802   -7348.7722    4289.5658   -11638.338    108.37443    -925.5484   -659.72093   -1021.6016    31.485268   -2.8070349    57.591971      46.7237      46.7237      46.7237           90           90           90     102002.7   -868.95698 
 1000000       999496   -6741.5587    577.90419   -7319.4629    4308.5824   -11628.045     109.7198   -861.61178   -271.89497    -437.8942   -177.06032   -72.818932    102.43399      46.7237      46.7237      46.7237           90           90           90     102002.7   -523.80032 
 1000504      1000000   -6763.0108    572.26225   -7335.2731     4296.817    -11632.09    108.64863   -867.61127   -871.20475   -847.40421   -102.85065   -308.45774    304.06374      46.7237      46.7237      46.7237           90           90           90     102002.7   -862.07341 
Loop time of 629.299 on 24 procs for 500000 steps with 1768 atoms

Performance: 68.648 ns/day, 0.350 hours/ns, 794.534 timesteps/s
99.9% CPU use with 24 MPI tasks x no OpenMP threads

MPI task timing breakdown:
Section |  min time  |  avg time  |  max time  |%varavg| %total
---------------------------------------------------------------
Pair    | 210.56     | 310.43     | 406.63     | 294.8 | 49.33
Bond    | 68.765     | 82.991     | 96.186     |  74.9 | 13.19
Neigh   | 2.0813     | 2.106      | 2.123      |   1.1 |  0.33
Comm    | 114.85     | 218.2      | 314.94     | 360.3 | 34.67
Output  | 0.35504    | 0.47411    | 0.47941    |   3.6 |  0.08
Modify  | 11.76      | 12.061     | 12.428     |   5.4 |  1.92
Other   |            | 3.029      |            |       |  0.48

Nlocal:    73.6667 ave 96 max 55 min
Histogram: 3 2 3 3 3 3 1 1 3 2
Nghost:    2016.58 ave 2183 max 1918 min
Histogram: 10 6 0 0 0 0 0 0 1 7
Neighs:    7633.75 ave 12419 max 4692 min
Histogram: 3 2 3 10 0 3 1 0 1 1

Total # of neighbors = 183210
Ave neighs/atom = 103.626
Ave special neighs/atom = 6.51584
Neighbor list builds = 3771
Dangerous builds = 0
Total wall time: 0:19:58
