LAMMPS (30 Mar 2018)
Reading data file ...
  orthogonal box = (0 0 0) to (46.7237 46.7237 46.7237)
  2 by 2 by 4 MPI processor grid
  reading atoms ...
  3221 atoms
  scanning bonds ...
  5 = max bonds/atom
  scanning angles ...
  10 = max angles/atom
  scanning dihedrals ...
  32 = max dihedrals/atom
  scanning impropers ...
  3 = max impropers/atom
  reading bonds ...
  2064 bonds
  reading angles ...
  3696 angles
  reading dihedrals ...
  6240 dihedrals
  reading impropers ...
  1008 impropers
Finding 1-2 1-3 1-4 neighbors ...
  special bond factors lj:   0          0          0         
  special bond factors coul: 0          0          0         
  5 = max # of 1-2 neighbors
  8 = max # of 1-3 neighbors
  20 = max # of 1-4 neighbors
  19 = max # of special neighbors
Finding 1-2 1-3 1-4 neighbors ...
  special bond factors lj:   0          0          1         
  special bond factors coul: 1          1          1         
  5 = max # of 1-2 neighbors
  8 = max # of 1-3 neighbors
  19 = max # of special neighbors
WARNING: Using 'neigh_modify every 1 delay 0 check yes' setting during minimization (../min.cpp:168)
Neighbor list info ...
  update every 1 steps, delay 0 steps, check yes
  max neighbors/atom: 2000, page size: 100000
  master list distance cutoff = 16
  ghost atom cutoff = 16
  binsize = 8, bins = 6 6 6
  3 neighbor lists, perpetual/occasional/extra = 3 0 0
  (1) pair buck6d/coul/gauss/dsf, perpetual, skip from (3)
      attributes: half, newton on
      pair build: skip
      stencil: none
      bin: none
  (2) pair lj/cut, perpetual, skip from (3)
      attributes: half, newton on
      pair build: skip
      stencil: none
      bin: none
  (3) neighbor class addition, perpetual
      attributes: half, newton on
      pair build: half/bin/newton
      stencil: half/bin/3d/newton
      bin: standard
Setting up cg style minimization ...
  Unit style    : real
  Current step  : 0
WARNING: Inconsistent image flags (../domain.cpp:786)
Per MPI rank memory allocation (min/avg/max) = 23.02 | 23.47 | 23.92 Mbytes
Step Temp E_pair E_mol TotEng Press 
       0            0   -15476.954    6482.8914    -8994.063    6578.6181 
     500            0   -15970.344    3745.3246   -12225.019   -1815.5441 
Loop time of 4.41806 on 16 procs for 500 steps with 3221 atoms

99.9% CPU use with 16 MPI tasks x no OpenMP threads

Minimization stats:
  Stopping criterion = max force evaluations
  Energy initial, next-to-last, final = 
        -8994.06302392     -12224.9334834     -12225.0188966
  Force two-norm initial, final = 2575.92 12.8924
  Force max component initial, final = 152.09 2.24771
  Final line search alpha, max atom move = 0.00707373 0.0158997
  Iterations, force evaluations = 500 1000

MPI task timing breakdown:
Section |  min time  |  avg time  |  max time  |%varavg| %total
---------------------------------------------------------------
Pair    | 2.5102     | 2.9966     | 3.604      |  17.1 | 67.83
Bond    | 0.27184    | 0.3601     | 0.45827    |  10.1 |  8.15
Neigh   | 0.031348   | 0.03152    | 0.031683   |   0.1 |  0.71
Comm    | 0.3204     | 0.98436    | 1.5507     |  32.1 | 22.28
Output  | 0          | 0          | 0          |   0.0 |  0.00
Modify  | 0          | 0          | 0          |   0.0 |  0.00
Other   |            | 0.04544    |            |       |  1.03

Nlocal:    201.312 ave 226 max 167 min
Histogram: 2 0 0 1 2 2 3 3 2 1
Nghost:    4032.19 ave 4074 max 3997 min
Histogram: 1 1 2 4 2 2 1 2 0 1
Neighs:    11486 ave 16029 max 6764 min
Histogram: 1 0 3 2 5 0 1 0 1 3

Total # of neighbors = 183776
Ave neighs/atom = 57.0556
Ave special neighs/atom = 3.57653
Neighbor list builds = 9
Dangerous builds = 0
Neighbor list info ...
  update every 1 steps, delay 10 steps, check yes
  max neighbors/atom: 2000, page size: 100000
  master list distance cutoff = 16
  ghost atom cutoff = 16
  binsize = 8, bins = 6 6 6
  3 neighbor lists, perpetual/occasional/extra = 3 0 0
  (1) pair buck6d/coul/gauss/dsf, perpetual, skip from (3)
      attributes: half, newton on
      pair build: skip
      stencil: none
      bin: none
  (2) pair lj/cut, perpetual, skip from (3)
      attributes: half, newton on
      pair build: skip
      stencil: none
      bin: none
  (3) neighbor class addition, perpetual
      attributes: half, newton on
      pair build: half/bin/newton
      stencil: half/bin/3d/newton
      bin: standard
Setting up Verlet run ...
  Unit style    : real
  Current step  : 500
  Time step     : 1
WARNING: Inconsistent image flags (../domain.cpp:786)
Per MPI rank memory allocation (min/avg/max) = 22.66 | 22.78 | 23.25 Mbytes
Step Temp PotEng TotEng Press Volume Lx Ly Lz 
     500          130   -12225.019   -10977.252   -1256.3602     102002.7      46.7237      46.7237      46.7237 
    1000    110.66639   -11201.468   -10139.269    138.97687     102002.7      46.7237      46.7237      46.7237 
    2000    129.74697   -10996.557    -9751.219    259.55741     102002.7      46.7237      46.7237      46.7237 
    3000    127.99285   -11043.007   -9814.5048    332.38904     102002.7      46.7237      46.7237      46.7237 
    4000    128.96637   -11051.428   -9813.5819    417.74647     102002.7      46.7237      46.7237      46.7237 
    5000    128.64164   -11041.254   -9806.5252    356.37575     102002.7      46.7237      46.7237      46.7237 
    6000    128.92022   -11042.353   -9804.9499    722.15471     102002.7      46.7237      46.7237      46.7237 
    7000    130.44092   -11025.966   -9773.9671    465.14462     102002.7      46.7237      46.7237      46.7237 
    8000     125.8965   -11021.447    -9813.066    452.97516     102002.7      46.7237      46.7237      46.7237 
    9000    131.23547   -11042.316   -9782.6901    452.07585     102002.7      46.7237      46.7237      46.7237 
   10000    127.78535   -11024.224    -9797.714    438.63841     102002.7      46.7237      46.7237      46.7237 
   11000    125.92172   -11001.811   -9793.1883    595.94538     102002.7      46.7237      46.7237      46.7237 
   12000    134.89867   -11038.873   -9744.0874    614.28584     102002.7      46.7237      46.7237      46.7237 
   13000    129.47682   -11024.957   -9782.2119    698.54165     102002.7      46.7237      46.7237      46.7237 
   14000    126.14947   -11025.452   -9814.6434     382.9778     102002.7      46.7237      46.7237      46.7237 
   15000    125.39286   -11035.894   -9832.3469    467.34502     102002.7      46.7237      46.7237      46.7237 
   16000    126.76404   -11041.034   -9824.3262     580.8307     102002.7      46.7237      46.7237      46.7237 
   17000    130.33969   -11072.896   -9821.8684    433.73312     102002.7      46.7237      46.7237      46.7237 
   18000    129.43242   -11046.245    -9803.926    548.68734     102002.7      46.7237      46.7237      46.7237 
   19000    127.49242   -11055.072   -9831.3736     608.4485     102002.7      46.7237      46.7237      46.7237 
   20000    133.58243   -11049.031   -9766.8789    955.62612     102002.7      46.7237      46.7237      46.7237 
   21000    133.78569   -11078.937   -9794.8343    1021.9066     102002.7      46.7237      46.7237      46.7237 
   22000    129.54534   -11049.628   -9806.2244    538.07191     102002.7      46.7237      46.7237      46.7237 
   23000    127.83066   -11061.131   -9834.1852    641.55112     102002.7      46.7237      46.7237      46.7237 
   24000    132.26849   -11070.874   -9801.3338    698.02302     102002.7      46.7237      46.7237      46.7237 
   25000    133.01451   -11078.504   -9801.8027    470.03519     102002.7      46.7237      46.7237      46.7237 
   26000    132.03256   -11054.204   -9786.9284    722.61924     102002.7      46.7237      46.7237      46.7237 
   27000    128.02946   -11066.541    -9837.688    483.56213     102002.7      46.7237      46.7237      46.7237 
   28000    131.66287   -11017.761   -9754.0333    336.75899     102002.7      46.7237      46.7237      46.7237 
   29000    130.41369   -11066.448   -9814.7098    632.50627     102002.7      46.7237      46.7237      46.7237 
   30000    128.58893   -11023.153   -9788.9298    535.34228     102002.7      46.7237      46.7237      46.7237 
   31000    131.67925   -11057.913   -9794.0277    386.52492     102002.7      46.7237      46.7237      46.7237 
   32000    130.65041   -11037.431   -9783.4209    546.42833     102002.7      46.7237      46.7237      46.7237 
   33000    131.00956   -11021.296   -9763.8386    521.57749     102002.7      46.7237      46.7237      46.7237 
   34000    130.19619   -11040.073   -9790.4228    759.45002     102002.7      46.7237      46.7237      46.7237 
   35000    130.00356   -11060.265   -9812.4642    323.60024     102002.7      46.7237      46.7237      46.7237 
   36000      130.311   -11069.494   -9818.7423    158.99827     102002.7      46.7237      46.7237      46.7237 
   37000    128.09146   -11034.892   -9805.4435    533.62238     102002.7      46.7237      46.7237      46.7237 
   38000    130.42965   -11041.995   -9790.1044    478.78778     102002.7      46.7237      46.7237      46.7237 
   39000    130.78193   -11014.383   -9759.1104    650.04097     102002.7      46.7237      46.7237      46.7237 
   40000    128.91436   -11071.696   -9834.3488    461.64596     102002.7      46.7237      46.7237      46.7237 
   41000    131.40222   -11080.588    -9819.362    434.17415     102002.7      46.7237      46.7237      46.7237 
   42000    129.45043   -11019.971   -9777.4788    312.92487     102002.7      46.7237      46.7237      46.7237 
   43000    125.92543   -11041.219   -9832.5609    412.06679     102002.7      46.7237      46.7237      46.7237 
   44000    129.16701   -11057.856    -9818.084    296.17677     102002.7      46.7237      46.7237      46.7237 
   45000    131.87817   -11018.823   -9753.0293    885.02705     102002.7      46.7237      46.7237      46.7237 
   46000    129.59013   -11065.118   -9821.2852    686.71778     102002.7      46.7237      46.7237      46.7237 
   47000    131.65527    -11031.37   -9767.7152    321.78354     102002.7      46.7237      46.7237      46.7237 
   48000    130.86368   -11033.015   -9776.9581    722.50287     102002.7      46.7237      46.7237      46.7237 
   49000    127.43079    -11013.56   -9790.4523     497.2498     102002.7      46.7237      46.7237      46.7237 
   50000     130.1197   -11052.678   -9803.7616    568.19749     102002.7      46.7237      46.7237      46.7237 
   51000    129.52093   -11092.984   -9849.8156      777.466     102002.7      46.7237      46.7237      46.7237 
   52000    130.41648   -11058.485   -9806.7208    217.83382     102002.7      46.7237      46.7237      46.7237 
   53000    130.87735   -11047.297   -9791.1091     311.6943     102002.7      46.7237      46.7237      46.7237 
   54000    131.66525   -11057.644   -9793.8938    201.61786     102002.7      46.7237      46.7237      46.7237 
   55000    129.45771    -11039.14   -9796.5775    715.36327     102002.7      46.7237      46.7237      46.7237 
   56000    127.15569   -11062.988   -9842.5213    571.33065     102002.7      46.7237      46.7237      46.7237 
   57000    130.67117     -11066.5   -9812.2905    329.74668     102002.7      46.7237      46.7237      46.7237 
   58000    129.95918   -11054.565   -9807.1898    478.69832     102002.7      46.7237      46.7237      46.7237 
   59000    128.10327   -11047.813   -9818.2515     271.0902     102002.7      46.7237      46.7237      46.7237 
   60000    129.20285   -11033.112   -9792.9957    789.08324     102002.7      46.7237      46.7237      46.7237 
   61000    129.82041   -11044.099   -9798.0552    705.03226     102002.7      46.7237      46.7237      46.7237 
   62000    129.31753   -11039.969   -9798.7527     491.6317     102002.7      46.7237      46.7237      46.7237 
   63000    129.03844    -11059.21   -9820.6717    626.84521     102002.7      46.7237      46.7237      46.7237 
   64000    131.22839   -11066.902   -9807.3449    706.13506     102002.7      46.7237      46.7237      46.7237 
   65000    129.10791   -11034.256   -9795.0516    437.80666     102002.7      46.7237      46.7237      46.7237 
   66000    128.96856   -11067.009   -9829.1416     417.9816     102002.7      46.7237      46.7237      46.7237 
   67000    135.14249   -11033.357   -9736.2312    437.76295     102002.7      46.7237      46.7237      46.7237 
   68000      128.331   -11047.984    -9816.236    710.87806     102002.7      46.7237      46.7237      46.7237 
   69000    132.68579    -11080.36   -9806.8141    650.26119     102002.7      46.7237      46.7237      46.7237 
   70000    126.39453   -11014.601   -9801.4395    1039.2816     102002.7      46.7237      46.7237      46.7237 
   71000    127.59399   -11015.013   -9790.3396    557.89324     102002.7      46.7237      46.7237      46.7237 
   72000    126.00048   -11035.878   -9826.4987    202.72501     102002.7      46.7237      46.7237      46.7237 
   73000    130.30521   -11062.106   -9811.4092    264.59496     102002.7      46.7237      46.7237      46.7237 
   74000    130.57615   -11041.091    -9787.794    461.93752     102002.7      46.7237      46.7237      46.7237 
   75000    130.48728    -11042.78   -9790.3355    487.13622     102002.7      46.7237      46.7237      46.7237 
   76000    128.31095   -11050.795   -9819.2398    455.35644     102002.7      46.7237      46.7237      46.7237 
   77000    128.45677   -11054.608   -9821.6536    121.18808     102002.7      46.7237      46.7237      46.7237 
   78000    131.31353   -11055.091    -9794.716    402.35066     102002.7      46.7237      46.7237      46.7237 
   79000    130.09745   -11038.177   -9789.4743    557.18189     102002.7      46.7237      46.7237      46.7237 
   80000    130.31252   -11095.988   -9845.2212    496.06653     102002.7      46.7237      46.7237      46.7237 
   81000    131.54733   -11056.355   -9793.7361    447.26199     102002.7      46.7237      46.7237      46.7237 
   82000    129.37143   -11068.156   -9826.4224    26.548989     102002.7      46.7237      46.7237      46.7237 
   83000    128.22146   -11078.079   -9847.3828    577.74138     102002.7      46.7237      46.7237      46.7237 
   84000    132.98628   -11059.907   -9783.4774    557.96261     102002.7      46.7237      46.7237      46.7237 
   85000    132.50128   -11067.881   -9796.1064    462.55324     102002.7      46.7237      46.7237      46.7237 
   86000    128.70797   -11026.606   -9791.2401    468.56752     102002.7      46.7237      46.7237      46.7237 
   87000    128.52258   -11049.769   -9816.1829      160.172     102002.7      46.7237      46.7237      46.7237 
   88000    133.02232   -11028.809   -9752.0328    782.50177     102002.7      46.7237      46.7237      46.7237 
   89000    128.68439    -11049.51   -9814.3707    441.86673     102002.7      46.7237      46.7237      46.7237 
   90000    131.22475   -11041.122   -9781.5998    520.84355     102002.7      46.7237      46.7237      46.7237 
   91000     127.2012   -11002.091   -9781.1873     735.1218     102002.7      46.7237      46.7237      46.7237 
   92000    126.73719   -10991.137   -9774.6875    624.25833     102002.7      46.7237      46.7237      46.7237 
   93000    130.41583   -11057.644    -9805.886     301.9554     102002.7      46.7237      46.7237      46.7237 
   94000    130.34535   -11074.038   -9822.9566    503.97681     102002.7      46.7237      46.7237      46.7237 
   95000    132.24238   -11051.264   -9781.9744    782.31972     102002.7      46.7237      46.7237      46.7237 
   96000    129.89386   -11063.594   -9816.8459    493.91353     102002.7      46.7237      46.7237      46.7237 
   97000    133.77187   -11032.142    -9748.172    472.66952     102002.7      46.7237      46.7237      46.7237 
   98000    129.90401   -11049.577   -9802.7316     494.8142     102002.7      46.7237      46.7237      46.7237 
   99000    126.39249   -11067.134   -9853.9921     235.7972     102002.7      46.7237      46.7237      46.7237 
  100000    129.21774   -11057.656   -9817.3977    564.13693     102002.7      46.7237      46.7237      46.7237 
  101000    133.68884   -11046.252   -9763.0785    561.19536     102002.7      46.7237      46.7237      46.7237 
  102000    129.61547   -11061.362   -9817.2856    276.95399     102002.7      46.7237      46.7237      46.7237 
  103000     130.1296   -11046.993   -9797.9818    444.06136     102002.7      46.7237      46.7237      46.7237 
  104000    131.26238   -11037.918   -9778.0341    606.16245     102002.7      46.7237      46.7237      46.7237 
  105000     129.9258   -11010.114   -9763.0589    200.42315     102002.7      46.7237      46.7237      46.7237 
  106000    128.30542   -11036.423   -9804.9208    299.22286     102002.7      46.7237      46.7237      46.7237 
  107000    130.81015    -11078.49   -9822.9466    296.52985     102002.7      46.7237      46.7237      46.7237 
  108000    130.16769   -11026.633   -9777.2565    254.70729     102002.7      46.7237      46.7237      46.7237 
  109000    131.77773   -11047.241   -9782.4108    534.25868     102002.7      46.7237      46.7237      46.7237 
  110000    132.11965   -11055.238   -9787.1261    338.12069     102002.7      46.7237      46.7237      46.7237 
  111000    130.48039   -11069.503   -9817.1249    229.20845     102002.7      46.7237      46.7237      46.7237 
  112000    132.88479    -11050.28   -9774.8242    784.91917     102002.7      46.7237      46.7237      46.7237 
  113000     129.6703   -11075.068   -9830.4657    718.47136     102002.7      46.7237      46.7237      46.7237 
  114000    130.18719    -11042.52   -9792.9564    706.99247     102002.7      46.7237      46.7237      46.7237 
  115000    131.28031   -11014.637   -9754.5815    672.73656     102002.7      46.7237      46.7237      46.7237 
  116000    131.08691   -11046.769     -9788.57     297.0081     102002.7      46.7237      46.7237      46.7237 
  117000    128.71813   -11037.982   -9802.5184    415.65655     102002.7      46.7237      46.7237      46.7237 
  118000    129.10947   -11052.152    -9812.932    468.67276     102002.7      46.7237      46.7237      46.7237 
  119000    129.67015   -11020.172   -9775.5705    674.16086     102002.7      46.7237      46.7237      46.7237 
  120000    129.41892    -11073.03   -9830.8398    568.41086     102002.7      46.7237      46.7237      46.7237 
  121000    129.70295   -11026.042   -9781.1258    406.64326     102002.7      46.7237      46.7237      46.7237 
  122000    129.99304   -11063.368   -9815.6682     49.06897     102002.7      46.7237      46.7237      46.7237 
  123000    129.47474   -11077.665   -9834.9394    717.72379     102002.7      46.7237      46.7237      46.7237 
  124000    129.02731   -11030.568   -9792.1368    478.41199     102002.7      46.7237      46.7237      46.7237 
  125000    130.12117   -11058.042   -9809.1122    346.20723     102002.7      46.7237      46.7237      46.7237 
  126000    129.76071   -11055.272   -9809.8015     387.5999     102002.7      46.7237      46.7237      46.7237 
  127000    128.58672   -11087.258   -9853.0562    532.76567     102002.7      46.7237      46.7237      46.7237 
  128000    132.85767   -11051.699   -9776.5032    272.84036     102002.7      46.7237      46.7237      46.7237 
  129000    129.76632    -11101.89    -9856.366     352.4979     102002.7      46.7237      46.7237      46.7237 
  130000    129.50738   -11029.093   -9786.0537    329.38632     102002.7      46.7237      46.7237      46.7237 
  131000    131.58962   -11038.174   -9775.1495    672.20217     102002.7      46.7237      46.7237      46.7237 
  132000    127.97529   -11043.192   -9814.8581    591.44306     102002.7      46.7237      46.7237      46.7237 
  133000    129.51953   -11041.243   -9798.0875    543.81639     102002.7      46.7237      46.7237      46.7237 
  134000     129.3711   -11040.861   -9799.1301    823.93493     102002.7      46.7237      46.7237      46.7237 
  135000    131.30404   -11054.442   -9794.1582    848.38812     102002.7      46.7237      46.7237      46.7237 
  136000    132.10874   -11086.912   -9818.9047     242.9183     102002.7      46.7237      46.7237      46.7237 
  137000    132.07652   -11047.937   -9780.2394    622.92683     102002.7      46.7237      46.7237      46.7237 
  138000    128.77224   -11083.786   -9847.8028    49.999476     102002.7      46.7237      46.7237      46.7237 
  139000    129.46603   -11055.644   -9813.0016     294.9001     102002.7      46.7237      46.7237      46.7237 
  140000    131.24003   -11055.681   -9796.0119    564.66035     102002.7      46.7237      46.7237      46.7237 
  141000     128.7867   -11070.413    -9834.291    182.75492     102002.7      46.7237      46.7237      46.7237 
  142000    129.89386   -11057.105   -9810.3568    410.92836     102002.7      46.7237      46.7237      46.7237 
  143000     134.0552   -11059.776   -9773.0858    495.47562     102002.7      46.7237      46.7237      46.7237 
  144000    132.05309   -11047.055   -9779.5822    507.68906     102002.7      46.7237      46.7237      46.7237 
  145000    130.66793   -11049.882   -9795.7037    339.14683     102002.7      46.7237      46.7237      46.7237 
  146000    131.37031    -11038.04   -9777.1208    373.75774     102002.7      46.7237      46.7237      46.7237 
  147000    129.64122   -11067.545   -9823.2213    541.05979     102002.7      46.7237      46.7237      46.7237 
  148000    129.32841   -11058.865    -9817.544   -14.497197     102002.7      46.7237      46.7237      46.7237 
  149000    131.45374   -11075.692   -9813.9716    415.24744     102002.7      46.7237      46.7237      46.7237 
  150000    127.54461   -11006.961   -9782.7614    653.87066     102002.7      46.7237      46.7237      46.7237 
  151000    130.31392   -11069.683   -9818.9029    424.68003     102002.7      46.7237      46.7237      46.7237 
  152000    128.62894   -11058.337   -9823.7296    600.68911     102002.7      46.7237      46.7237      46.7237 
  153000    131.69615   -11073.234    -9809.187    435.05627     102002.7      46.7237      46.7237      46.7237 
  154000    128.70222   -11085.314   -9850.0034    273.82788     102002.7      46.7237      46.7237      46.7237 
  155000    127.55534   -11054.903   -9830.6004     701.5541     102002.7      46.7237      46.7237      46.7237 
  156000    133.35323   -11048.676   -9768.7234    460.48088     102002.7      46.7237      46.7237      46.7237 
  157000     131.4385   -11051.562   -9789.9882    365.05824     102002.7      46.7237      46.7237      46.7237 
  158000    131.42413    -11042.84   -9781.4042    252.55594     102002.7      46.7237      46.7237      46.7237 
  159000    127.44047   -11057.775   -9834.5747    249.38391     102002.7      46.7237      46.7237      46.7237 
  160000    129.92606   -11071.306    -9824.249    297.32362     102002.7      46.7237      46.7237      46.7237 
  161000    125.80331    -11032.58   -9825.0938    418.07435     102002.7      46.7237      46.7237      46.7237 
  162000     128.9601   -11057.878   -9820.0921    727.34413     102002.7      46.7237      46.7237      46.7237 
  163000    132.57071   -11027.253   -9754.8121    651.31042     102002.7      46.7237      46.7237      46.7237 
  164000    131.71371   -11037.725   -9773.5097    561.02278     102002.7      46.7237      46.7237      46.7237 
  165000    131.67136   -11086.883   -9823.0741    406.78652     102002.7      46.7237      46.7237      46.7237 
  166000    128.86666    -11035.25   -9798.3612    507.55124     102002.7      46.7237      46.7237      46.7237 
  167000    129.16547   -11052.024   -9812.2665    481.42326     102002.7      46.7237      46.7237      46.7237 
  168000    134.25123   -11043.253   -9754.6821    457.88256     102002.7      46.7237      46.7237      46.7237 
  169000    131.13402   -11074.509   -9815.8578     743.9756     102002.7      46.7237      46.7237      46.7237 
  170000    131.41025   -11056.179   -9794.8756    692.79892     102002.7      46.7237      46.7237      46.7237 
  171000    128.36285   -11032.633   -9800.5796     239.5464     102002.7      46.7237      46.7237      46.7237 
  172000    129.71604   -11089.146   -9844.1048    278.47688     102002.7      46.7237      46.7237      46.7237 
  173000    131.39663     -11051.6    -9790.428   -133.75771     102002.7      46.7237      46.7237      46.7237 
  174000    130.83496    -11088.63   -9832.8487    281.88866     102002.7      46.7237      46.7237      46.7237 
  175000    129.06076   -11028.018    -9789.266    478.59451     102002.7      46.7237      46.7237      46.7237 
  176000    129.65272   -11041.324   -9796.8905    318.62522     102002.7      46.7237      46.7237      46.7237 
  177000    130.51015   -11066.802   -9814.1381    454.67686     102002.7      46.7237      46.7237      46.7237 
  178000     127.4429    -11063.66    -9840.436    456.13042     102002.7      46.7237      46.7237      46.7237 
  179000    126.48735   -11075.324   -9861.2722    480.89715     102002.7      46.7237      46.7237      46.7237 
  180000    132.48675   -11050.253   -9778.6181    728.55816     102002.7      46.7237      46.7237      46.7237 
  181000    130.81321   -11068.394   -9812.8212    503.63645     102002.7      46.7237      46.7237      46.7237 
  182000    127.78697   -11062.438   -9835.9125     225.3601     102002.7      46.7237      46.7237      46.7237 
  183000    130.07822   -11051.585   -9803.0676     469.3076     102002.7      46.7237      46.7237      46.7237 
  184000    130.85801   -11040.122   -9784.1197    616.45825     102002.7      46.7237      46.7237      46.7237 
  185000    129.48046   -11051.752   -9808.9719    586.66404     102002.7      46.7237      46.7237      46.7237 
  186000    128.54722   -11042.712   -9808.8892     305.6808     102002.7      46.7237      46.7237      46.7237 
  187000    130.07346   -11084.058   -9835.5854    490.80277     102002.7      46.7237      46.7237      46.7237 
  188000    132.69799   -11068.021   -9794.3576    472.76433     102002.7      46.7237      46.7237      46.7237 
  189000    126.02324   -11052.374    -9842.777    384.81701     102002.7      46.7237      46.7237      46.7237 
  190000    128.27123   -11061.655   -9830.4811    215.91525     102002.7      46.7237      46.7237      46.7237 
  191000    128.66183   -11022.134   -9787.2106     438.4215     102002.7      46.7237      46.7237      46.7237 
  192000    130.88802   -11013.059   -9756.7684    363.27427     102002.7      46.7237      46.7237      46.7237 
  193000    130.18817   -11076.013   -9826.4397   -125.01379     102002.7      46.7237      46.7237      46.7237 
  194000    130.22566   -11059.982   -9810.0493    170.71563     102002.7      46.7237      46.7237      46.7237 
  195000    130.79323   -11086.717   -9831.3361    394.26095     102002.7      46.7237      46.7237      46.7237 
  196000    129.16987   -11048.081   -9808.2814    154.15764     102002.7      46.7237      46.7237      46.7237 
  197000    129.27229   -11034.856   -9794.0737    416.76153     102002.7      46.7237      46.7237      46.7237 
  198000    130.30451   -11079.626   -9828.9361    136.47455     102002.7      46.7237      46.7237      46.7237 
  199000    129.54232   -11054.569   -9811.1952    390.78533     102002.7      46.7237      46.7237      46.7237 
  200000    130.15898   -11052.367   -9803.0743    593.12164     102002.7      46.7237      46.7237      46.7237 
  201000    131.50424   -11059.101    -9796.896    795.15873     102002.7      46.7237      46.7237      46.7237 
  202000     128.0674   -11060.517   -9831.2995    343.88335     102002.7      46.7237      46.7237      46.7237 
  203000    129.52243   -11056.028   -9812.8445    726.62051     102002.7      46.7237      46.7237      46.7237 
  204000    127.59427   -11018.848   -9794.1717    496.07679     102002.7      46.7237      46.7237      46.7237 
  205000    130.59587   -11013.515   -9760.0284    150.48252     102002.7      46.7237      46.7237      46.7237 
  206000    129.93548   -11025.484   -9778.3364    758.15121     102002.7      46.7237      46.7237      46.7237 
  207000    129.89278    -11061.05   -9814.3123    285.93461     102002.7      46.7237      46.7237      46.7237 
  208000    131.68504   -11059.654   -9795.7139     249.6138     102002.7      46.7237      46.7237      46.7237 
  209000    127.86978   -11055.973   -9828.6521    362.13169     102002.7      46.7237      46.7237      46.7237 
  210000    130.55259   -11046.145   -9793.0739    234.93152     102002.7      46.7237      46.7237      46.7237 
  211000    125.98555   -11071.963   -9862.7272    833.90309     102002.7      46.7237      46.7237      46.7237 
  212000    128.77613   -11051.521   -9815.5011    639.08744     102002.7      46.7237      46.7237      46.7237 
  213000     131.9388   -11027.306   -9760.9301    326.12334     102002.7      46.7237      46.7237      46.7237 
  214000     129.1052   -11049.416   -9810.2375    12.161877     102002.7      46.7237      46.7237      46.7237 
  215000    130.76028   -11089.412   -9834.3472    311.42703     102002.7      46.7237      46.7237      46.7237 
  216000    130.84334   -11012.368   -9756.5066    621.69626     102002.7      46.7237      46.7237      46.7237 
  217000    128.22881   -11059.444   -9828.6768    441.41475     102002.7      46.7237      46.7237      46.7237 
  218000    126.92197   -11074.276   -9856.0528    139.83869     102002.7      46.7237      46.7237      46.7237 
  219000    129.41771    -11063.62   -9821.4415     73.52607     102002.7      46.7237      46.7237      46.7237 
  220000     129.9745   -11068.298   -9820.7759    394.99948     102002.7      46.7237      46.7237      46.7237 
  221000    132.22496   -11061.911   -9792.7886    384.83783     102002.7      46.7237      46.7237      46.7237 
  222000    131.19096   -11063.024   -9803.8261    386.99442     102002.7      46.7237      46.7237      46.7237 
  223000    129.34328   -11060.105   -9818.6417    402.19359     102002.7      46.7237      46.7237      46.7237 
  224000    131.38587    -11029.54    -9768.471    341.72996     102002.7      46.7237      46.7237      46.7237 
  225000    128.65068   -11043.438   -9808.6219    498.64905     102002.7      46.7237      46.7237      46.7237 
  226000    131.91638   -11057.357   -9791.1964    363.59242     102002.7      46.7237      46.7237      46.7237 
  227000    125.98758   -11027.473    -9818.218    311.84661     102002.7      46.7237      46.7237      46.7237 
  228000    128.30054   -11055.819   -9824.3637    440.60857     102002.7      46.7237      46.7237      46.7237 
  229000    133.19811   -11038.112   -9759.6487    597.52988     102002.7      46.7237      46.7237      46.7237 
  230000     129.5702   -11007.198   -9763.5563    212.65111     102002.7      46.7237      46.7237      46.7237 
  231000    127.62301   -11060.826   -9835.8735    387.69673     102002.7      46.7237      46.7237      46.7237 
  232000    131.08019   -11053.215   -9795.0796    568.94418     102002.7      46.7237      46.7237      46.7237 
  233000    131.53764   -11048.187   -9785.6609    209.31279     102002.7      46.7237      46.7237      46.7237 
  234000    129.71561   -11062.635   -9817.5971    211.61879     102002.7      46.7237      46.7237      46.7237 
  235000    128.99812   -11067.611   -9829.4604    278.03137     102002.7      46.7237      46.7237      46.7237 
  236000    133.20287   -11066.288    -9787.779    435.40044     102002.7      46.7237      46.7237      46.7237 
  237000    130.93058   -11040.881   -9784.1821    435.09333     102002.7      46.7237      46.7237      46.7237 
  238000    130.11551   -11049.304   -9800.4287    492.87319     102002.7      46.7237      46.7237      46.7237 
  239000    131.86858    -11068.83   -9803.1282    548.31242     102002.7      46.7237      46.7237      46.7237 
  240000    131.03382   -11049.017   -9791.3267    493.68998     102002.7      46.7237      46.7237      46.7237 
  241000    128.94451   -11040.733   -9803.0969    479.19838     102002.7      46.7237      46.7237      46.7237 
  242000    132.09682   -11040.084   -9772.1912    812.61164     102002.7      46.7237      46.7237      46.7237 
  243000    126.62279    -11050.17   -9834.8179    712.51539     102002.7      46.7237      46.7237      46.7237 
  244000     131.1059   -11064.056   -9805.6742    562.29971     102002.7      46.7237      46.7237      46.7237 
  245000    134.20235   -11047.921    -9759.819    547.69417     102002.7      46.7237      46.7237      46.7237 
  246000    129.57765   -11016.879   -9773.1655    778.66647     102002.7      46.7237      46.7237      46.7237 
  247000    128.55503   -11047.216   -9813.3183    676.52464     102002.7      46.7237      46.7237      46.7237 
  248000    126.52287   -11023.485   -9809.0918    384.42534     102002.7      46.7237      46.7237      46.7237 
  249000    129.09237   -11044.913   -9805.8574    101.78713     102002.7      46.7237      46.7237      46.7237 
  250000    128.57186   -11029.033   -9794.9734    332.25121     102002.7      46.7237      46.7237      46.7237 
  251000    127.15241    -11051.19   -9830.7542    438.61282     102002.7      46.7237      46.7237      46.7237 
  252000    128.12087   -11045.725   -9815.9938    121.64599     102002.7      46.7237      46.7237      46.7237 
  253000    131.73957   -11042.591   -9778.1272    673.38039     102002.7      46.7237      46.7237      46.7237 
  254000    133.12507   -11040.105   -9762.3431    377.34064     102002.7      46.7237      46.7237      46.7237 
  255000    129.41562   -11052.842   -9810.6843    560.13683     102002.7      46.7237      46.7237      46.7237 
  256000    127.88778   -11055.713   -9828.2195    826.54775     102002.7      46.7237      46.7237      46.7237 
  257000    129.49471   -11050.835   -9807.9177    424.18005     102002.7      46.7237      46.7237      46.7237 
  258000    124.62212    -11039.57   -9843.4212    611.99922     102002.7      46.7237      46.7237      46.7237 
  259000    131.00357   -11011.126   -9753.7261    595.63044     102002.7      46.7237      46.7237      46.7237 
  260000    130.15524   -11056.885   -9807.6282    503.23775     102002.7      46.7237      46.7237      46.7237 
  261000    131.72525   -11033.806   -9769.4796    164.81459     102002.7      46.7237      46.7237      46.7237 
  262000    131.55728   -11065.734   -9803.0203    324.63968     102002.7      46.7237      46.7237      46.7237 
  263000    133.24773   -11024.032   -9745.0926    492.79778     102002.7      46.7237      46.7237      46.7237 
  264000    129.37501   -11056.473   -9814.7048    93.103255     102002.7      46.7237      46.7237      46.7237 
  265000    127.93059   -11037.164     -9809.26    442.74103     102002.7      46.7237      46.7237      46.7237 
  266000    128.87466     -11053.3   -9816.3337    252.20381     102002.7      46.7237      46.7237      46.7237 
  267000    128.62704   -11035.116   -9800.5267     341.7444     102002.7      46.7237      46.7237      46.7237 
  268000     128.6782   -11052.558   -9817.4776    20.557378     102002.7      46.7237      46.7237      46.7237 
  269000    128.12778   -11019.005    -9789.208    334.59613     102002.7      46.7237      46.7237      46.7237 
  270000    133.43301     -11086.8    -9806.082    294.04737     102002.7      46.7237      46.7237      46.7237 
  271000    129.09583   -11058.636   -9819.5469    107.87647     102002.7      46.7237      46.7237      46.7237 
  272000     130.8017   -11046.734   -9791.2723    259.00665     102002.7      46.7237      46.7237      46.7237 
  273000    128.99384       -11056     -9817.89    363.74981     102002.7      46.7237      46.7237      46.7237 
  274000    129.63103   -11041.203   -9796.9772    217.96958     102002.7      46.7237      46.7237      46.7237 
  275000    127.68662    -11070.64   -9845.0775    255.84709     102002.7      46.7237      46.7237      46.7237 
  276000    129.98332   -11049.151   -9801.5435    496.29322     102002.7      46.7237      46.7237      46.7237 
  277000    133.23035   -11023.225   -9744.4521    463.97115     102002.7      46.7237      46.7237      46.7237 
  278000    127.47814   -11055.875   -9832.3138    370.77919     102002.7      46.7237      46.7237      46.7237 
  279000    128.27358   -11041.345   -9810.1483    505.05206     102002.7      46.7237      46.7237      46.7237 
  280000    131.43228   -11026.681   -9765.1668    228.10357     102002.7      46.7237      46.7237      46.7237 
  281000    126.74891   -11044.926   -9828.3639    426.43495     102002.7      46.7237      46.7237      46.7237 
  282000    128.94428   -11055.995   -9818.3609    276.65435     102002.7      46.7237      46.7237      46.7237 
  283000    128.30016   -11088.605   -9857.1529    225.69471     102002.7      46.7237      46.7237      46.7237 
  284000    128.38643   -11048.925   -9816.6452    170.95805     102002.7      46.7237      46.7237      46.7237 
  285000     131.5564   -11050.563   -9787.8575    331.50993     102002.7      46.7237      46.7237      46.7237 
  286000    129.26171   -11064.763    -9824.082    442.87943     102002.7      46.7237      46.7237      46.7237 
  287000    128.89114   -11057.677   -9820.5533    253.43016     102002.7      46.7237      46.7237      46.7237 
  288000    131.75632   -11055.172   -9790.5478    271.47577     102002.7      46.7237      46.7237      46.7237 
  289000    124.76749   -11044.724   -9847.1793    239.93659     102002.7      46.7237      46.7237      46.7237 
  290000    130.55318   -11038.764   -9785.6869    274.59548     102002.7      46.7237      46.7237      46.7237 
  291000    131.38028   -11026.982   -9765.9665    511.23741     102002.7      46.7237      46.7237      46.7237 
  292000    128.15374   -11051.138    -9821.092    384.15382     102002.7      46.7237      46.7237      46.7237 
  293000    128.85838   -11040.517   -9803.7074    124.29475     102002.7      46.7237      46.7237      46.7237 
  294000    130.44467   -11074.641   -9822.6063    291.88483     102002.7      46.7237      46.7237      46.7237 
  295000    126.51601    -11036.42   -9822.0927    220.51582     102002.7      46.7237      46.7237      46.7237 
  296000    131.24982   -11043.743   -9783.9801    323.56743     102002.7      46.7237      46.7237      46.7237 
  297000    131.03622   -11075.477   -9817.7641    119.51388     102002.7      46.7237      46.7237      46.7237 
  298000    127.16349   -11051.527   -9830.9849    508.69152     102002.7      46.7237      46.7237      46.7237 
  299000    130.35241   -11061.355   -9810.2056    473.75851     102002.7      46.7237      46.7237      46.7237 
  300000    129.56011   -11039.304   -9795.7588    249.47637     102002.7      46.7237      46.7237      46.7237 
  301000    133.35463   -11025.762   -9745.7967     462.4872     102002.7      46.7237      46.7237      46.7237 
  302000     129.5019   -11031.437   -9788.4505    263.67235     102002.7      46.7237      46.7237      46.7237 
  303000    131.66622   -11030.511   -9766.7514    569.99038     102002.7      46.7237      46.7237      46.7237 
  304000    128.12544   -11063.305     -9833.53      267.918     102002.7      46.7237      46.7237      46.7237 
  305000    127.73502   -11032.611   -9806.5835    410.21669     102002.7      46.7237      46.7237      46.7237 
  306000    128.32516   -11023.429   -9791.7377    548.45563     102002.7      46.7237      46.7237      46.7237 
  307000    129.59023   -11054.153   -9810.3186    135.41573     102002.7      46.7237      46.7237      46.7237 
  308000    128.92584   -11041.664   -9804.2071    476.20219     102002.7      46.7237      46.7237      46.7237 
  309000    130.56697   -11038.967   -9785.7578    655.09424     102002.7      46.7237      46.7237      46.7237 
  310000    129.29804   -11019.448    -9778.418    466.11499     102002.7      46.7237      46.7237      46.7237 
  311000    126.31687   -11031.822   -9819.4062    627.89644     102002.7      46.7237      46.7237      46.7237 
  312000    131.15737    -11043.31   -9784.4338    364.31861     102002.7      46.7237      46.7237      46.7237 
  313000    126.30396   -11077.537   -9865.2453    262.58223     102002.7      46.7237      46.7237      46.7237 
  314000    131.60281   -11026.883   -9763.7318    347.25018     102002.7      46.7237      46.7237      46.7237 
  315000    128.33681   -11052.604   -9820.8008    437.58263     102002.7      46.7237      46.7237      46.7237 
  316000    129.27857   -11029.412   -9788.5691     374.2542     102002.7      46.7237      46.7237      46.7237 
  317000    126.71783   -11063.012   -9846.7476    198.61367     102002.7      46.7237      46.7237      46.7237 
  318000    127.91997   -11030.785   -9802.9828     366.9192     102002.7      46.7237      46.7237      46.7237 
  319000     127.1913   -11045.585   -9824.7767    198.14117     102002.7      46.7237      46.7237      46.7237 
  320000    126.79637   -11071.963    -9854.945    203.63573     102002.7      46.7237      46.7237      46.7237 
  321000    132.37281    -11048.37   -9777.8278    341.04699     102002.7      46.7237      46.7237      46.7237 
  322000    130.42992   -11034.693      -9782.8    95.127859     102002.7      46.7237      46.7237      46.7237 
  323000    128.79694   -11039.217   -9802.9968    317.05474     102002.7      46.7237      46.7237      46.7237 
  324000     132.7462   -11034.853   -9760.7276    670.69011     102002.7      46.7237      46.7237      46.7237 
  325000     126.0183   -11025.065   -9815.5148    287.57241     102002.7      46.7237      46.7237      46.7237 
  326000    129.97252   -11046.637   -9799.1338    350.02904     102002.7      46.7237      46.7237      46.7237 
  327000    131.58072   -11028.349   -9765.4103    564.35753     102002.7      46.7237      46.7237      46.7237 
  328000    128.53064   -11069.693   -9836.0288    317.97345     102002.7      46.7237      46.7237      46.7237 
  329000    130.66309   -11007.933   -9753.8019    617.31994     102002.7      46.7237      46.7237      46.7237 
  330000    127.70053   -11059.384    -9833.688    290.33161     102002.7      46.7237      46.7237      46.7237 
  331000    128.76525   -11021.602   -9785.6861    452.87395     102002.7      46.7237      46.7237      46.7237 
  332000    129.88033   -11044.157   -9797.5383    546.93377     102002.7      46.7237      46.7237      46.7237 
  333000    130.52584   -11055.412   -9802.5974    194.94959     102002.7      46.7237      46.7237      46.7237 
  334000     131.8569   -11034.522   -9768.9322    271.88746     102002.7      46.7237      46.7237      46.7237 
  335000    128.25621   -11081.257   -9850.2271    402.73039     102002.7      46.7237      46.7237      46.7237 
  336000    128.32882   -11019.948   -9788.2215    634.80366     102002.7      46.7237      46.7237      46.7237 
  337000    127.60468   -11022.755   -9797.9784     684.7537     102002.7      46.7237      46.7237      46.7237 
  338000    130.64024   -11036.602   -9782.6899    465.27166     102002.7      46.7237      46.7237      46.7237 
  339000    131.33528   -11048.641    -9788.058    285.57362     102002.7      46.7237      46.7237      46.7237 
  340000     128.5461   -11070.892   -9837.0795    345.91599     102002.7      46.7237      46.7237      46.7237 
  341000    129.98007   -11090.316   -9842.7405    701.34151     102002.7      46.7237      46.7237      46.7237 
  342000    131.68222   -11068.948   -9805.0351    559.24963     102002.7      46.7237      46.7237      46.7237 
  343000    131.32881    -11069.95   -9809.4292    337.46351     102002.7      46.7237      46.7237      46.7237 
  344000    127.83114   -11054.722   -9827.7724    187.30973     102002.7      46.7237      46.7237      46.7237 
  345000    132.32996   -11053.948   -9783.8177    120.11329     102002.7      46.7237      46.7237      46.7237 
  346000    128.59602   -11070.404   -9836.1125    468.63294     102002.7      46.7237      46.7237      46.7237 
  347000    132.79079   -11069.901   -9795.3476    439.62122     102002.7      46.7237      46.7237      46.7237 
  348000    131.78194   -11049.317   -9784.4468    568.04658     102002.7      46.7237      46.7237      46.7237 
  349000    128.92789   -11038.656   -9801.1793    194.17922     102002.7      46.7237      46.7237      46.7237 
  350000    133.01278   -11031.083   -9754.3983     563.4633     102002.7      46.7237      46.7237      46.7237 
  351000    129.61729   -11058.769   -9814.6757    685.31196     102002.7      46.7237      46.7237      46.7237 
  352000    133.06939   -11022.105   -9744.8769    180.00343     102002.7      46.7237      46.7237      46.7237 
  353000    132.11997   -11069.064   -9800.9492    248.53289     102002.7      46.7237      46.7237      46.7237 
  354000    131.66742   -11093.567   -9829.7955    198.20808     102002.7      46.7237      46.7237      46.7237 
  355000    130.51329   -11030.472   -9777.7784    557.98819     102002.7      46.7237      46.7237      46.7237 
  356000    127.46612   -11046.963   -9823.5169    307.32791     102002.7      46.7237      46.7237      46.7237 
  357000    131.11512   -11044.004   -9785.5342    262.35129     102002.7      46.7237      46.7237      46.7237 
  358000    131.14805   -11058.491   -9799.7045     288.2144     102002.7      46.7237      46.7237      46.7237 
  359000    127.87443   -11058.987   -9831.6216    121.00626     102002.7      46.7237      46.7237      46.7237 
  360000    129.70852    -11056.13    -9811.161     126.1735     102002.7      46.7237      46.7237      46.7237 
  361000    132.22769   -11060.355   -9791.2064    589.60856     102002.7      46.7237      46.7237      46.7237 
  362000     131.5365   -11090.206   -9827.6913    321.22117     102002.7      46.7237      46.7237      46.7237 
  363000    130.74992   -11056.456   -9801.4911    615.26937     102002.7      46.7237      46.7237      46.7237 
  364000     130.0989   -11073.784    -9825.068     313.6995     102002.7      46.7237      46.7237      46.7237 
  365000    132.08441   -11032.118   -9764.3438    307.37301     102002.7      46.7237      46.7237      46.7237 
  366000    132.22762   -11048.685   -9779.5372    407.86774     102002.7      46.7237      46.7237      46.7237 
  367000    127.95345   -11030.879    -9802.755    485.09932     102002.7      46.7237      46.7237      46.7237 
  368000    128.22372   -11015.161   -9784.4429    157.98283     102002.7      46.7237      46.7237      46.7237 
  369000    127.02576   -11041.576   -9822.3566    308.26845     102002.7      46.7237      46.7237      46.7237 
  370000    127.92838   -11033.647   -9805.7633     285.8422     102002.7      46.7237      46.7237      46.7237 
  371000    130.30431    -11025.91   -9775.2221    407.61052     102002.7      46.7237      46.7237      46.7237 
  372000     130.1842   -11066.376   -9816.8407    348.46281     102002.7      46.7237      46.7237      46.7237 
  373000    129.19076   -11042.814    -9802.814    372.05672     102002.7      46.7237      46.7237      46.7237 
  374000    127.64269   -11078.765   -9853.6241    102.26895     102002.7      46.7237      46.7237      46.7237 
  375000    130.80083   -11053.671   -9798.2174    271.10777     102002.7      46.7237      46.7237      46.7237 
  376000    129.82399   -11054.259   -9808.1816    538.91902     102002.7      46.7237      46.7237      46.7237 
  377000    132.83791   -11042.184   -9767.1776    454.60432     102002.7      46.7237      46.7237      46.7237 
  378000    130.63924   -11063.702   -9809.7989    381.73131     102002.7      46.7237      46.7237      46.7237 
  379000    130.52577   -11044.034   -9791.2209    798.90945     102002.7      46.7237      46.7237      46.7237 
  380000    130.44841   -11071.873   -9819.8016    688.19295     102002.7      46.7237      46.7237      46.7237 
  381000     127.6643   -11077.002   -9851.6532    415.20891     102002.7      46.7237      46.7237      46.7237 
  382000    129.39093   -11062.578   -9820.6567    391.44658     102002.7      46.7237      46.7237      46.7237 
  383000    131.89788   -11071.374   -9805.3902    195.17117     102002.7      46.7237      46.7237      46.7237 
  384000    129.58659   -11038.892   -9795.0926    538.70854     102002.7      46.7237      46.7237      46.7237 
  385000    126.59935   -11044.276   -9829.1492    399.40375     102002.7      46.7237      46.7237      46.7237 
  386000    132.24012   -11057.284   -9788.0154    169.08442     102002.7      46.7237      46.7237      46.7237 
  387000    130.28016   -11028.894   -9778.4384    462.46316     102002.7      46.7237      46.7237      46.7237 
  388000    128.99336   -11044.723   -9806.6178     240.9153     102002.7      46.7237      46.7237      46.7237 
  389000    132.75177   -11041.148   -9766.9687    33.184291     102002.7      46.7237      46.7237      46.7237 
  390000     130.6545   -11072.343   -9818.2943    505.06804     102002.7      46.7237      46.7237      46.7237 
  391000    129.69019   -11049.858   -9805.0643    316.43496     102002.7      46.7237      46.7237      46.7237 
  392000    129.34959   -11064.157   -9822.6328    389.62165     102002.7      46.7237      46.7237      46.7237 
  393000    131.30281   -11098.587   -9838.3158    932.10011     102002.7      46.7237      46.7237      46.7237 
  394000    129.44625   -11061.356   -9818.9039    502.90522     102002.7      46.7237      46.7237      46.7237 
  395000    128.80521    -11060.01   -9823.7108    689.09936     102002.7      46.7237      46.7237      46.7237 
  396000    131.11646   -10998.087   -9739.6036    706.37001     102002.7      46.7237      46.7237      46.7237 
  397000    129.55641   -11048.892   -9805.3826    414.05497     102002.7      46.7237      46.7237      46.7237 
  398000    129.78007   -11045.935   -9800.2786    432.01575     102002.7      46.7237      46.7237      46.7237 
  399000    129.96771   -11037.467     -9790.01    554.94087     102002.7      46.7237      46.7237      46.7237 
  400000    128.39283   -11072.195   -9839.8541    316.82623     102002.7      46.7237      46.7237      46.7237 
  401000    130.97399   -11064.309   -9807.1931    487.05283     102002.7      46.7237      46.7237      46.7237 
  402000    133.20743   -11039.114   -9760.5613     433.5272     102002.7      46.7237      46.7237      46.7237 
  403000    130.80348   -11073.745   -9818.2663    529.56817     102002.7      46.7237      46.7237      46.7237 
  404000    133.00482   -11055.385   -9778.7769    800.59803     102002.7      46.7237      46.7237      46.7237 
  405000    130.71775   -11057.188   -9802.5322    355.39065     102002.7      46.7237      46.7237      46.7237 
  406000    132.06196   -11058.633   -9791.0747    658.36249     102002.7      46.7237      46.7237      46.7237 
  407000     132.3966   -11041.419   -9770.6485    571.22065     102002.7      46.7237      46.7237      46.7237 
  408000      128.722   -11069.193    -9833.692    446.56595     102002.7      46.7237      46.7237      46.7237 
  409000     133.3841   -11062.868   -9782.6193    451.99524     102002.7      46.7237      46.7237      46.7237 
  410000    130.24362   -11019.702   -9769.5971    666.21618     102002.7      46.7237      46.7237      46.7237 
  411000    130.13655   -11026.541   -9777.4635     509.0563     102002.7      46.7237      46.7237      46.7237 
  412000    129.83447   -11058.196    -9812.018     632.9858     102002.7      46.7237      46.7237      46.7237 
  413000    127.64537   -11042.353   -9817.1864    495.14003     102002.7      46.7237      46.7237      46.7237 
  414000    127.65733   -11065.503    -9840.221    694.79159     102002.7      46.7237      46.7237      46.7237 
  415000    133.50487   -11040.594   -9759.1861    673.72296     102002.7      46.7237      46.7237      46.7237 
  416000    127.50366   -11096.573   -9872.7666    390.94087     102002.7      46.7237      46.7237      46.7237 
  417000    128.21491   -11068.917   -9838.2832    454.33744     102002.7      46.7237      46.7237      46.7237 
  418000    129.95352   -11032.285   -9784.9641    662.94901     102002.7      46.7237      46.7237      46.7237 
  419000    126.78346   -11035.808   -9818.9143    297.50303     102002.7      46.7237      46.7237      46.7237 
  420000    130.86657   -11024.686    -9768.601    418.68823     102002.7      46.7237      46.7237      46.7237 
  421000    128.03598    -11056.56   -9827.6436    194.52111     102002.7      46.7237      46.7237      46.7237 
  422000    129.72252   -11040.772   -9795.6685    154.37727     102002.7      46.7237      46.7237      46.7237 
  423000    129.89372   -11066.651   -9819.9042    467.78872     102002.7      46.7237      46.7237      46.7237 
  424000    130.21111   -11055.041   -9805.2474    312.11532     102002.7      46.7237      46.7237      46.7237 
  425000    127.98516   -11035.039   -9806.6112    196.27994     102002.7      46.7237      46.7237      46.7237 
  426000    129.96747   -11112.949   -9865.4943    148.97612     102002.7      46.7237      46.7237      46.7237 
  427000    128.76607   -11046.331   -9810.4078     132.7028     102002.7      46.7237      46.7237      46.7237 
  428000    132.19601   -11067.552   -9798.7071    396.57559     102002.7      46.7237      46.7237      46.7237 
  429000    130.74517   -11053.464    -9798.545     205.1201     102002.7      46.7237      46.7237      46.7237 
  430000    131.30185   -11055.724    -9795.462    235.65916     102002.7      46.7237      46.7237      46.7237 
  431000    132.07878    -11052.67   -9784.9506    116.81522     102002.7      46.7237      46.7237      46.7237 
  432000    128.73262   -11039.872   -9804.2698    626.58334     102002.7      46.7237      46.7237      46.7237 
  433000    131.98212   -11071.163   -9804.3707    512.47993     102002.7      46.7237      46.7237      46.7237 
  434000     128.7016    -11024.75   -9789.4456    464.69581     102002.7      46.7237      46.7237      46.7237 
  435000    130.54457   -11076.823   -9823.8288    713.10131     102002.7      46.7237      46.7237      46.7237 
  436000     134.2596   -11066.654    -9778.002    308.19445     102002.7      46.7237      46.7237      46.7237 
  437000    129.90584    -11040.32   -9793.4563    460.54578     102002.7      46.7237      46.7237      46.7237 
  438000    129.47691   -11068.633   -9825.8871    591.50495     102002.7      46.7237      46.7237      46.7237 
  439000    126.69242   -11070.808   -9854.7873    170.25008     102002.7      46.7237      46.7237      46.7237 
  440000    129.84938   -11028.028   -9781.7068    389.13544     102002.7      46.7237      46.7237      46.7237 
  441000    129.86303   -11046.048   -9799.5958    610.75204     102002.7      46.7237      46.7237      46.7237 
  442000     130.1365   -11039.948   -9790.8708    447.06302     102002.7      46.7237      46.7237      46.7237 
  443000    130.15151   -11041.406   -9792.1848    532.75071     102002.7      46.7237      46.7237      46.7237 
  444000     130.1897   -11053.957   -9804.3691    627.68307     102002.7      46.7237      46.7237      46.7237 
  445000    131.25848   -11055.638   -9795.7919    514.97322     102002.7      46.7237      46.7237      46.7237 
  446000     130.4818   -11022.856   -9770.4645    309.15791     102002.7      46.7237      46.7237      46.7237 
  447000    130.49246   -11028.373   -9775.8792    338.73045     102002.7      46.7237      46.7237      46.7237 
  448000    130.21666   -11049.151   -9799.3044    445.70992     102002.7      46.7237      46.7237      46.7237 
  449000    128.14067   -11044.674   -9814.7532    745.87547     102002.7      46.7237      46.7237      46.7237 
  450000    130.54042   -11049.546   -9796.5923    590.59151     102002.7      46.7237      46.7237      46.7237 
  451000    130.73088   -11038.418   -9783.6362    427.28019     102002.7      46.7237      46.7237      46.7237 
  452000    134.16761   -11064.217   -9776.4482    328.32166     102002.7      46.7237      46.7237      46.7237 
  453000    130.20557   -11011.062   -9761.3217    324.91713     102002.7      46.7237      46.7237      46.7237 
  454000    132.99986   -11046.612   -9770.0517    228.48971     102002.7      46.7237      46.7237      46.7237 
  455000    130.68745   -11030.097   -9775.7314    446.16088     102002.7      46.7237      46.7237      46.7237 
  456000    130.92844    -11029.29   -9772.6114    723.86129     102002.7      46.7237      46.7237      46.7237 
  457000    128.17566   -11041.704   -9811.4475    300.86774     102002.7      46.7237      46.7237      46.7237 
  458000    129.61629   -11017.851   -9773.7672    581.78056     102002.7      46.7237      46.7237      46.7237 
  459000    130.56631   -11037.121   -9783.9183    642.82706     102002.7      46.7237      46.7237      46.7237 
  460000    130.09406   -11014.581   -9765.9114    671.55531     102002.7      46.7237      46.7237      46.7237 
  461000    128.83128   -11048.713   -9812.1634    500.52624     102002.7      46.7237      46.7237      46.7237 
  462000    125.53819   -11040.259   -9835.3171    923.24803     102002.7      46.7237      46.7237      46.7237 
  463000    125.93973   -11045.458   -9836.6618    598.54685     102002.7      46.7237      46.7237      46.7237 
  464000    130.96835    -11041.39   -9784.3286    648.85234     102002.7      46.7237      46.7237      46.7237 
  465000    127.60959   -11029.984   -9805.1603    517.22225     102002.7      46.7237      46.7237      46.7237 
  466000     130.7964    -11044.33   -9788.9186    278.55396     102002.7      46.7237      46.7237      46.7237 
  467000    132.27425   -11032.526   -9762.9298    663.74915     102002.7      46.7237      46.7237      46.7237 
  468000    131.12277   -11079.883   -9821.3394    590.83144     102002.7      46.7237      46.7237      46.7237 
  469000    131.39241   -11066.407   -9805.2748    428.77979     102002.7      46.7237      46.7237      46.7237 
  470000    128.99923   -11097.537    -9859.376     328.2318     102002.7      46.7237      46.7237      46.7237 
  471000    128.65629    -11037.23   -9802.3604    695.44944     102002.7      46.7237      46.7237      46.7237 
  472000    131.34117   -11069.901   -9809.2611    346.72566     102002.7      46.7237      46.7237      46.7237 
  473000    131.29074   -11034.742   -9774.5863    343.72247     102002.7      46.7237      46.7237      46.7237 
  474000    129.33071    -11081.81   -9840.4667    267.94823     102002.7      46.7237      46.7237      46.7237 
  475000    129.51123   -11034.591   -9791.5157    424.25882     102002.7      46.7237      46.7237      46.7237 
  476000      131.859   -11040.397   -9774.7869    698.03438     102002.7      46.7237      46.7237      46.7237 
  477000    130.07468   -11040.302   -9791.8179    331.50366     102002.7      46.7237      46.7237      46.7237 
  478000    131.00092   -11063.166   -9805.7923    436.20076     102002.7      46.7237      46.7237      46.7237 
  479000    132.61387    -11091.23   -9818.3743    315.53553     102002.7      46.7237      46.7237      46.7237 
  480000    129.86309   -11041.148   -9794.6954    723.37124     102002.7      46.7237      46.7237      46.7237 
  481000    128.80825    -11033.29   -9796.9617    670.59045     102002.7      46.7237      46.7237      46.7237 
  482000    131.93955   -11034.837   -9768.4542    709.65619     102002.7      46.7237      46.7237      46.7237 
  483000     130.2568   -11055.762   -9805.5304    441.22956     102002.7      46.7237      46.7237      46.7237 
  484000    131.38011   -11033.171   -9772.1578    625.53859     102002.7      46.7237      46.7237      46.7237 
  485000    128.86411   -11071.117   -9834.2523    400.78145     102002.7      46.7237      46.7237      46.7237 
  486000    132.92832   -11080.302   -9804.4283    417.12194     102002.7      46.7237      46.7237      46.7237 
  487000    128.23659   -11080.469   -9849.6279    631.10342     102002.7      46.7237      46.7237      46.7237 
  488000    131.66008   -11053.015    -9789.314    638.44243     102002.7      46.7237      46.7237      46.7237 
  489000    133.98367    -11066.37   -9780.3667    554.99729     102002.7      46.7237      46.7237      46.7237 
  490000    129.93861   -11050.266    -9803.088    191.50062     102002.7      46.7237      46.7237      46.7237 
  491000     129.4233   -11038.158   -9795.9264    305.78758     102002.7      46.7237      46.7237      46.7237 
  492000    128.05735   -11037.774    -9808.653    489.77126     102002.7      46.7237      46.7237      46.7237 
  493000    129.97359   -11054.906   -9807.3925    555.03837     102002.7      46.7237      46.7237      46.7237 
  494000    127.52788   -11036.814   -9812.7749    530.92239     102002.7      46.7237      46.7237      46.7237 
  495000    128.73349   -11055.858   -9820.2471    249.64841     102002.7      46.7237      46.7237      46.7237 
  496000    128.10618   -11017.887   -9788.2975    639.94629     102002.7      46.7237      46.7237      46.7237 
  497000    129.74125    -11018.54   -9773.2564    460.03274     102002.7      46.7237      46.7237      46.7237 
  498000    130.33168   -11060.453   -9809.5022     654.7139     102002.7      46.7237      46.7237      46.7237 
  499000    127.23537   -11017.031   -9795.7994    449.14149     102002.7      46.7237      46.7237      46.7237 
  500000    130.67913   -11043.676   -9789.3901    579.46148     102002.7      46.7237      46.7237      46.7237 
  500500    128.63573   -11020.584   -9785.9112    669.99535     102002.7      46.7237      46.7237      46.7237 
Loop time of 1945.55 on 16 procs for 500000 steps with 3221 atoms

Performance: 22.204 ns/day, 1.081 hours/ns, 256.996 timesteps/s
99.8% CPU use with 16 MPI tasks x no OpenMP threads

MPI task timing breakdown:
Section |  min time  |  avg time  |  max time  |%varavg| %total
---------------------------------------------------------------
Pair    | 836.35     | 1174       | 1539       | 544.4 | 60.34
Bond    | 142.32     | 174.83     | 211.94     | 172.5 |  8.99
Neigh   | 18.559     | 18.648     | 18.74      |   1.8 |  0.96
Comm    | 163        | 560.69     | 929.51     | 859.7 | 28.82
Output  | 0.020978   | 0.021645   | 0.025817   |   0.8 |  0.00
Modify  | 9.0183     | 10.513     | 11.796     |  32.6 |  0.54
Other   |            | 6.881      |            |       |  0.35

Nlocal:    201.312 ave 226 max 175 min
Histogram: 3 0 0 3 2 2 1 1 2 2
Nghost:    4049.44 ave 4083 max 4017 min
Histogram: 1 0 2 4 2 2 2 1 1 1
Neighs:    11463.8 ave 16653 max 6058 min
Histogram: 2 1 2 2 1 1 2 2 0 3

Total # of neighbors = 183420
Ave neighs/atom = 56.945
Ave special neighs/atom = 3.57653
Neighbor list builds = 5120
Dangerous builds = 0
Neighbor list info ...
  update every 1 steps, delay 10 steps, check yes
  max neighbors/atom: 2000, page size: 100000
  master list distance cutoff = 16
  ghost atom cutoff = 16
  binsize = 8, bins = 6 6 6
  3 neighbor lists, perpetual/occasional/extra = 3 0 0
  (1) pair buck6d/coul/gauss/dsf, perpetual, skip from (3)
      attributes: half, newton on
      pair build: skip
      stencil: none
      bin: none
  (2) pair lj/cut, perpetual, skip from (3)
      attributes: half, newton on
      pair build: skip
      stencil: none
      bin: none
  (3) neighbor class addition, perpetual
      attributes: half, newton on
      pair build: half/bin/newton
      stencil: half/bin/3d/newton
      bin: standard
Setting up Verlet run ...
  Unit style    : real
  Current step  : 500500
  Time step     : 1
WARNING: Inconsistent image flags (../domain.cpp:786)
Per MPI rank memory allocation (min/avg/max) = 22.98 | 23.34 | 23.44 Mbytes
Step Time TotEng KinEng PotEng E_mol E_pair Temp Pxx Pyy Pzz Pxy Pxz Pyz Cella Cellb Cellc CellAlpha CellBeta CellGamma Volume Press 
  500500       500000   -9785.9112    1234.6725   -11020.584    4370.5101   -15391.094    128.63573    716.69264     536.5552    756.73822     181.2745   -375.47267    236.25274      46.7237      46.7237      46.7237           90           90           90     102002.7    669.99535 
  501000       500500   -9807.1511    1231.5935   -11038.745    4363.1133   -15401.858    128.31494    602.87102    349.31904    511.26593   -348.14216   -42.686295    266.34404      46.7237      46.7237      46.7237           90           90           90     102002.7    487.81866 
  502000       501500   -9791.2314    1245.2099   -11036.441    4367.1863   -15403.628    129.73357    513.98485    348.02941    228.49518   -49.881963   -19.805822    6.9807408      46.7237      46.7237      46.7237           90           90           90     102002.7    363.50315 
  503000       502500   -9788.8233    1260.2104   -11049.034    4354.6068   -15403.641    131.29643  -0.91070577    753.68586     611.3452   -96.136716    132.71369   -94.724548      46.7237      46.7237      46.7237           90           90           90     102002.7    454.70678 
  504000       503500   -9762.4227    1267.8674    -11030.29    4375.1385   -15405.429    132.09417    490.72207    715.28455    182.90413   -226.69851    67.826398    46.437868      46.7237      46.7237      46.7237           90           90           90     102002.7    462.97025 
  505000       504500   -9818.2532    1235.9204   -11054.174    4357.6593   -15411.833    128.76574   -39.480122    350.97345    342.60995    237.44463    15.910758     220.7473      46.7237      46.7237      46.7237           90           90           90     102002.7    218.03443 
  506000       505500   -9809.2547    1254.1845   -11063.439     4341.902   -15405.341     130.6686    852.87237    743.73286    358.83484    24.454749    8.8826974    84.273164      46.7237      46.7237      46.7237           90           90           90     102002.7    651.81336 
  507000       506500   -9773.4469    1259.7395   -11033.186    4337.3539    -15370.54    131.24736    341.54241    1044.3609    541.43817     69.85052   -129.84007   -46.298718      46.7237      46.7237      46.7237           90           90           90     102002.7    642.44715 
  508000       507500   -9819.3107    1237.5876   -11056.898    4351.6297   -15408.528    128.93944    225.12498    567.04456    245.99531   -180.30392    187.60281   -112.07414      46.7237      46.7237      46.7237           90           90           90     102002.7    346.05495 
  509000       508500   -9764.5742     1242.698   -11007.272    4373.6214   -15380.894    129.47187   -97.774577    691.12307    267.90955   -52.235084   -64.627537    -139.1488      46.7237      46.7237      46.7237           90           90           90     102002.7    287.08602 
  510000       509500    -9818.157    1237.5426     -11055.7    4351.8555   -15407.555    128.93475   -94.229873    716.20091    171.83557   -27.067105    -113.3186    274.63467      46.7237      46.7237      46.7237           90           90           90     102002.7     264.6022 
  511000       510500    -9846.842    1229.2099   -11076.052    4351.4364   -15427.488     128.0666    234.68631    124.52858    487.85787    298.25234   -39.536056    14.750436      46.7237      46.7237      46.7237           90           90           90     102002.7    282.35759 
  512000       511500   -9789.8312    1250.4065   -11040.238    4352.4737   -15392.711    130.27499    476.02416    917.05269    417.98444   -257.34987   -173.78237    -108.1813      46.7237      46.7237      46.7237           90           90           90     102002.7     603.6871 
  513000       512500   -9812.6209    1273.5524   -11086.173    4335.1621   -15421.335    132.68647    761.39325    693.18702    562.67859    219.49065     57.84599    182.32782      46.7237      46.7237      46.7237           90           90           90     102002.7    672.41962 
  514000       513500   -9753.8035    1258.5026   -11012.306    4360.1067   -15372.413    131.11849    485.01505    724.42197    351.03887   -97.369619   -376.44128    24.785235      46.7237      46.7237      46.7237           90           90           90     102002.7    520.15863 
  515000       514500    -9803.975    1228.2913   -11032.266    4387.7734    -15420.04     127.9709    775.72488    701.51326    360.61589    108.97227    144.89358   -321.60671      46.7237      46.7237      46.7237           90           90           90     102002.7    612.61801 
  516000       515500   -9801.4516    1271.7138   -11073.165    4344.3848    -15417.55    132.49492    547.21336   -1.0417044    171.36896   0.59813171   -84.205969    -76.31767      46.7237      46.7237      46.7237           90           90           90     102002.7    239.18021 
  517000       516500   -9790.8392    1246.7786   -11037.618    4347.6185   -15385.236    129.89702    474.70181    413.24609    310.36697    12.470541   -38.403207    405.70311      46.7237      46.7237      46.7237           90           90           90     102002.7    399.43829 
  518000       517500   -9745.0679    1271.0739   -11016.142    4375.4161   -15391.558    132.42824    933.09371    529.15625    399.89963   -109.86321    27.513001   -194.86509      46.7237      46.7237      46.7237           90           90           90     102002.7    620.71653 
  519000       518500   -9778.1074     1247.066   -11025.173     4362.145   -15387.318    129.92695    590.78658    383.38554    42.631489    142.57519    144.17794    95.396149      46.7237      46.7237      46.7237           90           90           90     102002.7    338.93454 
  520000       519500   -9794.9189    1259.7928   -11054.712    4353.3668   -15408.078    131.25291    415.57933    654.60286    491.62521   -19.119796   -184.46642    39.997503      46.7237      46.7237      46.7237           90           90           90     102002.7    520.60246 
  521000       520500   -9792.0106    1254.3245   -11046.335    4327.2302   -15373.565    130.68319    794.02023    843.87976    592.83791   -79.470733    10.874668    198.43725      46.7237      46.7237      46.7237           90           90           90     102002.7     743.5793 
  522000       521500   -9785.0279    1264.0427   -11049.071    4376.3718   -15425.442    131.69569    269.84929    294.90234    211.42256   -251.15006   -30.712225   -47.853532      46.7237      46.7237      46.7237           90           90           90     102002.7    258.72473 
  523000       522500   -9809.3953    1249.4089   -11058.804    4338.5243   -15397.329    130.17106    309.64177    637.53021    440.73289    170.79609    73.692925   -198.65003      46.7237      46.7237      46.7237           90           90           90     102002.7    462.63496 
  524000       523500   -9774.2717     1264.594   -11038.866    4361.8461   -15400.712    131.75313    199.80197    374.20167    699.99041   -28.196052    102.34346     88.16684      46.7237      46.7237      46.7237           90           90           90     102002.7    424.66468 
  525000       524500   -9771.9713    1253.7781   -11025.749    4373.3015   -15399.051    130.62627    521.48108    144.09562    533.59398    59.647637   -246.61016    347.14511      46.7237      46.7237      46.7237           90           90           90     102002.7    399.72356 
  526000       525500   -9839.3648    1269.2408   -11108.606    4344.1655   -15452.771    132.23726    424.08649    576.45154   -160.72301    14.714291   -109.04366    114.73125      46.7237      46.7237      46.7237           90           90           90     102002.7    279.93834 
  527000       526500   -9766.4298    1255.9572   -11022.387    4378.1774   -15400.564    130.85329   -158.85586    215.18917    618.60374   -144.95824   -101.51284    161.72339      46.7237      46.7237      46.7237           90           90           90     102002.7    224.97901 
  528000       527500   -9780.9707    1279.8946   -11060.865    4317.1387   -15378.004    133.34724    602.86929     586.2254    546.11617   -59.054892      26.0923    67.162232      46.7237      46.7237      46.7237           90           90           90     102002.7    578.40362 
  529000       528500   -9809.2315     1232.249   -11041.481    4359.1973   -15400.678    128.38324    615.34577    923.97943    124.51685   -381.35831    196.62149   -141.37938      46.7237      46.7237      46.7237           90           90           90     102002.7    554.61402 
  530000       529500   -9830.4012    1218.7497   -11049.151    4344.4815   -15393.633     126.9768    446.98335    237.73783    556.70795    66.131279    -237.4111    290.74366      46.7237      46.7237      46.7237           90           90           90     102002.7    413.80971 
  531000       530500   -9779.0235    1247.2845   -11026.308    4351.1302   -15377.438    129.94972    681.63329    441.17605    519.29553   -117.45108    28.889898   -67.062495      46.7237      46.7237      46.7237           90           90           90     102002.7    547.36829 
  532000       531500   -9840.4831    1222.8202   -11063.303    4371.8733   -15435.177    127.40088    266.48633    314.69843     381.3494   -112.24011   -104.19227    149.32743      46.7237      46.7237      46.7237           90           90           90     102002.7    320.84472 
  533000       532500   -9799.1891    1245.8859   -11045.075    4347.3841   -15392.459    129.80401   -53.014416    712.71132     313.2151   -38.367244    189.10468   -63.462043      46.7237      46.7237      46.7237           90           90           90     102002.7      324.304 
  534000       533500   -9799.3949    1253.3018   -11052.697    4348.2302   -15400.927    130.57664    119.31978    479.92988    275.38538    9.0451404    40.949046   -107.68835      46.7237      46.7237      46.7237           90           90           90     102002.7    291.54501 
  535000       534500   -9778.3417    1222.0417   -11000.383    4367.3983   -15367.782    127.31978    163.37345    745.86444    1037.7262    -243.2573   -154.36068    400.73406      46.7237      46.7237      46.7237           90           90           90     102002.7    648.98804 
  536000       535500   -9837.0108     1235.893   -11072.904    4338.3851   -15411.289    128.76288    162.22249    954.51286    344.14041   -30.754723   -91.850026   -173.89866      46.7237      46.7237      46.7237           90           90           90     102002.7    486.95859 
  537000       536500   -9798.4097    1238.6394   -11037.049    4365.4736   -15402.523    129.04902    643.81548    633.49105    385.21755    181.86409    201.86646     -122.666      46.7237      46.7237      46.7237           90           90           90     102002.7    554.17469 
  538000       537500   -9784.6095    1274.4769   -11059.086    4330.1595   -15389.246    132.78279    1054.9443    236.96531    385.40046   -142.61254   -50.866155    79.208378      46.7237      46.7237      46.7237           90           90           90     102002.7    559.10337 
  539000       538500   -9773.5589    1260.7403   -11034.299    4359.4453   -15393.745    131.35163    472.80036    315.29426     625.1097   -9.7736007    145.72387   -162.13696      46.7237      46.7237      46.7237           90           90           90     102002.7    471.06811 
  540000       539500   -9814.8814    1230.7347   -11045.616    4354.1001   -15399.716    128.22547    483.58431    573.55853    1053.3923   -63.995259    437.94526    80.160187      46.7237      46.7237      46.7237           90           90           90     102002.7    703.51171 
  541000       540500   -9846.2917    1204.3129   -11050.605    4361.6814   -15412.286    125.47268    615.12386    253.22693    486.90491    201.04947     135.7769   -28.452533      46.7237      46.7237      46.7237           90           90           90     102002.7     451.7519 
  542000       541500   -9796.7825    1220.9842   -11017.767    4358.7986   -15376.565    127.20959    304.44661    557.55987    215.96055    41.076341    271.99003     198.6547      46.7237      46.7237      46.7237           90           90           90     102002.7    359.32234 
  543000       542500   -9806.2255    1243.3695   -11049.595    4356.7431   -15406.338    129.54183     485.2057    527.53058    504.88231    -34.80313   -197.64759   -42.222696      46.7237      46.7237      46.7237           90           90           90     102002.7    505.87287 
  544000       543500   -9741.3056    1276.3282   -11017.634    4373.9374   -15391.571    132.97567    516.85722    259.98466    428.84979    39.049304    132.43267   -42.291443      46.7237      46.7237      46.7237           90           90           90     102002.7    401.89722 
  545000       544500   -9765.3141    1278.4363    -11043.75    4347.1586   -15390.909     133.1953      647.724     433.0119     410.9354   -178.41162   -74.908167   -95.963721      46.7237      46.7237      46.7237           90           90           90     102002.7    497.22377 
  546000       545500   -9795.1767    1236.6691   -11031.846    4372.5683   -15404.414    128.84375    252.15553   -17.259955    330.18062   -55.702789   -2.5308545    114.96833      46.7237      46.7237      46.7237           90           90           90     102002.7    188.35873 
  547000       546500   -9806.9823    1229.7912   -11036.773    4354.3793   -15391.153    128.12716    462.60811    433.30674    228.15353    84.798036    119.70873   -171.14576      46.7237      46.7237      46.7237           90           90           90     102002.7    374.68946 
  548000       547500   -9772.2212    1262.0456   -11034.267    4365.5885   -15399.855    131.48762     586.5495    401.01872    1129.4935    63.721855   -32.563868    165.81968      46.7237      46.7237      46.7237           90           90           90     102002.7    705.68724 
  549000       548500   -9785.0303    1244.0294    -11029.06    4369.6571   -15398.717    129.61058    369.58003    708.75344     585.8849   -111.28785   -51.167575   -147.08487      46.7237      46.7237      46.7237           90           90           90     102002.7    554.73945 
  550000       549500   -9819.4487    1231.3204   -11050.769    4351.2789   -15402.048    128.28648    921.86422    591.87735    365.47954   -74.729065   -373.94848   -182.53337      46.7237      46.7237      46.7237           90           90           90     102002.7    626.40703 
  551000       550500   -9852.5949    1223.2566   -11075.852     4356.568    -15432.42    127.44635   -311.80734    264.85321    303.64487   -124.74213    21.190222    96.063629      46.7237      46.7237      46.7237           90           90           90     102002.7    85.563577 
  552000       551500   -9788.2388    1231.8931   -11020.132    4394.9627   -15415.095    128.34615    374.85137    173.45068     99.22585   -192.29903    135.17852    19.939912      46.7237      46.7237      46.7237           90           90           90     102002.7    215.84263 
  553000       552500   -9832.1897    1217.8604    -11050.05    4358.3282   -15408.378    126.88414     649.4366   -321.68889    643.89203    50.289119    -33.63904    83.030154      46.7237      46.7237      46.7237           90           90           90     102002.7    323.87991 
  554000       553500   -9808.1975    1241.8361   -11050.034    4357.7075   -15407.741    129.38207    471.51843    631.64388    420.85944   -46.280542    259.63855    155.91557      46.7237      46.7237      46.7237           90           90           90     102002.7    508.00725 
  555000       554500   -9793.2424     1249.313   -11042.555    4360.2007   -15402.756    130.16107    559.20403    201.02904   -64.018348   -347.66896    173.52937    5.3659171      46.7237      46.7237      46.7237           90           90           90     102002.7    232.07157 
[...]
  936000       935500   -9756.7819    1275.2326   -11032.014    4373.0967   -15405.111    132.86152    1148.7593    1050.6263     757.4606   -58.088386    83.079971    58.023654      46.7237      46.7237      46.7237           90           90           90     102002.7    985.61541 
  937000       936500   -9806.9193     1246.998   -11053.917      4358.04   -15411.957    129.91987    219.60847    259.01938    712.08392    108.04429    -1.549339    22.064475      46.7237      46.7237      46.7237           90           90           90     102002.7    396.90392 
  938000       937500   -9763.7319    1267.0783    -11030.81    4386.8229   -15417.633    132.01196    217.68037   -257.86732    154.28138    22.753728    40.555097    27.811007      46.7237      46.7237      46.7237           90           90           90     102002.7    38.031473 
  939000       938500   -9822.3324    1232.8772    -11055.21    4392.4834   -15447.693    128.44868   -219.12965   -92.925238     13.47785   -87.645282    78.033644   -99.941549      46.7237      46.7237      46.7237           90           90           90     102002.7   -99.525679 
  940000       939500   -9805.5201    1237.6721   -11043.192    4370.9492   -15414.141    128.94824    425.93638    418.43037    353.89096    218.97616   -38.828568   -59.503355      46.7237      46.7237      46.7237           90           90           90     102002.7    399.41924 
  941000       940500   -9819.8838    1241.2949   -11061.179    4388.7093   -15449.888    129.32569    370.52615    180.07444    496.68221    4.4440909   -1.2369817    186.70352      46.7237      46.7237      46.7237           90           90           90     102002.7    349.09427 
  942000       941500   -9833.0388    1216.3918   -11049.431    4364.0995    -15413.53    126.73113     824.8809    811.60512     217.1469   -43.394535   -94.796509   -84.341173      46.7237      46.7237      46.7237           90           90           90     102002.7    617.87764 
  943000       942500    -9813.396    1227.8338    -11041.23    4383.4045   -15424.634    127.92322    455.94315    612.46057    695.33841   -33.767836     369.0892      -186.76      46.7237      46.7237      46.7237           90           90           90     102002.7    587.91404 
  944000       943500   -9735.4542    1282.4536   -11017.908    4379.9609   -15397.869    133.61386    760.85387    282.31405    480.40971    11.507708    -80.59632   -73.137295      46.7237      46.7237      46.7237           90           90           90     102002.7    507.85921 
  945000       944500   -9803.6076    1263.4406   -11067.048    4355.8331   -15422.881    131.63296    623.35671    410.76288   -116.64259    69.887355    14.961789    42.546717      46.7237      46.7237      46.7237           90           90           90     102002.7    305.82567 
  946000       945500   -9787.2337    1246.2797   -11033.513    4362.1479   -15395.661    129.84504    11.254434    -30.74588    639.71127   -165.43804   -263.03436   -248.34765      46.7237      46.7237      46.7237           90           90           90     102002.7    206.73994 
  947000       946500   -9804.9954    1256.2977   -11061.293    4355.0675   -15416.361    130.88877    726.13141    669.38483    154.18004  -0.42963429   -156.94554    278.93779      46.7237      46.7237      46.7237           90           90           90     102002.7    516.56542 
  948000       947500    -9805.259    1249.1711    -11054.43    4340.7962   -15395.226    130.14628    744.98045    966.46446    550.82935    296.00875   -118.46193   -2.3882901      46.7237      46.7237      46.7237           90           90           90     102002.7    754.09142 
  949000       948500   -9801.2034      1262.82   -11064.023    4341.3155   -15405.339     131.5683    802.85558    256.02006    272.28305    81.626835   0.72414524    76.260897      46.7237      46.7237      46.7237           90           90           90     102002.7    443.71956 
  950000       949500    -9789.958    1260.2763   -11050.234    4375.6495   -15425.884    131.30329    5.6461447    521.88232    311.90657    141.54701    104.09416   -56.086616      46.7237      46.7237      46.7237           90           90           90     102002.7    279.81168 
  951000       950500   -9846.7617    1223.4962   -11070.258    4334.0548   -15404.313    127.47131    480.98112     385.1904    418.89114    17.612955   -20.743783   -198.43291      46.7237      46.7237      46.7237           90           90           90     102002.7    428.35422 
  952000       951500    -9767.791    1263.6984   -11031.489    4380.2249   -15411.714    131.65982    560.30913    195.09981    256.38745    75.711182    140.99511   -80.126448      46.7237      46.7237      46.7237           90           90           90     102002.7    337.26546 
  953000       952500   -9758.8275    1276.8787   -11035.706    4377.8654   -15413.572    133.03302    439.70528    584.66782    258.61378    116.72973    8.0224331    -92.71379      46.7237      46.7237      46.7237           90           90           90     102002.7    427.66229 
  954000       953500   -9765.2515    1262.8388    -11028.09    4382.1874   -15410.278    131.57026     364.5966    599.73897    737.92637    77.753252    178.67051    111.35611      46.7237      46.7237      46.7237           90           90           90     102002.7    567.42064 
  955000       954500   -9795.1367    1252.6661   -11047.803    4372.2965   -15420.099     130.5104    477.48224    759.83176    249.27672   -6.6828257    262.99385   -275.43372      46.7237      46.7237      46.7237           90           90           90     102002.7    495.53024 
  956000       955500   -9880.2748    1188.4565   -11068.731    4345.1662   -15413.897    123.82066    255.48361   -105.46908   -99.807217    55.328965    217.82606   -203.94348      46.7237      46.7237      46.7237           90           90           90     102002.7    16.735771 
  957000       956500   -9793.2571    1254.0449   -11047.302     4341.993   -15389.295    130.65406    700.30859    781.02152    489.39908   -57.130176   -10.194047    53.945263      46.7237      46.7237      46.7237           90           90           90     102002.7    656.90973 
  958000       957500   -9828.5303    1216.3095    -11044.84    4350.6255   -15395.465    126.72256    241.82608    556.77975    191.95728    220.68254    140.04241   -203.66366      46.7237      46.7237      46.7237           90           90           90     102002.7     330.1877 
  959000       958500   -9811.0656    1219.0876   -11030.153    4376.3237   -15406.477    127.01199    264.50087    71.120613   -407.32921    123.03985   -148.39532   -91.723992      46.7237      46.7237      46.7237           90           90           90     102002.7   -23.902576 
  960000       959500   -9818.6201    1254.2728   -11072.893    4360.5982   -15433.491    130.67781    439.62401    770.73046    606.90313    118.75906   -9.2689974    1.3140383      46.7237      46.7237      46.7237           90           90           90     102002.7    605.75253 
  961000       960500    -9844.317    1216.3901   -11060.707    4366.6444   -15427.352    126.73095    469.30184    451.44486   -70.031285   -95.045912     228.9898    148.48587      46.7237      46.7237      46.7237           90           90           90     102002.7    283.57181 
  962000       961500   -9780.0357    1280.6298   -11060.666    4350.8956   -15411.561    133.42384    599.99558    234.48811    536.89599   -56.914222    2.2378929   -148.40309      46.7237      46.7237      46.7237           90           90           90     102002.7    457.12656 
  963000       962500   -9787.3812    1258.4901   -11045.871    4361.8887    -15407.76    131.11719    139.65257    478.30642     246.6981    128.00648   -97.653655   -167.91295      46.7237      46.7237      46.7237           90           90           90     102002.7    288.21903 
  964000       963500   -9811.1808    1251.0977   -11062.279     4347.264   -15409.543      130.347   -324.73424    649.70884    248.24662    -122.7175   -64.404396    141.62236      46.7237      46.7237      46.7237           90           90           90     102002.7    191.07374 
  965000       964500   -9770.0971       1234.7   -11004.797    4397.4923   -15402.289    128.63859    479.59991    276.50774    893.52594   -116.08448    139.84254    54.077081      46.7237      46.7237      46.7237           90           90           90     102002.7    549.87786 
  966000       965500   -9809.4214    1230.6126   -11040.034     4385.126    -15425.16    128.21274    280.82412    389.21422    36.197158    -73.32789     137.0228    26.014004      46.7237      46.7237      46.7237           90           90           90     102002.7    235.41183 
  967000       966500   -9797.4317    1261.6286    -11059.06    4353.3084   -15412.369    131.44417     188.5191    109.64304     77.74373    202.62701   -270.85003   -167.63376      46.7237      46.7237      46.7237           90           90           90     102002.7    125.30196 
  968000       967500   -9825.3317    1240.9806   -11066.312    4357.8742   -15424.186    129.29294    209.57037     152.7387    29.316317     46.96384   -261.93524    102.43699      46.7237      46.7237      46.7237           90           90           90     102002.7    130.54179 
  969000       968500   -9804.3555    1263.2928   -11067.648    4358.7534   -15426.402    131.61757    375.71289     853.4933   -180.87032   -85.142143    133.50439    62.213441      46.7237      46.7237      46.7237           90           90           90     102002.7    349.44529 
  970000       969500   -9763.1761    1271.1519   -11034.328    4378.9645   -15413.292    132.43637    252.78633    299.99354     244.6267    154.53206    180.21204   -48.064788      46.7237      46.7237      46.7237           90           90           90     102002.7    265.80219 
  971000       970500   -9801.5787    1258.8227   -11060.401    4324.8312   -15385.233    131.15184    683.97644    1079.7338    409.87979   -36.045229    119.28762   -152.55487      46.7237      46.7237      46.7237           90           90           90     102002.7    724.52999 
  972000       971500   -9817.7558    1262.6029   -11080.359    4358.6008   -15438.959    131.54569   -72.855971    323.74577     303.8362   -122.10514   -160.04387    5.7162912      46.7237      46.7237      46.7237           90           90           90     102002.7    184.90867 
  973000       972500   -9737.2412    1268.4437   -11005.685    4394.5749    -15400.26    132.15421    420.27404    429.94245    258.36504   -454.16361     140.3322    230.93471      46.7237      46.7237      46.7237           90           90           90     102002.7    369.52718 
  974000       973500   -9835.7577    1239.0796   -11074.837     4346.198   -15421.035    129.09488   -149.10902    562.02845    422.83808   -132.49908    149.62783    140.56367      46.7237      46.7237      46.7237           90           90           90     102002.7    278.58583 
  975000       974500   -9776.9694     1272.825   -11049.794    4381.1571   -15430.951    132.61069    664.15577    289.86754    561.86569   -120.15648     201.4164     202.1756      46.7237      46.7237      46.7237           90           90           90     102002.7    505.29633 
  976000       975500    -9815.181    1207.6687    -11022.85     4371.089   -15393.939     125.8223    625.95303    619.11089    1058.4244    134.67585    37.492812   -400.72728      46.7237      46.7237      46.7237           90           90           90     102002.7    767.82945 
  977000       976500   -9795.3243    1258.8404   -11054.165    4376.0537   -15430.218    131.15369    287.64804    436.00249    59.374702   -122.95993   -12.323769    52.915228      46.7237      46.7237      46.7237           90           90           90     102002.7    261.00841 
  978000       977500   -9796.4116    1252.3465   -11048.758    4366.6792   -15415.437    130.47711    159.58963    419.44109    451.14869   -3.5605616    343.48169   -192.97165      46.7237      46.7237      46.7237           90           90           90     102002.7    343.39314 
  979000       978500   -9857.2536    1237.4595   -11094.713    4336.8103   -15431.523    128.92609   -239.15392    591.51948    343.37442    22.260875   -265.12242    -100.2145      46.7237      46.7237      46.7237           90           90           90     102002.7    231.91333 
  980000       979500   -9805.7249    1221.9324   -11027.657     4363.238   -15390.895    127.30838    664.21722   -310.33109    215.19077    127.72309   -259.22467   -84.852914      46.7237      46.7237      46.7237           90           90           90     102002.7     189.6923 
  981000       980500   -9819.7398    1249.9355   -11069.675    4345.7704   -15415.446    130.22592    485.85005    800.08115    202.52922   -41.361384    161.59726    197.21069      46.7237      46.7237      46.7237           90           90           90     102002.7    496.15347 
  982000       981500   -9842.8352    1218.8152    -11061.65    4349.6333   -15411.284    126.98362    417.03316    310.89161    498.84416    175.27884    63.148196   -213.21739      46.7237      46.7237      46.7237           90           90           90     102002.7    408.92298 
  983000       982500   -9782.8871     1260.979   -11043.866    4339.6566   -15383.523     131.3765    158.55113    548.48084    367.14801    112.45742    48.069088   -251.59407      46.7237      46.7237      46.7237           90           90           90     102002.7    358.05999 
  984000       983500    -9787.878    1288.5536   -11076.432      4338.12   -15414.552    134.24938    759.29258    225.88655    213.56947   -99.506688   -27.002609   -299.76081      46.7237      46.7237      46.7237           90           90           90     102002.7    399.58287 
  985000       984500   -9798.9778    1250.0868   -11049.065    4339.4454    -15388.51    130.24168     747.9137    174.20958   -11.936982    4.9184193    172.40118   -76.398512      46.7237      46.7237      46.7237           90           90           90     102002.7    303.39543 
  986000       985500   -9760.8759    1258.0092   -11018.885    4387.3432   -15406.228    131.06708    445.84227    508.08697    -417.5055   -67.531382   -204.24054    248.81331      46.7237      46.7237      46.7237           90           90           90     102002.7    178.80791 
  987000       986500   -9769.2281    1256.0889   -11025.317    4352.8736   -15378.191    130.86701    463.87852    1208.6103    395.03957    134.43546   -106.25635   -35.908668      46.7237      46.7237      46.7237           90           90           90     102002.7    689.17612 
  988000       987500   -9783.6489    1252.7531   -11036.402    4362.0186   -15398.421    130.51947    855.11998    286.32982    514.48912   -155.70277   -186.89821   -246.53169      46.7237      46.7237      46.7237           90           90           90     102002.7    551.97964 
  989000       988500   -9800.6919    1240.3946   -11041.087    4377.4736    -15418.56    129.23189    442.18907     388.5285    63.279678    289.91471    108.93112   -203.14901      46.7237      46.7237      46.7237           90           90           90     102002.7    297.99908 
  990000       989500    -9788.277    1272.2668   -11060.544    4361.5171   -15422.061    132.55252    641.94511    216.24354    246.02253   -46.821741    -27.45893   -138.22004      46.7237      46.7237      46.7237           90           90           90     102002.7    368.07039 
  991000       990500   -9842.4338    1230.0519   -11072.486    4335.7262   -15408.212    128.15432    220.37921     582.2167    869.83354    48.306836    82.635158   -48.125548      46.7237      46.7237      46.7237           90           90           90     102002.7    557.47648 
  992000       991500   -9826.3608    1262.7028   -11089.064    4334.5151   -15423.579    131.55609     461.0057     137.9395    444.57575     224.8076   -30.521484   -292.37989      46.7237      46.7237      46.7237           90           90           90     102002.7    347.84032 
  993000       992500   -9844.9834    1231.9358   -11076.919    4344.5696   -15421.489     128.3506    906.94154    324.69789    454.41659   -322.15075   -171.94092     275.6217      46.7237      46.7237      46.7237           90           90           90     102002.7    562.01867 
  994000       993500   -9813.0378    1239.4136   -11052.451    4349.8055   -15402.257    129.12968    364.58083    670.19541    294.88453    129.68258   -154.96588    -49.27404      46.7237      46.7237      46.7237           90           90           90     102002.7    443.22026 
  995000       994500   -9835.9898    1236.9546   -11072.944    4340.2485   -15413.193    128.87349    206.91619    622.84498    498.88823   -125.73919    24.478868   -123.22896      46.7237      46.7237      46.7237           90           90           90     102002.7    442.88313 
  996000       995500   -9810.2824     1258.813   -11069.095    4358.9636   -15428.059    131.15083    782.22125    351.84411     648.3857   -70.512123   -91.548808    103.62848      46.7237      46.7237      46.7237           90           90           90     102002.7    594.15035 
  997000       996500   -9793.2576    1251.9717   -11045.229    4351.2344   -15396.464    130.43806    1250.2903    604.32211    441.25749   -66.960173    366.76952   -31.631436      46.7237      46.7237      46.7237           90           90           90     102002.7    765.28996 
  998000       997500   -9816.7139    1207.8365    -11024.55    4347.0919   -15371.642    125.83979    306.95883    1011.8888    381.33301   -178.48544   -157.22933   -25.082602      46.7237      46.7237      46.7237           90           90           90     102002.7    566.72689 
  999000       998500   -9854.3142    1233.5339   -11087.848    4320.0071   -15407.855     128.5171    395.31795     561.2516    144.63148    90.600769    39.097364    201.69678      46.7237      46.7237      46.7237           90           90           90     102002.7    367.06701 
 1000000       999500   -9810.0018    1237.5923   -11047.594    4363.1174   -15410.712    128.93993    314.29614    429.10238   -84.624095   -128.33915    98.084861    184.05383      46.7237      46.7237      46.7237           90           90           90     102002.7    219.59148 
 1000500      1000000   -9819.8126    1250.1714   -11069.984    4353.4044   -15423.388     130.2505    560.89322     612.1686    795.37334   -214.22945    2.6426249    80.256767      46.7237      46.7237      46.7237           90           90           90     102002.7    656.14505 
Loop time of 2312.47 on 16 procs for 500000 steps with 3221 atoms

Performance: 18.681 ns/day, 1.285 hours/ns, 216.219 timesteps/s
99.8% CPU use with 16 MPI tasks x no OpenMP threads

MPI task timing breakdown:
Section |  min time  |  avg time  |  max time  |%varavg| %total
---------------------------------------------------------------
Pair    | 1147.3     | 1479.7     | 1875.6     | 499.4 | 63.99
Bond    | 150.58     | 183.83     | 214.31     | 137.4 |  7.95
Neigh   | 17.939     | 18.031     | 18.124     |   1.8 |  0.78
Comm    | 175.71     | 598.87     | 944.76     | 834.0 | 25.90
Output  | 0.13307    | 0.13943    | 0.14005    |   0.4 |  0.01
Modify  | 23.916     | 25.029     | 26.189     |  19.0 |  1.08
Other   |            | 6.925      |            |       |  0.30

Nlocal:    201.312 ave 238 max 177 min
Histogram: 4 3 0 1 0 3 2 2 0 1
Nghost:    4074.62 ave 4118 max 4040 min
Histogram: 3 1 3 0 0 5 1 1 1 1
Neighs:    11470.1 ave 16130 max 7831 min
Histogram: 1 2 2 4 2 1 1 1 1 1

Total # of neighbors = 183522
Ave neighs/atom = 56.9767
Ave special neighs/atom = 3.57653
Neighbor list builds = 5090
Dangerous builds = 0
Total wall time: 1:11:02
