LAMMPS (30 Mar 2018)
Reading data file ...
  orthogonal box = (0 0 0) to (46.7237 46.7237 46.7237)
  2 by 2 by 4 MPI processor grid
  reading atoms ...
  1731 atoms
  scanning bonds ...
  5 = max bonds/atom
  scanning angles ...
  10 = max angles/atom
  scanning dihedrals ...
  32 = max dihedrals/atom
  scanning impropers ...
  3 = max impropers/atom
  reading bonds ...
  2064 bonds
  reading angles ...
  3696 angles
  reading dihedrals ...
  6240 dihedrals
  reading impropers ...
  1008 impropers
Finding 1-2 1-3 1-4 neighbors ...
  special bond factors lj:   0          0          0         
  special bond factors coul: 0          0          0         
  5 = max # of 1-2 neighbors
  8 = max # of 1-3 neighbors
  20 = max # of 1-4 neighbors
  19 = max # of special neighbors
Finding 1-2 1-3 1-4 neighbors ...
  special bond factors lj:   0          0          1         
  special bond factors coul: 1          1          1         
  5 = max # of 1-2 neighbors
  8 = max # of 1-3 neighbors
  19 = max # of special neighbors
WARNING: Using 'neigh_modify every 1 delay 0 check yes' setting during minimization (../min.cpp:168)
Neighbor list info ...
  update every 1 steps, delay 0 steps, check yes
  max neighbors/atom: 2000, page size: 100000
  master list distance cutoff = 16
  ghost atom cutoff = 16
  binsize = 8, bins = 6 6 6
  3 neighbor lists, perpetual/occasional/extra = 3 0 0
  (1) pair buck6d/coul/gauss/dsf, perpetual, skip from (3)
      attributes: half, newton on
      pair build: skip
      stencil: none
      bin: none
  (2) pair lj/cut, perpetual, skip from (3)
      attributes: half, newton on
      pair build: skip
      stencil: none
      bin: none
  (3) neighbor class addition, perpetual
      attributes: half, newton on
      pair build: half/bin/newton
      stencil: half/bin/3d/newton
      bin: standard
Setting up cg style minimization ...
  Unit style    : real
  Current step  : 0
WARNING: Inconsistent image flags (../domain.cpp:786)
Per MPI rank memory allocation (min/avg/max) = 22.89 | 23.35 | 23.79 Mbytes
Step Temp E_pair E_mol TotEng Press 
       0            0   -11520.534    6482.8914   -5037.6429    6288.9601 
     504            0   -11541.067     3735.749   -7805.3184   -466.02937 
Loop time of 2.68442 on 16 procs for 504 steps with 1731 atoms

99.9% CPU use with 16 MPI tasks x no OpenMP threads

Minimization stats:
  Stopping criterion = max force evaluations
  Energy initial, next-to-last, final = 
        -5037.64285968     -7805.27972158     -7805.31837804
  Force two-norm initial, final = 2577.01 8.95906
  Force max component initial, final = 152.031 1.14259
  Final line search alpha, max atom move = 0.00950917 0.0108651
  Iterations, force evaluations = 504 1001

MPI task timing breakdown:
Section |  min time  |  avg time  |  max time  |%varavg| %total
---------------------------------------------------------------
Pair    | 1.2564     | 1.5735     | 1.9506     |  14.9 | 58.62
Bond    | 0.30626    | 0.36302    | 0.44823    |   6.8 | 13.52
Neigh   | 0.018468   | 0.018531   | 0.018586   |   0.0 |  0.69
Comm    | 0.3095     | 0.68882    | 0.97466    |  21.6 | 25.66
Output  | 0          | 0          | 0          |   0.0 |  0.00
Modify  | 0          | 0          | 0          |   0.0 |  0.00
Other   |            | 0.04056    |            |       |  1.51

Nlocal:    108.188 ave 118 max 95 min
Histogram: 1 1 1 3 2 0 1 2 3 2
Nghost:    2185.06 ave 2198 max 2174 min
Histogram: 2 1 4 1 0 2 2 2 1 1
Neighs:    11437.4 ave 14726 max 8714 min
Histogram: 5 1 0 2 0 0 2 3 2 1

Total # of neighbors = 182998
Ave neighs/atom = 105.718
Ave special neighs/atom = 6.65511
Neighbor list builds = 16
Dangerous builds = 0
Neighbor list info ...
  update every 1 steps, delay 10 steps, check yes
  max neighbors/atom: 2000, page size: 100000
  master list distance cutoff = 16
  ghost atom cutoff = 16
  binsize = 8, bins = 6 6 6
  3 neighbor lists, perpetual/occasional/extra = 3 0 0
  (1) pair buck6d/coul/gauss/dsf, perpetual, skip from (3)
      attributes: half, newton on
      pair build: skip
      stencil: none
      bin: none
  (2) pair lj/cut, perpetual, skip from (3)
      attributes: half, newton on
      pair build: skip
      stencil: none
      bin: none
  (3) neighbor class addition, perpetual
      attributes: half, newton on
      pair build: half/bin/newton
      stencil: half/bin/3d/newton
      bin: standard
Setting up Verlet run ...
  Unit style    : real
  Current step  : 504
  Time step     : 1
WARNING: Inconsistent image flags (../domain.cpp:786)
Per MPI rank memory allocation (min/avg/max) = 22.54 | 22.64 | 23.05 Mbytes
Step Temp PotEng TotEng Press Volume Lx Ly Lz 
     504          130   -7805.3184   -7134.9342   -165.59824     102002.7      46.7237      46.7237      46.7237 
    1000     117.7318   -7225.5086   -6618.3891   -803.59607     102002.7      46.7237      46.7237      46.7237 
    2000    124.26933   -7073.8856   -6433.0533   -480.72795     102002.7      46.7237      46.7237      46.7237 
    3000    124.28179   -7101.9261   -6461.0296    -1135.161     102002.7      46.7237      46.7237      46.7237 
    4000    125.93675   -7122.7099    -6473.279    -330.8689     102002.7      46.7237      46.7237      46.7237 
    5000    129.49791   -7109.0031   -6441.2081   -705.61095     102002.7      46.7237      46.7237      46.7237 
    6000     125.5579   -7136.0389   -6488.5617   -595.98229     102002.7      46.7237      46.7237      46.7237 
    7000    135.97728   -7135.4132   -6434.2054   -714.98454     102002.7      46.7237      46.7237      46.7237 
    8000    131.71407   -7155.3531   -6476.1298     -856.413     102002.7      46.7237      46.7237      46.7237 
    9000    127.43858   -7127.4603   -6470.2848   -739.30345     102002.7      46.7237      46.7237      46.7237 
   10000    128.94837    -7126.635   -6461.6739   -667.39965     102002.7      46.7237      46.7237      46.7237 
   11000    129.42439   -7110.1457   -6442.7298   -1044.6212     102002.7      46.7237      46.7237      46.7237 
   12000    134.04838   -7131.5741   -6440.3132   -511.56931     102002.7      46.7237      46.7237      46.7237 
   13000    130.40843   -7145.4195   -6472.9291   -672.22344     102002.7      46.7237      46.7237      46.7237 
   14000     129.4886   -7102.3904   -6434.6434   -632.51985     102002.7      46.7237      46.7237      46.7237 
   15000    122.40088   -7138.4573   -6507.2602   -584.10133     102002.7      46.7237      46.7237      46.7237 
   16000    134.07441   -7133.3806   -6441.9855   -855.51141     102002.7      46.7237      46.7237      46.7237 
   17000    127.66782   -7140.5332   -6482.1756   -499.68053     102002.7      46.7237      46.7237      46.7237 
   18000     130.1522   -7131.8305   -6460.6615   -427.46537     102002.7      46.7237      46.7237      46.7237 
   19000    129.01876   -7120.9671    -6455.643   -745.45572     102002.7      46.7237      46.7237      46.7237 
   20000    127.69564    -7126.488   -6467.9869   -707.59816     102002.7      46.7237      46.7237      46.7237 
   21000    125.57303     -7101.41   -6453.8548   -1140.3169     102002.7      46.7237      46.7237      46.7237 
   22000    129.89985   -7152.3723   -6482.5046   -863.90383     102002.7      46.7237      46.7237      46.7237 
   23000    131.42184   -7115.0351   -6437.3187   -928.93852     102002.7      46.7237      46.7237      46.7237 
   24000    129.42095   -7119.4536   -6452.0555   -1188.4506     102002.7      46.7237      46.7237      46.7237 
   25000    129.92259   -7130.8086   -6460.8236   -992.41462     102002.7      46.7237      46.7237      46.7237 
   26000    132.03001   -7117.7967   -6436.9442   -1112.5715     102002.7      46.7237      46.7237      46.7237 
   27000    130.86971   -7113.5106   -6438.6415   -718.22676     102002.7      46.7237      46.7237      46.7237 
   28000    128.48738   -7106.2603   -6443.6764    -783.0105     102002.7      46.7237      46.7237      46.7237 
   29000    130.91495   -7126.2547   -6451.1523   -978.87365     102002.7      46.7237      46.7237      46.7237 
   30000    130.17569   -7130.2076   -6458.9174   -1209.4541     102002.7      46.7237      46.7237      46.7237 
   31000    135.05524   -7121.2032   -6424.7501   -683.16693     102002.7      46.7237      46.7237      46.7237 
   32000    127.98727   -7129.2648   -6469.2599   -925.66434     102002.7      46.7237      46.7237      46.7237 
   33000    125.77428   -7113.8329   -6465.2399    -939.9192     102002.7      46.7237      46.7237      46.7237 
   34000     131.7914   -7122.0137   -6442.3916   -940.85941     102002.7      46.7237      46.7237      46.7237 
   35000    129.98933   -7125.2443   -6454.9152   -656.45076     102002.7      46.7237      46.7237      46.7237 
   36000    131.74678   -7110.4449    -6431.053   -737.25874     102002.7      46.7237      46.7237      46.7237 
   37000    131.31753   -7137.9458   -6460.7674   -821.40106     102002.7      46.7237      46.7237      46.7237 
   38000    131.09781   -7122.4419   -6446.3965   -772.26133     102002.7      46.7237      46.7237      46.7237 
   39000    132.38261   -7112.7699   -6430.0991   -899.18576     102002.7      46.7237      46.7237      46.7237 
   40000    129.32404   -7130.9032   -6464.0048    -563.3544     102002.7      46.7237      46.7237      46.7237 
   41000    129.51607   -7125.0966    -6457.208   -843.20826     102002.7      46.7237      46.7237      46.7237 
   42000    130.15232   -7107.0783   -6435.9087   -815.59637     102002.7      46.7237      46.7237      46.7237 
   43000    133.04509   -7126.1781    -6440.091   -1044.7218     102002.7      46.7237      46.7237      46.7237 
   44000     129.6243   -7135.8176   -6467.3708    -921.5204     102002.7      46.7237      46.7237      46.7237 
   45000    130.51964   -7129.5417   -6456.4779    -802.3287     102002.7      46.7237      46.7237      46.7237 
   46000    128.51704   -7118.6265   -6455.8897   -813.79492     102002.7      46.7237      46.7237      46.7237 
   47000    126.64392   -7141.2293   -6488.1518   -548.27708     102002.7      46.7237      46.7237      46.7237 
   48000    130.77352   -7119.0582   -6444.6851   -1045.5385     102002.7      46.7237      46.7237      46.7237 
   49000    129.72019   -7107.1398   -6438.1985   -599.37858     102002.7      46.7237      46.7237      46.7237 
   50000    128.01172   -7118.5834   -6458.4524   -761.27857     102002.7      46.7237      46.7237      46.7237 
   51000    135.25253   -7138.0547   -6440.5843   -685.59147     102002.7      46.7237      46.7237      46.7237 
   52000    126.78459   -7120.6384   -6466.8354   -412.88344     102002.7      46.7237      46.7237      46.7237 
   53000    131.56856   -7111.8838   -6433.4109   -833.58026     102002.7      46.7237      46.7237      46.7237 
   54000    126.44317   -7107.6482   -6455.6059   -698.14502     102002.7      46.7237      46.7237      46.7237 
   55000    130.46317   -7140.6774   -6467.9047   -865.47613     102002.7      46.7237      46.7237      46.7237 
   56000    129.71479    -7087.056   -6418.1426   -715.82352     102002.7      46.7237      46.7237      46.7237 
   57000    131.38247   -7131.8007   -6454.2874   -498.39515     102002.7      46.7237      46.7237      46.7237 
   58000    130.08425   -7136.9232   -6466.1046   -1206.2917     102002.7      46.7237      46.7237      46.7237 
   59000    131.04859   -7111.3427   -6435.5512   -887.15499     102002.7      46.7237      46.7237      46.7237 
   60000    133.80989   -7112.3575   -6422.3265   -902.68315     102002.7      46.7237      46.7237      46.7237 
   61000    129.15907   -7134.8946    -6468.847   -681.29436     102002.7      46.7237      46.7237      46.7237 
   62000    129.56155   -7119.8313   -6451.7081   -1006.2409     102002.7      46.7237      46.7237      46.7237 
   63000    129.19853   -7153.6126   -6487.3614   -1119.8509     102002.7      46.7237      46.7237      46.7237 
   64000    130.47329   -7147.8334   -6475.0086   -903.66418     102002.7      46.7237      46.7237      46.7237 
   65000     129.3733   -7137.1395    -6469.987   -721.67189     102002.7      46.7237      46.7237      46.7237 
   66000    130.34947   -7158.3462   -6486.1598   -1124.3817     102002.7      46.7237      46.7237      46.7237 
   67000    133.25488   -7137.3569   -6450.1879   -927.88904     102002.7      46.7237      46.7237      46.7237 
   68000    128.21928   -7144.3462   -6483.1448   -1111.4867     102002.7      46.7237      46.7237      46.7237 
   69000    130.03817   -7113.3739   -6442.7929   -936.24267     102002.7      46.7237      46.7237      46.7237 
   70000    122.64898   -7146.5824    -6514.106   -788.43584     102002.7      46.7237      46.7237      46.7237 
   71000    129.30696   -7119.9338   -6453.1235   -859.09985     102002.7      46.7237      46.7237      46.7237 
   72000     128.8672   -7127.6369   -6463.0943   -638.88612     102002.7      46.7237      46.7237      46.7237 
   73000    129.29031   -7128.5751   -6461.8507    -525.2188     102002.7      46.7237      46.7237      46.7237 
   74000    129.44307   -7106.1735   -6438.6613   -900.64317     102002.7      46.7237      46.7237      46.7237 
   75000    129.04807   -7147.1589   -6481.6836   -665.58649     102002.7      46.7237      46.7237      46.7237 
   76000     129.1313   -7143.9144   -6478.0099   -600.67536     102002.7      46.7237      46.7237      46.7237 
   77000    128.06276   -7116.8431   -6456.4489   -665.02913     102002.7      46.7237      46.7237      46.7237 
   78000    130.47544   -7130.8237   -6457.9877   -456.15986     102002.7      46.7237      46.7237      46.7237 
   79000    131.19472    -7134.548   -6458.0029    -606.7678     102002.7      46.7237      46.7237      46.7237 
   80000    127.39649   -7123.8783   -6466.9199   -610.83516     102002.7      46.7237      46.7237      46.7237 
   81000    132.62855    -7120.158   -6436.2189   -644.71636     102002.7      46.7237      46.7237      46.7237 
   82000    129.63899   -7138.8875    -6470.365   -819.33673     102002.7      46.7237      46.7237      46.7237 
   83000    135.57462   -7133.6648   -6434.5334   -738.02311     102002.7      46.7237      46.7237      46.7237 
   84000    131.25838    -7123.675   -6446.8016   -352.85414     102002.7      46.7237      46.7237      46.7237 
   85000    132.46951   -7151.8172   -6468.6982   -939.80934     102002.7      46.7237      46.7237      46.7237 
   86000    131.65434   -7115.7297   -6436.8144   -665.45383     102002.7      46.7237      46.7237      46.7237 
   87000    133.14482   -7134.6361   -6448.0347   -607.28079     102002.7      46.7237      46.7237      46.7237 
   88000    131.54192   -7119.2566    -6440.921    -909.0403     102002.7      46.7237      46.7237      46.7237 
   89000    128.68813   -7146.1579   -6482.5388   -711.30938     102002.7      46.7237      46.7237      46.7237 
   90000    132.05318   -7142.0651   -6461.0931   -671.88364     102002.7      46.7237      46.7237      46.7237 
   91000    133.68117   -7120.4363   -6431.0691   -671.52953     102002.7      46.7237      46.7237      46.7237 
   92000    130.78788   -7140.0676   -6465.6205   -551.80333     102002.7      46.7237      46.7237      46.7237 
   93000    132.61713   -7136.0785   -6452.1983   -574.46818     102002.7      46.7237      46.7237      46.7237 
   94000    132.72754   -7119.6675   -6435.2179   -597.97237     102002.7      46.7237      46.7237      46.7237 
   95000    127.10663   -7120.2316   -6464.7679   -518.14344     102002.7      46.7237      46.7237      46.7237 
   96000    130.64878   -7120.7806   -6447.0507    -669.6466     102002.7      46.7237      46.7237      46.7237 
   97000    131.75281   -7105.5273   -6426.1043   -835.66371     102002.7      46.7237      46.7237      46.7237 
   98000    130.36221   -7133.7916   -6461.5396   -500.35175     102002.7      46.7237      46.7237      46.7237 
   99000    132.90309   -7115.5772   -6430.2223   -660.84568     102002.7      46.7237      46.7237      46.7237 
  100000    130.64054   -7143.0866   -6469.3992   -292.61938     102002.7      46.7237      46.7237      46.7237 
  101000    129.45097   -7137.8656   -6470.3127   -494.87299     102002.7      46.7237      46.7237      46.7237 
  102000    130.20107   -7137.7872   -6466.3661   -562.64177     102002.7      46.7237      46.7237      46.7237 
  103000    131.58595   -7132.2378   -6453.6752   -617.91223     102002.7      46.7237      46.7237      46.7237 
  104000    131.49494    -7116.572   -6438.4787   -891.47651     102002.7      46.7237      46.7237      46.7237 
  105000    130.38294   -7105.5178   -6433.1589    -617.9524     102002.7      46.7237      46.7237      46.7237 
  106000    126.52522   -7124.5746   -6472.1091   -649.58049     102002.7      46.7237      46.7237      46.7237 
  107000    124.59558   -7126.1586   -6483.6439   -459.21262     102002.7      46.7237      46.7237      46.7237 
  108000    128.02418   -7120.4084   -6460.2132   -475.10049     102002.7      46.7237      46.7237      46.7237 
  109000    134.27455   -7119.3148   -6426.8876   -500.56572     102002.7      46.7237      46.7237      46.7237 
  110000    126.20571   -7128.8498    -6478.032   -658.46351     102002.7      46.7237      46.7237      46.7237 
  111000     128.8658   -7104.9611   -6440.4257   -601.61682     102002.7      46.7237      46.7237      46.7237 
  112000    128.91693   -7128.7198   -6463.9208   -1052.9706     102002.7      46.7237      46.7237      46.7237 
  113000    129.43311   -7117.2209   -6449.7601    -1126.314     102002.7      46.7237      46.7237      46.7237 
  114000    130.56994   -7160.0348   -6486.7115   -980.41031     102002.7      46.7237      46.7237      46.7237 
  115000    130.93617   -7118.5448   -6443.3329   -1057.8105     102002.7      46.7237      46.7237      46.7237 
  116000    128.14033   -7129.3684   -6468.5741   -983.41472     102002.7      46.7237      46.7237      46.7237 
  117000    129.78161   -7124.4586   -6455.2006   -688.99139     102002.7      46.7237      46.7237      46.7237 
  118000    124.04436   -7137.1417   -6497.4696   -774.26369     102002.7      46.7237      46.7237      46.7237 
  119000    128.74219   -7134.1003   -6470.2024   -775.32531     102002.7      46.7237      46.7237      46.7237 
  120000    131.85599   -7126.2162   -6446.2611   -455.01882     102002.7      46.7237      46.7237      46.7237 
  121000    128.40301   -7134.6678    -6472.519   -781.16012     102002.7      46.7237      46.7237      46.7237 
  122000    127.50917   -7118.5495   -6461.0101    -699.0908     102002.7      46.7237      46.7237      46.7237 
  123000    130.21503   -7117.6365   -6446.1435   -880.77972     102002.7      46.7237      46.7237      46.7237 
  124000    130.62151   -7146.7919   -6473.2028   -765.64367     102002.7      46.7237      46.7237      46.7237 
  125000    130.82262   -7116.6448   -6442.0185   -1320.3227     102002.7      46.7237      46.7237      46.7237 
  126000    124.44922   -7145.0575   -6503.2976   -676.67564     102002.7      46.7237      46.7237      46.7237 
  127000    130.66193   -7124.7429   -6450.9453   -863.72069     102002.7      46.7237      46.7237      46.7237 
  128000    133.72319   -7107.6174   -6418.0335   -870.08088     102002.7      46.7237      46.7237      46.7237 
  129000    131.12059   -7144.3826   -6468.2197   -512.09584     102002.7      46.7237      46.7237      46.7237 
  130000    134.49264    -7126.551   -6432.9991   -842.21526     102002.7      46.7237      46.7237      46.7237 
  131000    130.01152    -7122.873   -6452.4294   -782.35552     102002.7      46.7237      46.7237      46.7237 
  132000     127.5137     -7112.26   -6454.6972   -1060.8699     102002.7      46.7237      46.7237      46.7237 
  133000    126.87802   -7127.0788   -6472.7941   -591.43193     102002.7      46.7237      46.7237      46.7237 
  134000    126.82249   -7100.5757   -6446.5773   -685.56597     102002.7      46.7237      46.7237      46.7237 
  135000    130.37898   -7106.6511   -6434.3126   -820.47586     102002.7      46.7237      46.7237      46.7237 
  136000    126.91505   -7125.7726   -6471.2968   -888.45908     102002.7      46.7237      46.7237      46.7237 
  137000    129.43089   -7105.3612   -6437.9118   -929.65753     102002.7      46.7237      46.7237      46.7237 
  138000     133.8186   -7117.3234   -6427.2475   -591.55029     102002.7      46.7237      46.7237      46.7237 
  139000    130.52402   -7123.9828   -6450.8964    -1006.057     102002.7      46.7237      46.7237      46.7237 
  140000    132.67482     -7135.83   -6451.6523   -860.16063     102002.7      46.7237      46.7237      46.7237 
  141000    128.59497   -7094.4429   -6431.3042   -826.98939     102002.7      46.7237      46.7237      46.7237 
  142000     130.4364   -7133.1921   -6460.5575   -1083.1443     102002.7      46.7237      46.7237      46.7237 
  143000    131.93151   -7117.8834   -6437.5388   -1040.7176     102002.7      46.7237      46.7237      46.7237 
  144000     130.6233   -7110.6505   -6437.0521   -727.59047     102002.7      46.7237      46.7237      46.7237 
  145000    130.44696   -7136.6969   -6464.0079   -1038.3955     102002.7      46.7237      46.7237      46.7237 
  146000    131.08282   -7115.1267   -6439.1586    -1044.215     102002.7      46.7237      46.7237      46.7237 
  147000    129.95577   -7120.3742   -6450.2181   -788.96086     102002.7      46.7237      46.7237      46.7237 
  148000    129.41748    -7124.967   -6457.5867   -681.66613     102002.7      46.7237      46.7237      46.7237 
  149000    131.39186   -7133.0128    -6455.451   -824.18358     102002.7      46.7237      46.7237      46.7237 
  150000    130.64959    -7141.949    -6468.215   -583.06694     102002.7      46.7237      46.7237      46.7237 
  151000    129.83451   -7111.8393   -6442.3085   -714.02221     102002.7      46.7237      46.7237      46.7237 
  152000     133.4602   -7117.0727   -6428.8449   -323.12318     102002.7      46.7237      46.7237      46.7237 
  153000    128.45087   -7132.9284   -6470.5328    -530.4349     102002.7      46.7237      46.7237      46.7237 
  154000    131.02361    -7102.321   -6426.6582   -632.46324     102002.7      46.7237      46.7237      46.7237 
  155000    131.57195   -7125.6063   -6447.1158   -461.45746     102002.7      46.7237      46.7237      46.7237 
  156000    129.46016   -7122.2948   -6454.6945   -537.50868     102002.7      46.7237      46.7237      46.7237 
  157000      133.242   -7123.3982   -6436.2957   -758.01616     102002.7      46.7237      46.7237      46.7237 
  158000    126.99166   -7120.9964   -6466.1256   -903.67557     102002.7      46.7237      46.7237      46.7237 
  159000    132.79699   -7129.9421   -6445.1344   -752.37931     102002.7      46.7237      46.7237      46.7237 
  160000    130.80437   -7119.9196   -6445.3875   -620.15986     102002.7      46.7237      46.7237      46.7237 
  161000    131.64001   -7148.2868   -6469.4455   -908.02084     102002.7      46.7237      46.7237      46.7237 
  162000    129.70379   -7127.1791   -6458.3224   -440.96811     102002.7      46.7237      46.7237      46.7237 
  163000    128.07939   -7122.7221   -6462.2421   -792.02161     102002.7      46.7237      46.7237      46.7237 
  164000    132.83779   -7148.2776   -6463.2595   -844.95897     102002.7      46.7237      46.7237      46.7237 
  165000    128.08002   -7138.7761   -6478.2929   -1097.5715     102002.7      46.7237      46.7237      46.7237 
  166000    133.05562   -7102.2463   -6416.1049   -971.81793     102002.7      46.7237      46.7237      46.7237 
  167000    126.79866   -7109.1521   -6455.2766   -1040.3683     102002.7      46.7237      46.7237      46.7237 
  168000    125.57929   -7140.7698   -6493.1823   -1226.4842     102002.7      46.7237      46.7237      46.7237 
  169000    131.79529   -7122.2565   -6442.6144   -713.71809     102002.7      46.7237      46.7237      46.7237 
  170000    127.41194   -7149.2972   -6492.2591   -1162.4794     102002.7      46.7237      46.7237      46.7237 
  171000    129.28609   -7120.1312   -6453.4285   -937.37596     102002.7      46.7237      46.7237      46.7237 
  172000    128.99488   -7135.4103   -6470.2093   -965.93216     102002.7      46.7237      46.7237      46.7237 
  173000    132.78992   -7129.8737   -6445.1025   -971.54343     102002.7      46.7237      46.7237      46.7237 
  174000    126.44541   -7137.9855   -6485.9316   -855.78575     102002.7      46.7237      46.7237      46.7237 
  175000    129.35066   -7110.7934   -6443.7577   -706.77627     102002.7      46.7237      46.7237      46.7237 
  176000    129.72208   -7137.2304   -6468.2794   -450.66718     102002.7      46.7237      46.7237      46.7237 
  177000    128.27628   -7151.6079   -6490.1125   -652.41088     102002.7      46.7237      46.7237      46.7237 
  178000    127.28859   -7106.0816   -6449.6796   -701.72191     102002.7      46.7237      46.7237      46.7237 
  179000     132.6095   -7127.6514   -6443.8105     -542.819     102002.7      46.7237      46.7237      46.7237 
  180000    131.03731   -7134.1942   -6458.4608   -525.18588     102002.7      46.7237      46.7237      46.7237 
  181000    131.75224    -7113.757   -6434.3369   -1013.4565     102002.7      46.7237      46.7237      46.7237 
  182000    128.16893   -7119.8699   -6458.9281    -745.3375     102002.7      46.7237      46.7237      46.7237 
  183000    130.52331   -7122.7789   -6449.6961   -904.13247     102002.7      46.7237      46.7237      46.7237 
  184000    129.86097   -7135.7075   -6466.0403   -1270.1552     102002.7      46.7237      46.7237      46.7237 
  185000    126.07629   -7127.7854    -6477.635   -940.06573     102002.7      46.7237      46.7237      46.7237 
  186000    128.98842   -7118.5729   -6453.4052   -855.21416     102002.7      46.7237      46.7237      46.7237 
  187000    125.49304   -7106.1456   -6459.0029     -804.559     102002.7      46.7237      46.7237      46.7237 
  188000    128.61758   -7143.6399   -6480.3846    -1048.165     102002.7      46.7237      46.7237      46.7237 
  189000    128.94124    -7132.439   -6467.5146   -612.03128     102002.7      46.7237      46.7237      46.7237 
  190000    131.53925   -7112.3886   -6434.0668   -540.52129     102002.7      46.7237      46.7237      46.7237 
  191000    129.01296   -7144.8722    -6479.578   -675.69005     102002.7      46.7237      46.7237      46.7237 
  192000    131.56414   -7117.6006   -6439.1504   -464.47344     102002.7      46.7237      46.7237      46.7237 
  193000     130.8367   -7097.4948   -6422.7959   -840.51625     102002.7      46.7237      46.7237      46.7237 
  194000     128.8231   -7097.8374   -6433.5223   -870.22575     102002.7      46.7237      46.7237      46.7237 
  195000    130.38829    -7131.756   -6459.3695   -760.20656     102002.7      46.7237      46.7237      46.7237 
  196000    132.11239   -7136.8815   -6455.6041   -636.91425     102002.7      46.7237      46.7237      46.7237 
  197000    130.62078   -7102.3933   -6428.8079   -768.75254     102002.7      46.7237      46.7237      46.7237 
  198000    130.30845    -7136.671   -6464.6962   -861.58554     102002.7      46.7237      46.7237      46.7237 
  199000    130.43049   -7121.5648   -6448.9607   -679.78374     102002.7      46.7237      46.7237      46.7237 
  200000    129.32433   -7128.8017   -6461.9018   -775.11973     102002.7      46.7237      46.7237      46.7237 
  201000     132.0654   -7126.6144   -6445.5793   -831.74457     102002.7      46.7237      46.7237      46.7237 
  202000     123.1829   -7124.7673   -6489.5375    -741.9923     102002.7      46.7237      46.7237      46.7237 
  203000    129.34584   -7127.9472   -6460.9364   -801.59272     102002.7      46.7237      46.7237      46.7237 
  204000    128.54167   -7125.0241   -6462.1603   -963.67672     102002.7      46.7237      46.7237      46.7237 
  205000    127.82102   -7124.3369   -6465.1894   -928.60858     102002.7      46.7237      46.7237      46.7237 
  206000    131.83406   -7128.7597   -6448.9177   -723.03577     102002.7      46.7237      46.7237      46.7237 
  207000    131.12811   -7117.9867    -6441.785   -905.25568     102002.7      46.7237      46.7237      46.7237 
  208000    126.81685   -7160.7931   -6506.8238   -816.68574     102002.7      46.7237      46.7237      46.7237 
  209000    137.91697   -7108.4238   -6397.2134    -776.8775     102002.7      46.7237      46.7237      46.7237 
  210000    131.43688   -7141.1527   -6463.3589   -837.15789     102002.7      46.7237      46.7237      46.7237 
  211000    130.70067   -7105.1331   -6431.1357   -513.24741     102002.7      46.7237      46.7237      46.7237 
  212000    127.96807   -7110.3313   -6450.4254    -635.0443     102002.7      46.7237      46.7237      46.7237 
  213000    126.86675    -7144.796   -6490.5694   -825.72954     102002.7      46.7237      46.7237      46.7237 
  214000    131.96481   -7149.1681   -6468.6519   -555.70478     102002.7      46.7237      46.7237      46.7237 
  215000    130.39476   -7121.8774   -6449.4575   -772.97158     102002.7      46.7237      46.7237      46.7237 
  216000    130.73217   -7149.4696   -6475.3098   -672.41381     102002.7      46.7237      46.7237      46.7237 
  217000    130.22277   -7106.9028   -6435.3698   -598.07566     102002.7      46.7237      46.7237      46.7237 
  218000    127.74831   -7109.0015   -6450.2289   -635.93731     102002.7      46.7237      46.7237      46.7237 
  219000    130.20577   -7126.8016   -6455.3563   -512.74676     102002.7      46.7237      46.7237      46.7237 
  220000     132.9737   -7161.4504   -6475.7314   -793.26129     102002.7      46.7237      46.7237      46.7237 
  221000    132.98994   -7113.3607   -6427.5579   -521.33552     102002.7      46.7237      46.7237      46.7237 
  222000    128.23499   -7122.6573   -6461.3749   -764.04029     102002.7      46.7237      46.7237      46.7237 
  223000    133.39751   -7125.7475    -6437.843   -805.94811     102002.7      46.7237      46.7237      46.7237 
  224000    127.63407   -7136.8676    -6478.684   -796.58601     102002.7      46.7237      46.7237      46.7237 
  225000    126.63369   -7110.9044   -6457.8796   -896.91241     102002.7      46.7237      46.7237      46.7237 
  226000    128.72791   -7100.1663   -6436.3421   -702.41043     102002.7      46.7237      46.7237      46.7237 
  227000    134.08726   -7145.3193   -6453.8579   -721.30552     102002.7      46.7237      46.7237      46.7237 
  228000    133.51404   -7100.6434    -6412.138   -482.29603     102002.7      46.7237      46.7237      46.7237 
  229000    126.00835   -7110.9103   -6461.1103   -626.09722     102002.7      46.7237      46.7237      46.7237 
  230000     128.3512   -7146.5596   -6484.6779    -980.2394     102002.7      46.7237      46.7237      46.7237 
  231000    133.81584   -7138.1279   -6448.0662   -818.36056     102002.7      46.7237      46.7237      46.7237 
  232000    133.01022   -7124.5628   -6438.6556   -675.90572     102002.7      46.7237      46.7237      46.7237 
  233000     130.0406   -7133.4258   -6462.8322   -798.92247     102002.7      46.7237      46.7237      46.7237 
  234000    129.35237   -7118.2738   -6451.2294   -806.13609     102002.7      46.7237      46.7237      46.7237 
  235000    124.56484   -7115.6305   -6473.2743   -826.21699     102002.7      46.7237      46.7237      46.7237 
  236000    133.63839   -7116.1079   -6426.9612   -703.31341     102002.7      46.7237      46.7237      46.7237 
  237000    127.68783   -7127.4743   -6469.0135   -756.62308     102002.7      46.7237      46.7237      46.7237 
  238000    130.13043   -7103.9855   -6432.9287   -865.17911     102002.7      46.7237      46.7237      46.7237 
  239000    128.00049   -7128.0711    -6467.998   -768.00349     102002.7      46.7237      46.7237      46.7237 
  240000    125.77593   -7116.2377   -6467.6362   -604.16713     102002.7      46.7237      46.7237      46.7237 
  241000     134.6319   -7131.6471   -6437.3772   -984.41874     102002.7      46.7237      46.7237      46.7237 
  242000     126.8765   -7145.3974   -6491.1205   -594.33145     102002.7      46.7237      46.7237      46.7237 
  243000    132.21953   -7137.9953   -6456.1654   -564.32865     102002.7      46.7237      46.7237      46.7237 
  244000    135.92515   -7120.5339   -6419.5949   -792.01476     102002.7      46.7237      46.7237      46.7237 
  245000    131.72557   -7133.8339   -6454.5513    -585.4075     102002.7      46.7237      46.7237      46.7237 
  246000    132.13124   -7134.7871   -6453.4126   -559.17924     102002.7      46.7237      46.7237      46.7237 
  247000    130.23075   -7150.8525   -6479.2784    -863.6877     102002.7      46.7237      46.7237      46.7237 
  248000    128.11925   -7109.1656   -6448.4801    -728.4461     102002.7      46.7237      46.7237      46.7237 
  249000     128.3421   -7123.7125   -6461.8778    -800.5408     102002.7      46.7237      46.7237      46.7237 
  250000    130.83635   -7093.2307   -6418.5336   -691.22365     102002.7      46.7237      46.7237      46.7237 
  251000    129.87843   -7119.7403    -6449.983    -427.8974     102002.7      46.7237      46.7237      46.7237 
  252000    130.71365    -7152.173   -6478.1087   -669.69997     102002.7      46.7237      46.7237      46.7237 
  253000     130.3288   -7125.5023   -6453.4226   -663.09973     102002.7      46.7237      46.7237      46.7237 
  254000    132.17113   -7114.0497   -6432.4694   -695.90605     102002.7      46.7237      46.7237      46.7237 
  255000    128.31902   -7115.2324   -6453.5167   -411.11638     102002.7      46.7237      46.7237      46.7237 
  256000    130.28128   -7142.2929   -6470.4582   -785.60437     102002.7      46.7237      46.7237      46.7237 
  257000    130.69195   -7113.9429   -6439.9905   -819.31983     102002.7      46.7237      46.7237      46.7237 
  258000    135.72272   -7121.4938   -6421.5987   -592.18479     102002.7      46.7237      46.7237      46.7237 
  259000    129.41187   -7124.5776   -6457.2263   -739.53719     102002.7      46.7237      46.7237      46.7237 
  260000    129.48422   -7144.7817   -6477.0573   -866.91156     102002.7      46.7237      46.7237      46.7237 
  261000     128.5894    -7122.817    -6459.707   -803.04233     102002.7      46.7237      46.7237      46.7237 
  262000    125.49281   -7121.0303   -6473.8889   -852.78225     102002.7      46.7237      46.7237      46.7237 
  263000    129.65983   -7125.7328   -6457.1028   -689.31539     102002.7      46.7237      46.7237      46.7237 
  264000    130.75789   -7138.9596   -6464.6671   -760.22589     102002.7      46.7237      46.7237      46.7237 
  265000    129.43209   -7128.1164   -6460.6608    -650.6592     102002.7      46.7237      46.7237      46.7237 
  266000    132.43968   -7143.7493   -6460.7842   -927.19303     102002.7      46.7237      46.7237      46.7237 
  267000    128.15973   -7123.4764   -6462.5821   -925.71349     102002.7      46.7237      46.7237      46.7237 
  268000    128.80705   -7132.7338   -6468.5014   -844.87723     102002.7      46.7237      46.7237      46.7237 
  269000    128.04146   -7127.3349   -6467.0505   -812.08509     102002.7      46.7237      46.7237      46.7237 
  270000    131.36423   -7128.8629   -6451.4436   -611.05414     102002.7      46.7237      46.7237      46.7237 
  271000    130.27865   -7148.6161   -6476.7949     -733.571     102002.7      46.7237      46.7237      46.7237 
  272000    134.01845   -7130.1664   -6439.0598   -770.76365     102002.7      46.7237      46.7237      46.7237 
  273000    128.37666   -7124.5171   -6462.5042   -776.66839     102002.7      46.7237      46.7237      46.7237 
  274000    127.06154   -7100.4858   -6445.2546   -861.60856     102002.7      46.7237      46.7237      46.7237 
  275000    129.69947   -7119.8429   -6451.0085    -886.0646     102002.7      46.7237      46.7237      46.7237 
  276000    128.93781   -7121.5434   -6456.6367      -629.95     102002.7      46.7237      46.7237      46.7237 
  277000    132.49876   -7084.7186   -6401.4487    -709.1649     102002.7      46.7237      46.7237      46.7237 
  278000    125.91419   -7112.4623   -6463.1479   -827.14942     102002.7      46.7237      46.7237      46.7237 
  279000    134.76816    -7105.324   -6410.3513   -753.78484     102002.7      46.7237      46.7237      46.7237 
  280000     131.8897   -7150.5025   -6470.3735   -536.02531     102002.7      46.7237      46.7237      46.7237 
  281000    130.17194   -7111.3998    -6440.129   -517.77538     102002.7      46.7237      46.7237      46.7237 
  282000    126.46482   -7122.7307   -6470.5767   -642.97639     102002.7      46.7237      46.7237      46.7237 
  283000    133.07425   -7135.1695   -6448.9321   -588.21178     102002.7      46.7237      46.7237      46.7237 
  284000    130.10818   -7091.5327   -6420.5907   -738.35115     102002.7      46.7237      46.7237      46.7237 
  285000    132.82197   -7145.4079   -6460.4714   -592.89106     102002.7      46.7237      46.7237      46.7237 
  286000    127.23799   -7134.9107   -6478.7697   -877.61529     102002.7      46.7237      46.7237      46.7237 
  287000    129.85685    -7119.087    -6449.441   -675.35932     102002.7      46.7237      46.7237      46.7237 
  288000    129.86808   -7137.9932   -6468.2894   -773.66805     102002.7      46.7237      46.7237      46.7237 
  289000    127.90428   -7088.4134   -6428.8364   -745.84937     102002.7      46.7237      46.7237      46.7237 
  290000       127.75   -7125.2049   -6466.4235   -790.93157     102002.7      46.7237      46.7237      46.7237 
  291000    132.61671   -7109.6105   -6425.7324    -538.1174     102002.7      46.7237      46.7237      46.7237 
  292000    127.39911   -7125.5269    -6468.555   -734.30065     102002.7      46.7237      46.7237      46.7237 
  293000    130.00086   -7113.7773   -6443.3887     -758.548     102002.7      46.7237      46.7237      46.7237 
  294000    127.17149   -7128.2288   -6472.4307   -587.68122     102002.7      46.7237      46.7237      46.7237 
  295000      135.319   -7118.0696   -6420.2564   -722.57093     102002.7      46.7237      46.7237      46.7237 
  296000    130.22295   -7129.2774   -6457.7435   -749.69219     102002.7      46.7237      46.7237      46.7237 
  297000     128.1899   -7114.5343   -6453.4845   -645.07776     102002.7      46.7237      46.7237      46.7237 
  298000    128.86486   -7139.4409   -6474.9104   -858.48542     102002.7      46.7237      46.7237      46.7237 
  299000    132.54158   -7123.2473   -6439.7567    -629.9018     102002.7      46.7237      46.7237      46.7237 
  300000    124.48757   -7123.8868   -6481.9292    -1032.402     102002.7      46.7237      46.7237      46.7237 
  301000    128.05576   -7111.1583   -6450.8002   -729.42696     102002.7      46.7237      46.7237      46.7237 
  302000    127.90401   -7141.4455   -6481.8699   -879.34703     102002.7      46.7237      46.7237      46.7237 
  303000    131.53545   -7122.0861   -6443.7839   -1037.9861     102002.7      46.7237      46.7237      46.7237 
  304000     130.3605   -7138.9608   -6466.7176   -755.49532     102002.7      46.7237      46.7237      46.7237 
  305000    128.47947   -7119.5819   -6457.0388   -652.61397     102002.7      46.7237      46.7237      46.7237 
  306000    124.10283   -7128.5229   -6488.5492   -677.71962     102002.7      46.7237      46.7237      46.7237 
  307000    126.99493   -7114.1132   -6459.2256   -550.16889     102002.7      46.7237      46.7237      46.7237 
  308000    133.47346    -7124.408   -6436.1119    -459.0539     102002.7      46.7237      46.7237      46.7237 
  309000    126.08167   -7118.8658   -6468.6877   -817.06509     102002.7      46.7237      46.7237      46.7237 
  310000    131.99632   -7124.6625   -6443.9837   -457.95593     102002.7      46.7237      46.7237      46.7237 
  311000    130.85335   -7139.6475   -6464.8628   -628.63255     102002.7      46.7237      46.7237      46.7237 
  312000    130.26366   -7122.0117   -6450.2678   -480.94292     102002.7      46.7237      46.7237      46.7237 
  313000    131.70049   -7148.2752   -6469.1219   -665.16434     102002.7      46.7237      46.7237      46.7237 
  314000    131.99729   -7130.5283   -6449.8445   -723.09638     102002.7      46.7237      46.7237      46.7237 
  315000     133.0929   -7144.6719   -6458.3383   -701.01739     102002.7      46.7237      46.7237      46.7237 
  316000     127.8802   -7137.1631   -6477.7102   -621.17505     102002.7      46.7237      46.7237      46.7237 
  317000    130.63484   -7131.5978   -6457.9399   -629.84941     102002.7      46.7237      46.7237      46.7237 
  318000    134.80503   -7123.5768    -6428.414   -580.86113     102002.7      46.7237      46.7237      46.7237 
  319000    130.55152   -7128.7653   -6455.5371   -671.87889     102002.7      46.7237      46.7237      46.7237 
  320000     129.4589   -7123.9779    -6456.384   -704.66216     102002.7      46.7237      46.7237      46.7237 
  321000     130.5583    -7110.058   -6436.7948   -742.05462     102002.7      46.7237      46.7237      46.7237 
  322000    126.59465   -7128.8081   -6475.9846   -883.28711     102002.7      46.7237      46.7237      46.7237 
  323000    129.63819   -7120.0662   -6451.5478   -972.14318     102002.7      46.7237      46.7237      46.7237 
  324000    128.79777    -7136.076   -6471.8915    -847.9777     102002.7      46.7237      46.7237      46.7237 
  325000    129.48586   -7138.5233   -6470.7905   -911.71931     102002.7      46.7237      46.7237      46.7237 
  326000    125.54983   -7116.1449   -6468.7094   -796.73325     102002.7      46.7237      46.7237      46.7237 
  327000    131.05154   -7108.3134   -6432.5066   -957.33848     102002.7      46.7237      46.7237      46.7237 
  328000    132.64558   -7132.3997   -6448.3728   -1037.9361     102002.7      46.7237      46.7237      46.7237 
  329000    130.69002   -7112.8446   -6438.9021   -787.13555     102002.7      46.7237      46.7237      46.7237 
  330000    128.45251   -7105.5602   -6443.1561   -785.61873     102002.7      46.7237      46.7237      46.7237 
  331000    128.51232   -7150.9962   -6488.2837    -1012.643     102002.7      46.7237      46.7237      46.7237 
  332000    133.49458   -7132.6534   -6444.2484   -725.94284     102002.7      46.7237      46.7237      46.7237 
  333000    127.95256   -7121.6519    -6461.826     -975.991     102002.7      46.7237      46.7237      46.7237 
  334000    129.12491   -7136.8898   -6471.0183    -1125.456     102002.7      46.7237      46.7237      46.7237 
  335000    130.08577   -7118.1081   -6447.2816   -733.44587     102002.7      46.7237      46.7237      46.7237 
  336000    127.01516   -7143.7894   -6488.7975   -581.55397     102002.7      46.7237      46.7237      46.7237 
  337000    132.07223   -7132.8931   -6451.8228   -718.57828     102002.7      46.7237      46.7237      46.7237 
  338000    128.37275   -7138.1656   -6476.1729   -711.47849     102002.7      46.7237      46.7237      46.7237 
  339000    135.50704   -7126.3227   -6427.5398   -349.78592     102002.7      46.7237      46.7237      46.7237 
  340000    134.00458   -7129.3391   -6438.3041   -648.46542     102002.7      46.7237      46.7237      46.7237 
  341000    127.04501   -7122.6496   -6467.5037   -762.48115     102002.7      46.7237      46.7237      46.7237 
  342000    129.57287   -7122.7844   -6454.6029   -916.09323     102002.7      46.7237      46.7237      46.7237 
  343000    129.08743   -7120.2618   -6454.5836   -503.58718     102002.7      46.7237      46.7237      46.7237 
  344000    129.46909   -7133.0877   -6465.4413   -652.33566     102002.7      46.7237      46.7237      46.7237 
  345000    133.47972   -7125.0244   -6436.6959   -776.10072     102002.7      46.7237      46.7237      46.7237 
  346000    129.80557   -7135.6051   -6466.2235   -668.26937     102002.7      46.7237      46.7237      46.7237 
  347000    133.28671   -7109.9648   -6422.6317   -619.54858     102002.7      46.7237      46.7237      46.7237 
  348000    133.81801   -7127.6596   -6437.5867   -863.15963     102002.7      46.7237      46.7237      46.7237 
  349000    125.74657   -7149.3514   -6500.9014   -377.12639     102002.7      46.7237      46.7237      46.7237 
  350000    131.28938   -7124.3322   -6447.2989    -545.7949     102002.7      46.7237      46.7237      46.7237 
  351000    128.09161   -7117.7124   -6457.1694   -643.16933     102002.7      46.7237      46.7237      46.7237 
  352000    131.51387   -7127.0887   -6448.8978   -455.57484     102002.7      46.7237      46.7237      46.7237 
  353000    131.55059   -7129.2653    -6450.885   -621.55201     102002.7      46.7237      46.7237      46.7237 
  354000    130.10376   -7144.3452   -6473.4259    -354.9567     102002.7      46.7237      46.7237      46.7237 
  355000    131.37097   -7104.2596   -6426.8056   -789.67012     102002.7      46.7237      46.7237      46.7237 
  356000    130.04828   -7119.8613   -6449.2282   -377.51549     102002.7      46.7237      46.7237      46.7237 
  357000    130.63954   -7140.5324   -6466.8502   -505.57313     102002.7      46.7237      46.7237      46.7237 
  358000    133.77026   -7091.7143   -6401.8876   -327.45956     102002.7      46.7237      46.7237      46.7237 
  359000    129.69092   -7131.7069   -6462.9166   -473.16284     102002.7      46.7237      46.7237      46.7237 
  360000    129.32979    -7122.287   -6455.3589   -800.19919     102002.7      46.7237      46.7237      46.7237 
  361000    133.09447   -7110.5882   -6424.2465   -926.28388     102002.7      46.7237      46.7237      46.7237 
  362000    126.18746   -7120.2245   -6469.5008   -766.06435     102002.7      46.7237      46.7237      46.7237 
  363000    132.27521   -7109.9684   -6427.8515   -743.35439     102002.7      46.7237      46.7237      46.7237 
  364000     129.2971   -7144.1647   -6477.4052   -983.46448     102002.7      46.7237      46.7237      46.7237 
  365000      129.845   -7134.5524   -6464.9676   -847.95878     102002.7      46.7237      46.7237      46.7237 
  366000    132.64774   -7147.7648   -6463.7268   -696.96073     102002.7      46.7237      46.7237      46.7237 
  367000    130.40837   -7102.4262   -6429.9361   -398.32659     102002.7      46.7237      46.7237      46.7237 
  368000    126.95206   -7136.1747   -6481.5081   -837.92486     102002.7      46.7237      46.7237      46.7237 
  369000    125.26187   -7094.8311   -6448.8805   -898.82273     102002.7      46.7237      46.7237      46.7237 
  370000    123.22656   -7139.3777   -6503.9228   -601.74816     102002.7      46.7237      46.7237      46.7237 
  371000    128.78075   -7102.3493   -6438.2525    -803.5546     102002.7      46.7237      46.7237      46.7237 
  372000    129.44854   -7123.6641   -6456.1237   -442.26886     102002.7      46.7237      46.7237      46.7237 
  373000    130.80505   -7132.6124   -6458.0767   -610.65796     102002.7      46.7237      46.7237      46.7237 
  374000    130.92865   -7119.1477   -6443.9747    -657.6786     102002.7      46.7237      46.7237      46.7237 
  375000    130.90308   -7135.4873   -6460.4461   -538.45195     102002.7      46.7237      46.7237      46.7237 
  376000    130.52022   -7115.1102   -6442.0434   -734.99215     102002.7      46.7237      46.7237      46.7237 
  377000    130.07449   -7145.4065   -6474.6382   -529.72441     102002.7      46.7237      46.7237      46.7237 
  378000    131.71738   -7106.0816   -6426.8412   -831.18196     102002.7      46.7237      46.7237      46.7237 
  379000     131.3298   -7118.8108   -6441.5691   -709.39683     102002.7      46.7237      46.7237      46.7237 
  380000    129.82602   -7131.3137   -6461.8267   -652.82768     102002.7      46.7237      46.7237      46.7237 
  381000    137.67094   -7124.1963   -6414.2546   -639.69305     102002.7      46.7237      46.7237      46.7237 
  382000     131.5228   -7132.9142   -6454.6772   -792.97243     102002.7      46.7237      46.7237      46.7237 
  383000    129.14083   -7114.0376    -6448.084    -764.9155     102002.7      46.7237      46.7237      46.7237 
  384000    131.73861   -7121.9098     -6442.56    -458.3775     102002.7      46.7237      46.7237      46.7237 
  385000    126.08472   -7132.6124   -6482.4185   -930.85837     102002.7      46.7237      46.7237      46.7237 
  386000    129.65342   -7129.2841   -6460.6872   -651.77541     102002.7      46.7237      46.7237      46.7237 
  387000     131.4419   -7126.3361   -6448.5163    -824.5047     102002.7      46.7237      46.7237      46.7237 
  388000    131.83971   -7126.2009   -6446.3297   -917.35774     102002.7      46.7237      46.7237      46.7237 
  389000    131.98547   -7116.9229      -6436.3   -418.67502     102002.7      46.7237      46.7237      46.7237 
  390000    126.16124   -7118.3512   -6467.7628   -727.53158     102002.7      46.7237      46.7237      46.7237 
  391000    126.88708    -7134.984   -6480.6526   -647.43282     102002.7      46.7237      46.7237      46.7237 
  392000    125.24174   -7089.0072   -6443.1604   -680.25748     102002.7      46.7237      46.7237      46.7237 
  393000      130.762   -7128.5325   -6454.2188    -875.7193     102002.7      46.7237      46.7237      46.7237 
  394000    133.66376   -7125.5888   -6436.3114   -990.65519     102002.7      46.7237      46.7237      46.7237 
  395000    128.14243   -7117.8583   -6457.0533   -689.31297     102002.7      46.7237      46.7237      46.7237 
  396000    131.69431   -7114.8777   -6435.7563   -545.24741     102002.7      46.7237      46.7237      46.7237 
  397000    128.79774   -7118.3341   -6454.1497   -537.03875     102002.7      46.7237      46.7237      46.7237 
  398000    129.89392   -7117.7952   -6447.9581   -697.83618     102002.7      46.7237      46.7237      46.7237 
  399000    126.87983   -7138.7048   -6484.4107    -601.2449     102002.7      46.7237      46.7237      46.7237 
  400000    129.20673   -7115.7304    -6449.437   -817.49265     102002.7      46.7237      46.7237      46.7237 
  401000     129.4088   -7121.6971   -6454.3617   -653.22388     102002.7      46.7237      46.7237      46.7237 
  402000    133.46555   -7111.5044    -6423.249   -899.34379     102002.7      46.7237      46.7237      46.7237 
  403000    128.02455   -7127.5713   -6467.3741   -352.45953     102002.7      46.7237      46.7237      46.7237 
  404000    129.56355   -7099.9778   -6431.8444   -765.25548     102002.7      46.7237      46.7237      46.7237 
  405000    129.21988   -7131.9865   -6465.6252   -853.32762     102002.7      46.7237      46.7237      46.7237 
  406000    134.92081   -7132.7233   -6436.9635   -603.39638     102002.7      46.7237      46.7237      46.7237 
  407000    126.39818   -7123.7347   -6471.9244   -910.53556     102002.7      46.7237      46.7237      46.7237 
  408000    128.46538   -7131.5275    -6469.057   -635.88306     102002.7      46.7237      46.7237      46.7237 
  409000    130.27467   -7116.9827   -6445.1821   -675.81752     102002.7      46.7237      46.7237      46.7237 
  410000    131.61563   -7110.7534   -6432.0377   -367.47656     102002.7      46.7237      46.7237      46.7237 
  411000    131.47783   -7141.6942   -6463.6891   -574.49032     102002.7      46.7237      46.7237      46.7237 
  412000    129.93606   -7099.5506   -6429.4961   -668.46587     102002.7      46.7237      46.7237      46.7237 
  413000    130.50799   -7114.6011   -6441.5974   -595.85003     102002.7      46.7237      46.7237      46.7237 
  414000    123.40557   -7128.3203   -6491.9423   -599.43491     102002.7      46.7237      46.7237      46.7237 
  415000     130.2683   -7121.2553   -6449.4875   -527.02587     102002.7      46.7237      46.7237      46.7237 
  416000     129.7077   -7154.1616   -6485.2847   -617.87873     102002.7      46.7237      46.7237      46.7237 
  417000    127.98438   -7127.7262   -6467.7362   -547.27514     102002.7      46.7237      46.7237      46.7237 
  418000    134.49894   -7098.4956   -6404.9113     -695.517     102002.7      46.7237      46.7237      46.7237 
  419000    129.02363    -7133.016   -6467.6667   -331.80503     102002.7      46.7237      46.7237      46.7237 
  420000    131.07215   -7142.4942   -6466.5811    -496.0132     102002.7      46.7237      46.7237      46.7237 
  421000    127.81628   -7127.8826   -6468.7594   -512.81896     102002.7      46.7237      46.7237      46.7237 
  422000    126.38841   -7119.1104   -6467.3505   -592.99726     102002.7      46.7237      46.7237      46.7237 
  423000    128.54491   -7138.2497   -6475.3691   -769.01043     102002.7      46.7237      46.7237      46.7237 
  424000    130.47618   -7125.9976   -6453.1578   -782.28593     102002.7      46.7237      46.7237      46.7237 
  425000    129.88204   -7107.6643   -6437.8884   -360.00539     102002.7      46.7237      46.7237      46.7237 
  426000    128.44099   -7148.0568   -6485.7121   -326.06679     102002.7      46.7237      46.7237      46.7237 
  427000    135.07478   -7127.5353   -6430.9815   -718.13181     102002.7      46.7237      46.7237      46.7237 
  428000    129.27382   -7147.6298   -6480.9904   -660.55326     102002.7      46.7237      46.7237      46.7237 
  429000    134.56416    -7132.583   -6438.6623   -767.99893     102002.7      46.7237      46.7237      46.7237 
  430000    133.41167   -7127.6592   -6439.6817   -434.97055     102002.7      46.7237      46.7237      46.7237 
  431000    129.80999   -7137.4369   -6468.0325   -761.50283     102002.7      46.7237      46.7237      46.7237 
  432000    127.65154   -7104.2458   -6445.9722    -449.8528     102002.7      46.7237      46.7237      46.7237 
  433000     127.3775   -7108.0445    -6451.184   -881.74297     102002.7      46.7237      46.7237      46.7237 
  434000    126.57688   -7126.6526   -6473.9207   -429.55654     102002.7      46.7237      46.7237      46.7237 
  435000    125.58802   -7134.7208   -6487.0883   -332.86199     102002.7      46.7237      46.7237      46.7237 
  436000    130.62491   -7110.5205   -6436.9138   -638.71663     102002.7      46.7237      46.7237      46.7237 
  437000    131.62463   -7136.2303   -6457.4682   -699.27173     102002.7      46.7237      46.7237      46.7237 
  438000    125.38095   -7150.0229   -6503.4583   -760.15828     102002.7      46.7237      46.7237      46.7237 
  439000    130.08102   -7107.2079   -6436.4059   -815.91673     102002.7      46.7237      46.7237      46.7237 
  440000    129.55088    -7134.041   -6465.9728   -781.33232     102002.7      46.7237      46.7237      46.7237 
  441000    132.01389   -7126.3565   -6445.5871   -652.83126     102002.7      46.7237      46.7237      46.7237 
  442000    131.40693   -7134.0763   -6456.4368   -586.11033     102002.7      46.7237      46.7237      46.7237 
  443000     127.6737   -7112.6179     -6454.23   -934.05297     102002.7      46.7237      46.7237      46.7237 
  444000    131.65945   -7107.2093   -6428.2677   -722.99919     102002.7      46.7237      46.7237      46.7237 
  445000    127.44999   -7128.7711   -6471.5368   -1062.8585     102002.7      46.7237      46.7237      46.7237 
  446000    135.13509   -7150.4407   -6453.5759   -606.73511     102002.7      46.7237      46.7237      46.7237 
  447000    133.79467   -7139.4267   -6449.4742   -827.21714     102002.7      46.7237      46.7237      46.7237 
  448000    124.24505   -7121.7125   -6481.0055   -397.07408     102002.7      46.7237      46.7237      46.7237 
  449000    130.34221   -7126.5762   -6454.4273   -500.52455     102002.7      46.7237      46.7237      46.7237 
  450000    135.24055   -7122.0944   -6424.6858   -523.69823     102002.7      46.7237      46.7237      46.7237 
  451000    129.22904   -7130.8894   -6464.4809   -347.10694     102002.7      46.7237      46.7237      46.7237 
  452000    130.63028   -7117.5554    -6443.921   -511.71159     102002.7      46.7237      46.7237      46.7237 
  453000    128.37543   -7142.1114   -6480.1048   -396.20192     102002.7      46.7237      46.7237      46.7237 
  454000    133.40166    -7123.529   -6435.6031   -534.75728     102002.7      46.7237      46.7237      46.7237 
  455000    129.47514   -7147.9117   -6480.2341   -326.33982     102002.7      46.7237      46.7237      46.7237 
  456000    131.79228    -7136.277   -6456.6504    -482.7702     102002.7      46.7237      46.7237      46.7237 
  457000    129.51168   -7124.2171   -6456.3511   -474.21856     102002.7      46.7237      46.7237      46.7237 
  458000    131.71143   -7115.3342   -6436.1245   -901.17498     102002.7      46.7237      46.7237      46.7237 
  459000    127.63453   -7113.5079    -6455.322   -587.97019     102002.7      46.7237      46.7237      46.7237 
  460000     129.7299   -7134.0706   -6465.0792   -492.95998     102002.7      46.7237      46.7237      46.7237 
  461000    132.46239   -7122.6469   -6439.5647   -533.26705     102002.7      46.7237      46.7237      46.7237 
  462000    129.96684   -7112.5659   -6442.3527   -637.95364     102002.7      46.7237      46.7237      46.7237 
  463000    133.76512   -7136.2433   -6446.4432   -680.78494     102002.7      46.7237      46.7237      46.7237 
  464000    127.12924   -7142.0908   -6486.5105   -838.30341     102002.7      46.7237      46.7237      46.7237 
  465000    128.18875   -7128.8313   -6467.7874    -767.9663     102002.7      46.7237      46.7237      46.7237 
  466000    134.93017    -7109.623   -6413.8149   -853.50624     102002.7      46.7237      46.7237      46.7237 
  467000     130.4728   -7125.7313    -6452.909   -786.40621     102002.7      46.7237      46.7237      46.7237 
  468000    129.13983   -7113.0222   -6447.0737   -604.96926     102002.7      46.7237      46.7237      46.7237 
  469000    130.58474   -7109.6318   -6436.2322   -1107.1391     102002.7      46.7237      46.7237      46.7237 
  470000    132.82704   -7120.0487    -6435.086   -482.59506     102002.7      46.7237      46.7237      46.7237 
  471000    134.44604   -7160.1909   -6466.8794   -500.17893     102002.7      46.7237      46.7237      46.7237 
  472000    129.03741   -7116.6469   -6451.2266   -300.05903     102002.7      46.7237      46.7237      46.7237 
  473000    131.14569   -7128.7754   -6452.4831   -975.43396     102002.7      46.7237      46.7237      46.7237 
  474000    131.05438   -7113.1641   -6437.3427   -868.71403     102002.7      46.7237      46.7237      46.7237 
  475000    133.61091   -7117.4765   -6428.4716   -848.06826     102002.7      46.7237      46.7237      46.7237 
  476000    133.82183   -7151.9675   -6461.8749   -658.09242     102002.7      46.7237      46.7237      46.7237 
  477000    123.75937   -7122.0318   -6483.8293   -661.17623     102002.7      46.7237      46.7237      46.7237 
  478000    128.58845   -7133.7518   -6470.6467   -1004.5727     102002.7      46.7237      46.7237      46.7237 
  479000    135.44146   -7137.3569   -6438.9122   -503.15187     102002.7      46.7237      46.7237      46.7237 
  480000    133.68509   -7134.5392   -6445.1518   -1001.8141     102002.7      46.7237      46.7237      46.7237 
  481000    131.88922   -7145.1131   -6464.9866   -1043.6808     102002.7      46.7237      46.7237      46.7237 
  482000    131.05201   -7151.5983   -6475.7891   -928.09554     102002.7      46.7237      46.7237      46.7237 
  483000    130.01282   -7120.3514   -6449.9012   -1044.2343     102002.7      46.7237      46.7237      46.7237 
  484000    126.00328   -7132.3588    -6482.585   -608.07862     102002.7      46.7237      46.7237      46.7237 
  485000    130.73938   -7138.3022   -6464.1052   -802.18709     102002.7      46.7237      46.7237      46.7237 
  486000    126.11831   -7094.9907   -6444.6237   -570.48437     102002.7      46.7237      46.7237      46.7237 
  487000    131.47182   -7137.4452   -6459.4712   -804.17129     102002.7      46.7237      46.7237      46.7237 
  488000    130.27848   -7110.2742    -6438.454   -797.99418     102002.7      46.7237      46.7237      46.7237 
  489000    131.53715   -7122.8602   -6444.5493   -664.57683     102002.7      46.7237      46.7237      46.7237 
  490000    129.33638   -7130.7769   -6463.8148   -825.90576     102002.7      46.7237      46.7237      46.7237 
  491000    126.97194   -7141.9473   -6487.1782   -844.75159     102002.7      46.7237      46.7237      46.7237 
  492000    133.41011   -7132.4982   -6444.5288   -639.32654     102002.7      46.7237      46.7237      46.7237 
  493000    129.56571   -7155.6569   -6487.5123   -939.47751     102002.7      46.7237      46.7237      46.7237 
  494000    131.29848   -7125.1386   -6448.0584   -1175.2438     102002.7      46.7237      46.7237      46.7237 
  495000    131.26684   -7154.7573   -6477.8403   -530.32607     102002.7      46.7237      46.7237      46.7237 
  496000    131.03311   -7120.7737    -6445.062   -896.50887     102002.7      46.7237      46.7237      46.7237 
  497000    129.37916   -7132.1491   -6464.9664   -990.16306     102002.7      46.7237      46.7237      46.7237 
  498000    127.20573   -7137.9712   -6481.9965   -649.67212     102002.7      46.7237      46.7237      46.7237 
  499000    130.56658   -7133.1759     -6459.87   -1036.7059     102002.7      46.7237      46.7237      46.7237 
  500000    125.51539   -7114.2867   -6467.0287   -1012.4087     102002.7      46.7237      46.7237      46.7237 
  500504    129.50103   -7125.5173   -6457.7062   -1108.2155     102002.7      46.7237      46.7237      46.7237 
Loop time of 1283.54 on 16 procs for 500000 steps with 1731 atoms

Performance: 33.657 ns/day, 0.713 hours/ns, 389.549 timesteps/s
99.8% CPU use with 16 MPI tasks x no OpenMP threads

MPI task timing breakdown:
Section |  min time  |  avg time  |  max time  |%varavg| %total
---------------------------------------------------------------
Pair    | 499.19     | 686.2      | 854.99     | 457.5 | 53.46
Bond    | 169.3      | 173.86     | 179.15     |  21.1 | 13.55
Neigh   | 3.9162     | 3.9275     | 3.938      |   0.3 |  0.31
Comm    | 237.77     | 405.05     | 594.01     | 597.3 | 31.56
Output  | 0.02041    | 0.020912   | 0.023513   |   0.5 |  0.00
Modify  | 8.0787     | 8.6704     | 9.5782     |  17.1 |  0.68
Other   |            | 5.797      |            |       |  0.45

Nlocal:    108.188 ave 134 max 81 min
Histogram: 2 1 0 4 0 0 5 1 2 1
Nghost:    2212.56 ave 2246 max 2189 min
Histogram: 2 3 3 1 0 2 3 1 0 1
Neighs:    11447.4 ave 16758 max 5558 min
Histogram: 1 1 0 4 0 3 3 3 0 1

Total # of neighbors = 183158
Ave neighs/atom = 105.811
Ave special neighs/atom = 6.65511
Neighbor list builds = 3424
Dangerous builds = 0
Neighbor list info ...
  update every 1 steps, delay 10 steps, check yes
  max neighbors/atom: 2000, page size: 100000
  master list distance cutoff = 16
  ghost atom cutoff = 16
  binsize = 8, bins = 6 6 6
  3 neighbor lists, perpetual/occasional/extra = 3 0 0
  (1) pair buck6d/coul/gauss/dsf, perpetual, skip from (3)
      attributes: half, newton on
      pair build: skip
      stencil: none
      bin: none
  (2) pair lj/cut, perpetual, skip from (3)
      attributes: half, newton on
      pair build: skip
      stencil: none
      bin: none
  (3) neighbor class addition, perpetual
      attributes: half, newton on
      pair build: half/bin/newton
      stencil: half/bin/3d/newton
      bin: standard
Setting up Verlet run ...
  Unit style    : real
  Current step  : 500504
  Time step     : 1
WARNING: Inconsistent image flags (../domain.cpp:786)
Per MPI rank memory allocation (min/avg/max) = 23.33 | 23.33 | 23.33 Mbytes
Step Time TotEng KinEng PotEng E_mol E_pair Temp Pxx Pyy Pzz Pxy Pxz Pyz Cella Cellb Cellc CellAlpha CellBeta CellGamma Volume Press 
  500504       500000   -6457.7062    667.81107   -7125.5173      4415.79   -11541.307    129.50103   -1243.8387   -1084.2854   -996.52244    38.112243   -4.6868601    -115.2141      46.7237      46.7237      46.7237           90           90           90     102002.7   -1108.2155 
  501000       500496   -6469.4829    650.34727   -7119.8302    4431.3771   -11551.207    126.11447   -864.73732   -1119.5872   -840.55696    116.49155   -160.97312   -83.096015      46.7237      46.7237      46.7237           90           90           90     102002.7   -941.62715 
  502000       501496   -6435.9005    675.04511   -7110.9456     4428.651   -11539.597    130.90384   -922.94873   -797.91815   -1160.7004   -198.50783    230.54446   -514.21665      46.7237      46.7237      46.7237           90           90           90     102002.7   -960.52241 
  503000       502496   -6452.8115     682.7184   -7135.5299    4408.1472   -11543.677    132.39183     -897.397   -1140.3191   -924.67893   -103.11701   -20.528328   -157.24195      46.7237      46.7237      46.7237           90           90           90     102002.7   -987.46502 
  504000       503496   -6463.8059    664.38198   -7128.1879    4424.8808   -11553.069    128.83606   -602.42192   -607.99823   -653.61367   -129.52853   -25.274177   -95.940504      46.7237      46.7237      46.7237           90           90           90     102002.7   -621.34461 
  505000       504496   -6454.2368    679.69899   -7133.9358    4405.6687   -11539.604    131.80632   -1259.2155   -632.69794   -824.14313   -141.89736    262.97189   -56.496464      46.7237      46.7237      46.7237           90           90           90     102002.7    -905.3522 
  506000       505496   -6448.3007    660.50066   -7108.8014    4435.5835   -11544.385     128.0834    -617.8492   -971.79698   -896.49277   -12.697444     204.5161   -144.54306      46.7237      46.7237      46.7237           90           90           90     102002.7   -828.71299 
  507000       506496   -6486.6075    676.02017   -7162.6277    4383.5204   -11546.148    131.09292   -748.14361   -373.36346   -416.88797   -180.56225    27.534846   -20.520037      46.7237      46.7237      46.7237           90           90           90     102002.7   -512.79835 
  508000       507496   -6456.6426    687.81837    -7144.461    4401.4605   -11545.921    133.38081   -1113.8718   -941.15989   -965.39969   -3.7652632    92.448399    78.733497      46.7237      46.7237      46.7237           90           90           90     102002.7   -1006.8105 
  509000       508496   -6466.4313    666.46303   -7132.8943    4431.7625   -11564.657    129.23962   -217.66612   -748.96575    -1252.649   -203.75898    127.59355   -217.71543      46.7237      46.7237      46.7237           90           90           90     102002.7    -739.7603 
  510000       509496   -6468.9143    662.37033   -7131.2847     4409.872   -11541.157    128.44597   -950.31642   -1098.4435    -599.3604    228.23197   -43.238754   -90.481343      46.7237      46.7237      46.7237           90           90           90     102002.7   -882.70675 
  511000       510496   -6438.3153    685.21345   -7123.5287    4427.2416    -11550.77    132.87567   -346.74464   -577.51854   -372.06948    14.501158    19.922963    295.37637      46.7237      46.7237      46.7237           90           90           90     102002.7   -432.11088 
  512000       511496   -6459.3451    667.26767   -7126.6128    4423.0969    -11549.71    129.39565   -198.61912   -385.80405   -587.56305    64.482045    76.074574   -50.888704      46.7237      46.7237      46.7237           90           90           90     102002.7   -390.66207 
  513000       512496   -6479.4238    664.00504   -7143.4288    4410.5633   -11553.992    128.76297   -748.89445   -998.00301   -865.83202     391.7415    61.329273   -7.7890749      46.7237      46.7237      46.7237           90           90           90     102002.7   -870.90983 
  514000       513496    -6447.484    692.07737   -7139.5614    4403.2133   -11542.775    134.20671   -400.15629   -489.55092   -633.26319   -21.372223    30.932305     94.64352      46.7237      46.7237      46.7237           90           90           90     102002.7    -507.6568 
  515000       514496   -6427.3011     679.9488   -7107.2499      4438.04    -11545.29    131.85476   -881.52396   -724.98654   -505.36882   -318.08532   -187.01122   -40.466007      46.7237      46.7237      46.7237           90           90           90     102002.7   -703.95977 
  516000       515496   -6456.1594    674.76171   -7130.9211    4428.2567   -11559.178    130.84889   -1115.1882   -903.74189   -1028.6183   -153.57152    158.00942    122.44011      46.7237      46.7237      46.7237           90           90           90     102002.7   -1015.8494 
  517000       516496   -6454.7934    682.96542   -7137.7589    4414.5799   -11552.339    132.43974   -1187.7283   -599.39662   -1126.2666    51.785278    47.406637     3.694192      46.7237      46.7237      46.7237           90           90           90     102002.7   -971.13051 
  518000       517496    -6444.892    664.76262   -7109.6546    4426.1705   -11535.825    128.90987   -792.36466   -978.90746   -1515.6115   -145.43735   -140.92707    90.443711      46.7237      46.7237      46.7237           90           90           90     102002.7   -1095.6279 
  519000       518496   -6462.4019    692.88589   -7155.2878    4409.0063   -11564.294     134.3635   -1007.8818   -893.08381    -186.1856   -82.489442   -65.685014    -211.0035      46.7237      46.7237      46.7237           90           90           90     102002.7   -695.71707 
  520000       519496   -6455.8099    673.78588   -7129.5958    4408.2229   -11537.819    130.65965   -948.89883   -1013.6293   -916.46006   -44.825657   -24.766872   -62.607244      46.7237      46.7237      46.7237           90           90           90     102002.7   -959.66274 
  521000       520496   -6464.8843    674.82573   -7139.7101    4405.8564   -11545.567     130.8613   -1434.4151   -840.57049   -1180.8182    27.470799   -136.03253   -10.569401      46.7237      46.7237      46.7237           90           90           90     102002.7   -1151.9346 
  522000       521496    -6445.766    683.66127   -7129.4273    4422.8692   -11552.297    132.57468   -662.18882   -1021.6318   -134.40178    179.73702    87.465794     126.6467      46.7237      46.7237      46.7237           90           90           90     102002.7   -606.07414 
  523000       522496   -6477.5487    645.16261   -7122.7113    4411.2583    -11533.97    125.10907   -1044.9054   -934.70081    -299.4559    128.80922    78.004502    45.859748      46.7237      46.7237      46.7237           90           90           90     102002.7   -759.68737 
  524000       523496   -6450.1357    669.33375   -7119.4694    4426.4728   -11545.942     129.7963    -642.7174   -925.35575    -809.8721    218.67641    213.71313    187.19911      46.7237      46.7237      46.7237           90           90           90     102002.7   -792.64842 
  525000       524496   -6445.5758     665.2932    -7110.869    4437.8805   -11548.749    129.01276   -549.68744   -657.17685    -1005.272    226.37907   -206.63343   -2.1267672      46.7237      46.7237      46.7237           90           90           90     102002.7   -737.37877 
  526000       525496   -6461.5947    685.09862   -7146.6933    4394.3154   -11541.009     132.8534   -650.13633   -1161.0834   -187.53854   -72.083217    29.072701   -147.25348      46.7237      46.7237      46.7237           90           90           90     102002.7   -666.25277 
  527000       526496   -6439.0678    677.51681   -7116.5846    4421.4156       -11538    131.38315   -495.96448   -873.54412   -312.73453    172.96656    331.51738     62.39381      46.7237      46.7237      46.7237           90           90           90     102002.7   -560.74771 
  528000       527496   -6419.7897     682.6422   -7102.4319    4437.9013   -11540.333    132.37706   -999.12076    -493.1936   -689.90867    95.797051    168.71189   -191.61436      46.7237      46.7237      46.7237           90           90           90     102002.7   -727.40768 
  529000       528496    -6464.824     659.5368   -7124.3608    4419.2659   -11543.627    127.89649   -1128.7483   -989.89685    -377.3787    79.999532   -163.98365    151.93587      46.7237      46.7237      46.7237           90           90           90     102002.7   -832.00794 
  530000       529496   -6437.8751    681.10683   -7118.9819    4422.8756   -11541.858    132.07932   -548.61847   -506.03925   -649.05723    4.2219004    94.564573   -21.569013      46.7237      46.7237      46.7237           90           90           90     102002.7   -567.90498 
  531000       530496   -6469.9551     647.2699    -7117.225    4421.6907   -11538.916    125.51771   -407.93044    -977.9847   -781.46168   -240.02124   -2.1656444     31.77528      46.7237      46.7237      46.7237           90           90           90     102002.7   -722.45894 
  532000       531496   -6425.2751    672.77042   -7098.0455    4443.6534   -11541.699    130.46274   -118.01001   -1106.6646   -859.63384    4.4868937   -163.35678   -62.212212      46.7237      46.7237      46.7237           90           90           90     102002.7   -694.76948 
  533000       532496   -6459.9861    665.51477   -7125.5008    4399.9278   -11525.429    129.05573   -930.09634   -559.31076   -629.73811   -213.44692   -7.7190844   -105.71793      46.7237      46.7237      46.7237           90           90           90     102002.7   -706.38174 
  534000       533496   -6473.1184      656.538   -7129.6564    4402.8579   -11532.514    127.31497   -358.32803   -393.99171   -886.20185    88.696166    32.641574    137.44361      46.7237      46.7237      46.7237           90           90           90     102002.7   -546.17386 
  535000       534496   -6422.5412    670.65731   -7093.1985    4438.7055   -11531.904    130.05296   -952.38312   -1068.1113   -909.60456   -91.108601   -132.00735   -112.97832      46.7237      46.7237      46.7237           90           90           90     102002.7   -976.69964 
  536000       535496   -6461.6123    665.05199   -7126.6643    4402.5808   -11529.245    128.96599   -1041.4418   -715.98992   -561.52459   -49.225244    1.3113042    155.65448      46.7237      46.7237      46.7237           90           90           90     102002.7   -772.98542 
  537000       536496     -6439.58    692.12957   -7131.7095    4400.2977   -11532.007    134.21684   -1516.6392   -779.61245   -793.82839   -77.267939    141.71947   -119.45588      46.7237      46.7237      46.7237           90           90           90     102002.7   -1030.0267 
  538000       537496    -6442.792    690.46952   -7133.2615    4412.8412   -11546.103    133.89492   -907.26554   -830.76013   -792.22412   -97.635594    240.08995   -14.031476      46.7237      46.7237      46.7237           90           90           90     102002.7    -843.4166 
  539000       538496   -6469.1234     677.1566     -7146.28    4396.7065   -11542.987     131.3133   -600.47633   -304.84356   -1114.5519   -40.786377    145.54801   -5.8568934      46.7237      46.7237      46.7237           90           90           90     102002.7   -673.29059 
  540000       539496   -6441.0309    676.31206    -7117.343    4412.2678   -11529.611    131.14953    -975.1207   -316.79276   -1517.0275   -25.531117    -9.058452    198.78811      46.7237      46.7237      46.7237           90           90           90     102002.7   -936.31365 
  541000       540496   -6429.3305    689.09752    -7118.428    4408.5011   -11526.929    133.62887    -717.9549   -66.671312    -510.4425   -346.12103    55.467763    337.04375      46.7237      46.7237      46.7237           90           90           90     102002.7   -431.68957 
  542000       541496   -6430.8513    696.14386   -7126.9951    4406.1269   -11533.122    134.99528   -377.11303   -416.60487   -1055.8574   -140.69495    59.116086    54.362837      46.7237      46.7237      46.7237           90           90           90     102002.7   -616.52511 
  543000       542496   -6449.9268     652.5324   -7102.4592    4444.1661   -11546.625    126.53821   -305.03548   -757.93211   -714.91799     131.9314   -163.98765   -320.34147      46.7237      46.7237      46.7237           90           90           90     102002.7   -592.62853 
  544000       543496    -6446.529    688.77065   -7135.2997    4405.8901    -11541.19    133.56548   -205.53892   -450.41668   -831.76713   -13.723594   -30.048017   -44.175323      46.7237      46.7237      46.7237           90           90           90     102002.7   -495.90757 
  545000       544496   -6459.0496    682.67262   -7141.7222    4396.4871   -11538.209    132.38296   -319.66326   -1190.6454   -538.68012    345.26722   -84.859587    154.09904      46.7237      46.7237      46.7237           90           90           90     102002.7   -682.99627 
  546000       545496   -6423.5591    688.75992    -7112.319    4434.7805     -11547.1     133.5634   -880.85621   -1147.8467   -453.07656   -16.538743    251.73604    187.36302      46.7237      46.7237      46.7237           90           90           90     102002.7   -827.25982 
  547000       546496   -6439.9238    682.12298   -7122.0468    4413.3779   -11535.425    132.27637     -721.582    -595.1724   -560.06349   -116.67763    66.093236     44.96189      46.7237      46.7237      46.7237           90           90           90     102002.7   -625.60596 
  548000       547496   -6449.9788    666.55478   -7116.5336    4417.8427   -11534.376    129.25741   -638.92972   -554.48509   -983.46039    103.33021   -125.06542   -196.47401      46.7237      46.7237      46.7237           90           90           90     102002.7   -725.62507 
  549000       548496   -6428.6077    690.42283   -7119.0305    4433.8541   -11552.885    133.88587   -634.35224   -1107.1116    -1203.323    78.301273    38.397113    220.85389      46.7237      46.7237      46.7237           90           90           90     102002.7   -981.59561 
  550000       549496   -6475.2559    673.06468   -7148.3206    4411.6196    -11559.94     130.5198   -1096.0684   -567.89602   -803.81134    8.6098955   -89.120971    195.88932      46.7237      46.7237      46.7237           90           90           90     102002.7   -822.59194 
  551000       550496   -6446.5569    690.85438   -7137.4113    4393.1021   -11530.513    133.96955   -545.62623   -681.30325   -944.29283   -55.607754   -70.213329    81.407408      46.7237      46.7237      46.7237           90           90           90     102002.7   -723.74077 
  552000       551496   -6419.4148    686.44217    -7105.857    4434.7373   -11540.594    133.11394   -462.43437   -554.10776   -546.76536   -215.02702   -154.31363    151.00145      46.7237      46.7237      46.7237           90           90           90     102002.7    -521.1025 
  553000       552496   -6441.2165    671.56857   -7112.7851    4430.6676   -11543.453    130.22967    -686.4733   -859.06251   -685.70582   -10.534688   -160.82905   -128.10123      46.7237      46.7237      46.7237           90           90           90     102002.7   -743.74721 
  554000       553496   -6450.1429     669.6772   -7119.8201    4422.3089   -11542.129     129.8629   -786.63835    -961.1425   -837.29923   -146.83873   -333.90308    61.840765      46.7237      46.7237      46.7237           90           90           90     102002.7   -861.69336 
  555000       554496   -6457.9986    674.91801   -7132.9166    4403.5617   -11536.478     130.8792   -610.29851   -723.50891   -910.11784    359.06828  -0.31902083    114.44743      46.7237      46.7237      46.7237           90           90           90     102002.7   -747.97508 
[...]
  936000       935496   -6461.7368    659.40216    -7121.139    4424.8205   -11545.959    127.87038   -1095.4182   -780.19192   -979.86539   -212.43953    206.93515    85.949145      46.7237      46.7237      46.7237           90           90           90     102002.7   -951.82516 
  937000       936496   -6457.5568    663.10847   -7120.6653    4428.0424   -11548.708     128.5891   -529.28071     -1516.25   -775.04296   -103.43192    14.149798    130.06893      46.7237      46.7237      46.7237           90           90           90     102002.7   -940.19122 
  938000       937496   -6497.3966    652.39292   -7149.7896    4392.5982   -11542.388    126.51116   -1066.5305   -899.83472   -823.24206    255.29966    90.972694    39.995942      46.7237      46.7237      46.7237           90           90           90     102002.7   -929.86908 
  939000       938496   -6468.5908    650.18189   -7118.7727    4431.6093   -11550.382     126.0824   -356.72241   -701.46357    -255.3685    36.873337   -11.874709   -76.503818      46.7237      46.7237      46.7237           90           90           90     102002.7   -437.85149 
  940000       939496   -6453.2955    680.45577   -7133.7512    4400.9755   -11534.727    131.95307   -154.01948   -581.81292    -787.7678    38.259903   -188.95869   -33.253349      46.7237      46.7237      46.7237           90           90           90     102002.7   -507.86673 
  941000       940496   -6434.4853    678.34438   -7112.8296    4437.3352   -11550.165    131.54363   -1016.6499   -189.32602   -833.86968    348.00654    260.51949     37.68403      46.7237      46.7237      46.7237           90           90           90     102002.7   -679.94854 
  942000       941496   -6450.0914    671.33925   -7121.4306     4430.688   -11552.119    130.18521   -407.19793   -497.79364    -859.8672    11.822707    21.954156      59.4543      46.7237      46.7237      46.7237           90           90           90     102002.7   -588.28626 
  943000       942496   -6496.9897    649.82411   -7146.8138    4386.3823   -11533.196    126.01302   -961.92421   -347.95383   -1104.2688    350.57578     -184.937    104.58963      46.7237      46.7237      46.7237           90           90           90     102002.7    -804.7156 
  944000       943496   -6448.0161     681.1183   -7129.1344    4415.6735   -11544.808    132.08155   -678.45563   -749.76928   -1064.5221      190.521      67.7186   -230.77758      46.7237      46.7237      46.7237           90           90           90     102002.7   -830.91567 
  945000       944496   -6486.1579      651.827   -7137.9849     4411.177   -11549.162    126.40142   -1180.6218   -1082.1793   -841.66964     56.22865   -189.39492   -114.36911      46.7237      46.7237      46.7237           90           90           90     102002.7   -1034.8236 
  946000       945496   -6443.9148    663.50102   -7107.4158    4432.6961   -11540.112    128.66523   -708.26897   -900.16742   -959.59149    54.659479   -68.174316   -241.39254      46.7237      46.7237      46.7237           90           90           90     102002.7   -856.00929 
  947000       946496   -6483.7309    645.90859   -7129.6395     4405.854   -11535.493    125.25373   -355.43927   -838.86386   -615.87725    5.2020531   -75.347372   -186.11492      46.7237      46.7237      46.7237           90           90           90     102002.7   -603.39346 
  948000       947496   -6445.2261    678.62784   -7123.8539    4433.9855   -11557.839     131.5986   -748.99406   -1172.8118   -1088.3004    176.83911    107.87632   -92.795233      46.7237      46.7237      46.7237           90           90           90     102002.7   -1003.3688 
  949000       948496   -6436.4092    676.00891   -7112.4182     4430.662    -11543.08    131.09074   -570.63712   -767.24762   -589.96199   -105.99224     252.1044   -105.25132      46.7237      46.7237      46.7237           90           90           90     102002.7   -642.61558 
  950000       949496   -6462.3991    660.18518   -7122.5843    4391.2327   -11513.817    128.02222   -192.58656    -469.3351   -550.88954   -176.27285    196.54715   -118.32411      46.7237      46.7237      46.7237           90           90           90     102002.7    -404.2704 
  951000       950496   -6489.1421    641.07172   -7130.2138    4400.0603   -11530.274    124.31577    -749.8483   -311.21556   -729.54475    166.35938    151.79255    41.503237      46.7237      46.7237      46.7237           90           90           90     102002.7   -596.86954 
  952000       951496   -6460.8085    655.44303   -7116.2516    4435.2317   -11551.483    127.10263   -815.66056   -616.17659    -911.6692    43.867069    24.281883   -134.95263      46.7237      46.7237      46.7237           90           90           90     102002.7   -781.16878 
  953000       952496   -6441.3357    678.40271   -7119.7384    4420.7202   -11540.459    131.55494   -815.67715   -273.57003   -996.95874    161.64771    10.566277   -189.00407      46.7237      46.7237      46.7237           90           90           90     102002.7   -695.40198 
  954000       953496   -6461.6124     673.7307   -7135.3431     4405.887    -11541.23    130.64895   -267.81023   -1075.5964   -220.55798    169.39506    199.02309   -24.618776      46.7237      46.7237      46.7237           90           90           90     102002.7   -521.32153 
  955000       954496   -6435.6622      688.969   -7124.6312     4429.584   -11554.215    133.60394   -846.70744   -829.88035   -748.27408    369.36489   -94.567398   -12.268149      46.7237      46.7237      46.7237           90           90           90     102002.7   -808.28729 
  956000       955496   -6449.7366    668.05222   -7117.7888    4420.0854   -11537.874    129.54779     -619.075   -397.51781   -723.23987   -30.461364    14.730797   -73.450103      46.7237      46.7237      46.7237           90           90           90     102002.7   -579.94423 
  957000       956496    -6483.227     646.1958   -7129.4228    4419.5379   -11548.961    125.30942   -386.23826   -836.20863   -180.33259    57.445655   -70.479527    -100.9587      46.7237      46.7237      46.7237           90           90           90     102002.7   -467.59316 
  958000       957496   -6445.5783    666.69273    -7112.271    4408.8051   -11521.076    129.28416   -337.48414    -578.6145   -735.74845   -38.576451    136.56031   -50.989472      46.7237      46.7237      46.7237           90           90           90     102002.7    -550.6157 
  959000       958496    -6466.713    665.15031   -7131.8633    4424.0198   -11555.883    128.98506   -952.67487    34.374471   -767.25851   -279.42526    318.25211    122.75007      46.7237      46.7237      46.7237           90           90           90     102002.7   -561.85297 
  960000       959496   -6455.8728    671.52352   -7127.3963    4406.5245   -11533.921    130.22094   -735.65238   -415.96728   -782.50831   -81.694432    1.0997826     88.01737      46.7237      46.7237      46.7237           90           90           90     102002.7   -644.70932 
  961000       960496   -6455.9488    677.04573   -7132.9945    4414.0954    -11547.09     131.2918   -950.76921   -769.90133   -924.92246   -7.6032655    204.47589    -212.7724      46.7237      46.7237      46.7237           90           90           90     102002.7   -881.86433 
  962000       961496   -6487.1431    646.54305   -7133.6862    4398.0073   -11531.693    125.37676   -1030.0478   -377.29117   -1248.8864    -201.5556    156.16463   -287.36749      46.7237      46.7237      46.7237           90           90           90     102002.7   -885.40846 
  963000       962496   -6453.7907    682.62709   -7136.4178    4406.2871   -11542.705    132.37413   -964.77366   -336.47912   -756.94195   -390.98917    46.183495    3.8459279      46.7237      46.7237      46.7237           90           90           90     102002.7   -686.06491 
  964000       963496   -6480.7772    662.64815   -7143.4254    4384.9472   -11528.373    128.49984   -568.19061   -428.32236   -553.03356    270.87829    5.5479349    43.604495      46.7237      46.7237      46.7237           90           90           90     102002.7   -516.51551 
  965000       964496   -6439.9293    679.28785   -7119.2172    4417.9392   -11537.156    131.72659   -926.19772   -726.89275   -952.15134   -344.51533    94.906884    71.562617      46.7237      46.7237      46.7237           90           90           90     102002.7   -868.41394 
  966000       965496   -6472.4407    664.27212   -7136.7128    4397.3002   -11534.013    128.81476   -717.96096   -679.12845   -929.44646   -91.259494    371.43259     33.33988      46.7237      46.7237      46.7237           90           90           90     102002.7   -775.51196 
  967000       966496   -6471.6618    671.94926   -7143.6111    4400.0391    -11543.65     130.3035    -373.1748   -884.63514   -1175.8479    91.532321    10.874199    89.318558      46.7237      46.7237      46.7237           90           90           90     102002.7   -811.21928 
  968000       967496   -6446.4762    672.40718   -7118.8834    4443.0484   -11561.932     130.3923   -1067.3499   -919.91463    -391.7254   -36.895942    -24.17079    86.210003      46.7237      46.7237      46.7237           90           90           90     102002.7   -792.99664 
  969000       968496   -6445.3691    680.95314   -7126.3222    4408.4919   -11534.814    132.04952   -277.67102   -717.75824   -789.22549   -58.281299    36.317518    4.1391573      46.7237      46.7237      46.7237           90           90           90     102002.7   -594.88492 
  970000       969496   -6468.2568    668.73513   -7136.9919    4406.7942   -11543.786    129.68022   -877.61965   -1033.7393   -801.62392    97.044474    264.21079    95.666209      46.7237      46.7237      46.7237           90           90           90     102002.7   -904.32761 
  971000       970496    -6443.461    675.65343   -7119.1144    4424.4139   -11543.528    131.02181   -91.137334   -659.51195   -897.52946   -164.35574    98.674319   -234.71547      46.7237      46.7237      46.7237           90           90           90     102002.7   -549.39292 
  972000       971496   -6449.5788    669.15625   -7118.7351    4418.8266   -11537.562    129.76188   -220.09164    -961.0608    -886.1051    157.02859    262.69338    -94.49842      46.7237      46.7237      46.7237           90           90           90     102002.7   -689.08585 
  973000       972496   -6474.9025    645.20235   -7120.1049    4423.4131   -11543.518    125.11677   -687.06672   -393.91608   -805.00908   -219.36751     177.6217   -112.60737      46.7237      46.7237      46.7237           90           90           90     102002.7   -628.66396 
  974000       973496   -6453.0135    679.64709   -7132.6606    4416.7164   -11549.377    131.79625   -682.09847   -509.55884   -792.32756   -13.651792    74.459062    101.87722      46.7237      46.7237      46.7237           90           90           90     102002.7   -661.32829 
  975000       974496   -6433.9682     701.8708    -7135.839    4401.6117   -11537.451    136.10584   -1098.4899   -899.86553   -319.41773   -43.141884   -86.632399   -79.060844      46.7237      46.7237      46.7237           90           90           90     102002.7   -772.59105 
  976000       975496   -6465.2872    662.98737   -7128.2745    4422.8526   -11551.127    128.56562   -700.62356   -722.64093   -484.07977   -30.296911    248.89099    -68.74101      46.7237      46.7237      46.7237           90           90           90     102002.7   -635.78142 
  977000       976496   -6481.8388     651.3369   -7133.1757    4397.4549   -11530.631    126.30638   -930.92574   -395.65576   -141.58446   -83.801153    234.59306    257.16271      46.7237      46.7237      46.7237           90           90           90     102002.7   -489.38865 
  978000       977496   -6472.2183    659.17623   -7131.3945    4434.6956    -11566.09    127.82657   -573.05051   -413.12777   -748.68317   -7.4623989    20.123789    -13.45305      46.7237      46.7237      46.7237           90           90           90     102002.7   -578.28715 
  979000       978496   -6420.5941    691.59613   -7112.1903     4403.695   -11515.885    134.11339   -681.67219   -816.36592   -805.15707    133.28259    261.21379    -101.9404      46.7237      46.7237      46.7237           90           90           90     102002.7   -767.73173 
  980000       979496    -6457.995    678.61294    -7136.608    4408.5441   -11545.152    131.59571   -285.71434   -981.20201   -539.81456      6.45796    216.37281    133.26507      46.7237      46.7237      46.7237           90           90           90     102002.7   -602.24364 
  981000       980496   -6465.3828     657.9284   -7123.3112    4415.6636   -11538.975    127.58459   -1043.9959   -1359.7943   -988.64362    17.726632    100.93248      265.803      46.7237      46.7237      46.7237           90           90           90     102002.7   -1130.8113 
  982000       981496   -6476.2946    653.81193   -7130.1065    4404.8507   -11534.957    126.78633   -677.70962   -958.78153   -737.93434    81.783918    169.59105    22.693583      46.7237      46.7237      46.7237           90           90           90     102002.7   -791.47516 
  983000       982496   -6462.3255    659.89023   -7122.2157    4406.6717   -11528.887    127.96503   -972.69014   -1231.7416   -695.29282    292.91141   -26.488023    119.65724      46.7237      46.7237      46.7237           90           90           90     102002.7   -966.57486 
  984000       983496   -6439.5396    668.33648   -7107.8761    4448.9929   -11556.869    129.60291   -678.09046   -583.38993   -1134.8393   -57.220006    160.45863   -97.744188      46.7237      46.7237      46.7237           90           90           90     102002.7   -798.77324 
  985000       984496   -6420.7559    693.15957   -7113.9155    4443.8695   -11557.785    134.41657   -1182.4156   -1402.9859   -787.14376    24.061553   -41.054474    -36.58737      46.7237      46.7237      46.7237           90           90           90     102002.7   -1124.1818 
  986000       985496   -6464.4251    666.57878   -7131.0039    4413.4107   -11544.415    129.26206   -1211.7666   -283.28564   -723.28241   -45.335149    5.0384578    156.79051      46.7237      46.7237      46.7237           90           90           90     102002.7   -739.44488 
  987000       986496   -6401.3569    694.00826   -7095.3651    4459.7847    -11555.15    134.58115   -1035.9018   -1148.9613   -1173.1198    267.18635    4.8845728   -360.99549      46.7237      46.7237      46.7237           90           90           90     102002.7   -1119.3276 
  988000       987496    -6458.653    674.25397    -7132.907    4429.6023   -11562.509    130.75042   -971.59712   -659.56298   -1257.9963   -161.75415   -142.70045     198.1367      46.7237      46.7237      46.7237           90           90           90     102002.7   -963.05213 
  989000       988496   -6428.8124    680.24167    -7109.054    4428.7375   -11537.791    131.91155   -993.16023   -879.21322   -1007.5372   -38.388049   -123.81691   -7.1130018      46.7237      46.7237      46.7237           90           90           90     102002.7   -959.97021 
  990000       989496   -6461.1587     677.3485   -7138.5072     4418.155   -11556.662    131.35051   -189.13283   -998.32005   -722.59708    250.24037   -109.91976    143.58437      46.7237      46.7237      46.7237           90           90           90     102002.7   -636.68332 
  991000       990496   -6491.7365    644.92137   -7136.6578    4397.1253   -11533.783    125.06229   -547.62574   -894.02359    -587.0409   -202.56182   -357.34135   -16.989112      46.7237      46.7237      46.7237           90           90           90     102002.7   -676.23008 
  992000       991496   -6453.1035    682.92267   -7136.0262    4401.8138    -11537.84    132.43145   -275.12681   -350.12768    -972.6691    2.2043864   -7.3700446    204.99564      46.7237      46.7237      46.7237           90           90           90     102002.7    -532.6412 
  993000       992496   -6467.7497    675.46889   -7143.2186     4397.776   -11540.995    130.98602   -858.61458   -757.55475   -501.01995   -158.99466    37.519562   -297.96521      46.7237      46.7237      46.7237           90           90           90     102002.7   -705.72976 
  994000       993496   -6459.9369    662.49421   -7122.4311    4417.5519   -11539.983    128.46999   -519.41404   -391.43004   -886.25943   -133.65463    17.223353   -33.061367      46.7237      46.7237      46.7237           90           90           90     102002.7   -599.03451 
  995000       994496   -6458.7304     672.5707   -7131.3011    4410.0336   -11541.335    130.42401   -1040.7037   -291.04135   -813.50996    98.978569   -129.61518   -318.76453      46.7237      46.7237      46.7237           90           90           90     102002.7   -715.08501 
  996000       995496   -6466.7071     659.3842   -7126.0913    4418.6638   -11544.755     127.8669   -948.63793   -639.83764   -1296.9081   -138.26789   -231.39457   -227.40596      46.7237      46.7237      46.7237           90           90           90     102002.7   -961.79457 
  997000       996496   -6444.0776     672.6601   -7116.7377    4423.3324    -11540.07    130.44134   -510.01732   -513.94885   -704.06673   -36.990024   -189.45097    172.22772      46.7237      46.7237      46.7237           90           90           90     102002.7   -576.01096 
  998000       997496   -6488.7107     648.9006   -7137.6113    4394.4129   -11532.024    125.83393   -439.94405   -899.67658   -905.38017    29.571055   -291.11314    25.291984      46.7237      46.7237      46.7237           90           90           90     102002.7    -748.3336 
  999000       998496   -6473.3325    663.58144   -7136.9139    4388.2622   -11525.176    128.68082   -873.99908   -818.93815   -725.49936   -169.54154   -334.97428    157.22222      46.7237      46.7237      46.7237           90           90           90     102002.7   -806.14553 
 1000000       999496    -6427.232    676.68402   -7103.9161    4417.7932   -11521.709    131.22166    3.8388051   -393.20995   -578.17935    31.803287    96.014813     143.4059      46.7237      46.7237      46.7237           90           90           90     102002.7   -322.51683 
 1000504      1000000   -6410.5985    685.61137   -7096.2098    4443.3455   -11539.555    132.95284   -490.79228   -791.94385   -724.24439    224.20231    44.301592    128.52666      46.7237      46.7237      46.7237           90           90           90     102002.7    -668.9935 
Loop time of 1428.96 on 16 procs for 500000 steps with 1731 atoms

Performance: 30.232 ns/day, 0.794 hours/ns, 349.906 timesteps/s
99.8% CPU use with 16 MPI tasks x no OpenMP threads

MPI task timing breakdown:
Section |  min time  |  avg time  |  max time  |%varavg| %total
---------------------------------------------------------------
Pair    | 564.77     | 768.69     | 970.24     | 489.4 | 53.79
Bond    | 175.27     | 183.05     | 189.89     |  26.8 | 12.81
Neigh   | 3.9445     | 3.9591     | 3.9698     |   0.4 |  0.28
Comm    | 240.27     | 444.48     | 648.34     | 647.8 | 31.10
Output  | 0.097386   | 0.10212    | 0.10265    |   0.4 |  0.01
Modify  | 22.542     | 23.176     | 23.996     |  10.0 |  1.62
Other   |            | 5.503      |            |       |  0.39

Nlocal:    108.188 ave 142 max 79 min
Histogram: 1 3 0 4 1 1 2 2 0 2
Nghost:    2202.06 ave 2230 max 2160 min
Histogram: 1 1 0 3 1 2 0 2 3 3
Neighs:    11467.9 ave 17215 max 5737 min
Histogram: 2 0 1 4 2 0 4 1 1 1

Total # of neighbors = 183487
Ave neighs/atom = 106.001
Ave special neighs/atom = 6.65511
Neighbor list builds = 3462
Dangerous builds = 0
Total wall time: 0:45:15
