LAMMPS (30 Mar 2018)
Reading data file ...
  orthogonal box = (0 0 0) to (46.7237 46.7237 46.7237)
  2 by 2 by 4 MPI processor grid
  reading atoms ...
  1780 atoms
  scanning bonds ...
  5 = max bonds/atom
  scanning angles ...
  10 = max angles/atom
  scanning dihedrals ...
  32 = max dihedrals/atom
  scanning impropers ...
  3 = max impropers/atom
  reading bonds ...
  2064 bonds
  reading angles ...
  3696 angles
  reading dihedrals ...
  6240 dihedrals
  reading impropers ...
  1008 impropers
Finding 1-2 1-3 1-4 neighbors ...
  special bond factors lj:   0          0          0         
  special bond factors coul: 0          0          0         
  5 = max # of 1-2 neighbors
  8 = max # of 1-3 neighbors
  20 = max # of 1-4 neighbors
  19 = max # of special neighbors
Finding 1-2 1-3 1-4 neighbors ...
  special bond factors lj:   0          0          1         
  special bond factors coul: 1          1          1         
  5 = max # of 1-2 neighbors
  8 = max # of 1-3 neighbors
  19 = max # of special neighbors
WARNING: Using 'neigh_modify every 1 delay 0 check yes' setting during minimization (../min.cpp:168)
Neighbor list info ...
  update every 1 steps, delay 0 steps, check yes
  max neighbors/atom: 2000, page size: 100000
  master list distance cutoff = 16
  ghost atom cutoff = 16
  binsize = 8, bins = 6 6 6
  3 neighbor lists, perpetual/occasional/extra = 3 0 0
  (1) pair buck6d/coul/gauss/dsf, perpetual, skip from (3)
      attributes: half, newton on
      pair build: skip
      stencil: none
      bin: none
  (2) pair lj/cut, perpetual, skip from (3)
      attributes: half, newton on
      pair build: skip
      stencil: none
      bin: none
  (3) neighbor class addition, perpetual
      attributes: half, newton on
      pair build: half/bin/newton
      stencil: half/bin/3d/newton
      bin: standard
Setting up cg style minimization ...
  Unit style    : real
  Current step  : 0
WARNING: Inconsistent image flags (../domain.cpp:786)
Per MPI rank memory allocation (min/avg/max) = 22.89 | 23.35 | 23.79 Mbytes
Step Temp E_pair E_mol TotEng Press 
       0            0    -11656.78    6482.8914   -5173.8888    6231.2131 
     502            0   -11694.464    3729.6207   -7964.8428   -496.16053 
Loop time of 2.74464 on 16 procs for 502 steps with 1780 atoms

99.9% CPU use with 16 MPI tasks x no OpenMP threads

Minimization stats:
  Stopping criterion = max force evaluations
  Energy initial, next-to-last, final = 
        -5173.88880688     -7964.82664403     -7964.84284903
  Force two-norm initial, final = 2576.73 5.77456
  Force max component initial, final = 151.984 0.666418
  Final line search alpha, max atom move = 0.00339892 0.00226511
  Iterations, force evaluations = 502 1000

MPI task timing breakdown:
Section |  min time  |  avg time  |  max time  |%varavg| %total
---------------------------------------------------------------
Pair    | 1.092      | 1.5998     | 2.0487     |  21.4 | 58.29
Bond    | 0.27542    | 0.36103    | 0.45514    |   7.3 | 13.15
Neigh   | 0.016056   | 0.016145   | 0.016249   |   0.0 |  0.59
Comm    | 0.25987    | 0.72685    | 1.2579     |  32.8 | 26.48
Output  | 0          | 0          | 0          |   0.0 |  0.00
Modify  | 0          | 0          | 0          |   0.0 |  0.00
Other   |            | 0.04084    |            |       |  1.49

Nlocal:    111.25 ave 134 max 93 min
Histogram: 4 2 0 2 0 2 2 2 0 2
Nghost:    2234.5 ave 2252 max 2212 min
Histogram: 1 1 3 1 1 1 2 0 2 4
Neighs:    11445.9 ave 15805 max 6891 min
Histogram: 2 2 0 2 2 0 2 3 2 1

Total # of neighbors = 183134
Ave neighs/atom = 102.884
Ave special neighs/atom = 6.47191
Neighbor list builds = 13
Dangerous builds = 0
Neighbor list info ...
  update every 1 steps, delay 10 steps, check yes
  max neighbors/atom: 2000, page size: 100000
  master list distance cutoff = 16
  ghost atom cutoff = 16
  binsize = 8, bins = 6 6 6
  3 neighbor lists, perpetual/occasional/extra = 3 0 0
  (1) pair buck6d/coul/gauss/dsf, perpetual, skip from (3)
      attributes: half, newton on
      pair build: skip
      stencil: none
      bin: none
  (2) pair lj/cut, perpetual, skip from (3)
      attributes: half, newton on
      pair build: skip
      stencil: none
      bin: none
  (3) neighbor class addition, perpetual
      attributes: half, newton on
      pair build: half/bin/newton
      stencil: half/bin/3d/newton
      bin: standard
Setting up Verlet run ...
  Unit style    : real
  Current step  : 502
  Time step     : 1
WARNING: Inconsistent image flags (../domain.cpp:786)
Per MPI rank memory allocation (min/avg/max) = 22.54 | 22.64 | 22.86 Mbytes
Step Temp PotEng TotEng Press Volume Lx Ly Lz 
     502          130   -7964.8428   -7275.4709   -187.22008     102002.7      46.7237      46.7237      46.7237 
    1000    115.50571   -7357.1524   -6744.6417   -666.72832     102002.7      46.7237      46.7237      46.7237 
    2000    135.12155   -7265.6177   -6549.0869   -712.09671     102002.7      46.7237      46.7237      46.7237 
    3000    124.14452   -7220.1464   -6561.8253   -907.48687     102002.7      46.7237      46.7237      46.7237 
    4000    129.30904   -7266.4892   -6580.7813    -503.1098     102002.7      46.7237      46.7237      46.7237 
    5000    135.21791   -7264.5575   -6547.5157   -924.93774     102002.7      46.7237      46.7237      46.7237 
    6000    132.16043   -7251.5101   -6550.6817   -942.00378     102002.7      46.7237      46.7237      46.7237 
    7000    131.24153   -7253.2823   -6557.3267   -905.52545     102002.7      46.7237      46.7237      46.7237 
    8000    127.14052   -7263.1301   -6588.9216    -825.8361     102002.7      46.7237      46.7237      46.7237 
    9000    133.28392   -7269.2231    -6562.437    -693.2809     102002.7      46.7237      46.7237      46.7237 
   10000    126.05857   -7241.2181    -6572.747   -848.54531     102002.7      46.7237      46.7237      46.7237 
   11000    128.68418   -7236.1009   -6553.7066   -778.87983     102002.7      46.7237      46.7237      46.7237 
   12000     130.3258   -7270.1939   -6579.0943   -856.89767     102002.7      46.7237      46.7237      46.7237 
   13000    127.38755   -7255.0857   -6579.5672   -505.74613     102002.7      46.7237      46.7237      46.7237 
   14000    130.35479   -7228.3579   -6537.1045   -984.72146     102002.7      46.7237      46.7237      46.7237 
   15000    130.12979   -7265.2502     -6575.19    -483.4494     102002.7      46.7237      46.7237      46.7237 
   16000    131.79034   -7231.1032   -6532.2373   -642.45433     102002.7      46.7237      46.7237      46.7237 
   17000     131.9879   -7246.5017   -6546.5882   -796.64767     102002.7      46.7237      46.7237      46.7237 
   18000    126.84847   -7268.4168    -6595.757   -755.22255     102002.7      46.7237      46.7237      46.7237 
   19000    125.03653   -7237.5963    -6574.545   -900.39352     102002.7      46.7237      46.7237      46.7237 
   20000    128.80063   -7236.1389    -6553.127   -513.06826     102002.7      46.7237      46.7237      46.7237 
   21000    128.21387   -7251.0915   -6571.1912   -597.09714     102002.7      46.7237      46.7237      46.7237 
   22000    126.52944   -7279.1018   -6608.1337   -744.44189     102002.7      46.7237      46.7237      46.7237 
   23000    128.15592   -7232.5907   -6552.9977    -465.3706     102002.7      46.7237      46.7237      46.7237 
   24000    131.87517   -7266.4193   -6567.1036   -942.10264     102002.7      46.7237      46.7237      46.7237 
   25000    129.11811    -7257.924   -6573.2286   -617.69404     102002.7      46.7237      46.7237      46.7237 
   26000    132.03808   -7230.6106    -6530.431   -688.16729     102002.7      46.7237      46.7237      46.7237 
   27000    130.77098   -7275.2222   -6581.7619   -784.73611     102002.7      46.7237      46.7237      46.7237 
   28000     133.2081   -7246.4636   -6540.0796   -967.37272     102002.7      46.7237      46.7237      46.7237 
   29000     126.0151   -7253.6132   -6585.3727   -961.32425     102002.7      46.7237      46.7237      46.7237 
   30000     130.0237   -7273.0435   -6583.5459    -835.8842     102002.7      46.7237      46.7237      46.7237 
   31000    130.54456   -7261.0042   -6568.7446   -880.53726     102002.7      46.7237      46.7237      46.7237 
   32000    131.30807    -7258.887   -6562.5785   -558.27869     102002.7      46.7237      46.7237      46.7237 
   33000    128.82469   -7271.9655   -6588.8261   -506.45457     102002.7      46.7237      46.7237      46.7237 
   34000    128.98489   -7260.7705   -6576.7815   -643.61194     102002.7      46.7237      46.7237      46.7237 
   35000    131.97598   -7267.7113   -6567.8611   -543.39841     102002.7      46.7237      46.7237      46.7237 
   36000    132.03523   -7236.6707   -6536.5062    -464.3704     102002.7      46.7237      46.7237      46.7237 
   37000    130.06346   -7262.3462   -6572.6378   -532.42686     102002.7      46.7237      46.7237      46.7237 
   38000    130.88187      -7249.6   -6555.5517   -569.77559     102002.7      46.7237      46.7237      46.7237 
   39000    133.76017   -7253.7952   -6544.4836   -1055.0755     102002.7      46.7237      46.7237      46.7237 
   40000    128.58436   -7252.1186   -6570.2536   -832.75208     102002.7      46.7237      46.7237      46.7237 
   41000    131.21499   -7257.6088   -6561.7939   -714.02208     102002.7      46.7237      46.7237      46.7237 
   42000    127.86505   -7285.2809   -6607.2303   -1025.3819     102002.7      46.7237      46.7237      46.7237 
   43000    129.49354   -7240.5398   -6553.8536   -1072.1622     102002.7      46.7237      46.7237      46.7237 
   44000    126.47252   -7277.3284   -6606.6622   -691.91195     102002.7      46.7237      46.7237      46.7237 
   45000    133.86646   -7246.9104   -6537.0351   -748.16418     102002.7      46.7237      46.7237      46.7237 
   46000    129.96091   -7250.9053   -6561.7406    -768.4315     102002.7      46.7237      46.7237      46.7237 
   47000    126.78281   -7263.5858   -6591.2742   -732.38285     102002.7      46.7237      46.7237      46.7237 
   48000    128.54174   -7256.4611   -6574.8221   -755.60056     102002.7      46.7237      46.7237      46.7237 
   49000    130.91523   -7240.6027   -6546.3774   -968.10317     102002.7      46.7237      46.7237      46.7237 
   50000    130.09597    -7244.823   -6554.9422   -558.94057     102002.7      46.7237      46.7237      46.7237 
   51000     133.2888   -7255.4059   -6548.5939   -673.72425     102002.7      46.7237      46.7237      46.7237 
   52000    132.35657   -7277.0811   -6575.2125   -601.61123     102002.7      46.7237      46.7237      46.7237 
   53000     127.6718   -7252.8804   -6575.8546   -935.95766     102002.7      46.7237      46.7237      46.7237 
   54000    130.73865   -7252.0874   -6558.7985    -424.5458     102002.7      46.7237      46.7237      46.7237 
   55000    130.64588   -7265.2073   -6572.4103   -811.41017     102002.7      46.7237      46.7237      46.7237 
   56000    132.34143     -7227.11   -6525.3218   -844.42571     102002.7      46.7237      46.7237      46.7237 
   57000    128.65614   -7276.6538   -6594.4082   -246.83347     102002.7      46.7237      46.7237      46.7237 
   58000    127.25445   -7251.6625   -6576.8498    -612.4499     102002.7      46.7237      46.7237      46.7237 
   59000    129.72047   -7235.4183   -6547.5287   -715.47746     102002.7      46.7237      46.7237      46.7237 
   60000     130.9344   -7250.1907   -6555.8638   -631.88379     102002.7      46.7237      46.7237      46.7237 
   61000    131.03361   -7286.1846   -6591.3315   -725.33864     102002.7      46.7237      46.7237      46.7237 
   62000    131.17519   -7263.7199   -6568.1161   -988.35341     102002.7      46.7237      46.7237      46.7237 
   63000    131.85621   -7241.6249   -6542.4097   -865.03229     102002.7      46.7237      46.7237      46.7237 
   64000     128.2724   -7238.5471   -6558.3364   -724.62067     102002.7      46.7237      46.7237      46.7237 
   65000    127.70609   -7261.4921   -6584.2844   -603.28267     102002.7      46.7237      46.7237      46.7237 
   66000    133.01809   -7250.3501   -6544.9736   -782.90647     102002.7      46.7237      46.7237      46.7237 
   67000    128.68913   -7266.7992   -6584.3786   -920.31596     102002.7      46.7237      46.7237      46.7237 
   68000    129.55695    -7247.488   -6560.4654   -783.88362     102002.7      46.7237      46.7237      46.7237 
   69000    125.39448   -7241.2297   -6576.2802   -1076.2723     102002.7      46.7237      46.7237      46.7237 
   70000    128.25464   -7234.6571   -6554.5406   -772.90727     102002.7      46.7237      46.7237      46.7237 
   71000    125.89046   -7258.7395   -6591.1599   -695.56348     102002.7      46.7237      46.7237      46.7237 
   72000    127.58408    -7248.318   -6571.7573   -781.84388     102002.7      46.7237      46.7237      46.7237 
   73000    131.13703   -7274.3688   -6578.9673   -600.19891     102002.7      46.7237      46.7237      46.7237 
   74000     128.0127   -7259.5744   -6580.7408   -781.69793     102002.7      46.7237      46.7237      46.7237 
   75000    132.23736   -7249.0419   -6547.8056   -469.48486     102002.7      46.7237      46.7237      46.7237 
   76000    131.43505   -7271.8733   -6574.8915    -506.2547     102002.7      46.7237      46.7237      46.7237 
   77000    127.21378   -7253.1812   -6578.5842   -622.53308     102002.7      46.7237      46.7237      46.7237 
   78000    131.05902   -7280.3488    -6585.361   -324.28978     102002.7      46.7237      46.7237      46.7237 
   79000      129.687   -7225.4204   -6537.7083   -725.72588     102002.7      46.7237      46.7237      46.7237 
   80000    131.54632   -7261.0524   -6563.4805   -521.92422     102002.7      46.7237      46.7237      46.7237 
   81000    127.36201    -7259.716    -6584.333   -769.72365     102002.7      46.7237      46.7237      46.7237 
   82000    131.25058    -7247.473   -6551.4694   -837.69604     102002.7      46.7237      46.7237      46.7237 
   83000    126.55139   -7241.2267   -6570.1422   -515.26314     102002.7      46.7237      46.7237      46.7237 
   84000    130.89016   -7266.9355   -6572.8431   -816.01695     102002.7      46.7237      46.7237      46.7237 
   85000    129.75715   -7246.3671    -6558.283   -563.76207     102002.7      46.7237      46.7237      46.7237 
   86000    125.15529   -7251.5086   -6587.8276   -791.76536     102002.7      46.7237      46.7237      46.7237 
   87000    132.50271      -7267.2   -6564.5565   -722.15129     102002.7      46.7237      46.7237      46.7237 
   88000    130.25246   -7250.6648   -6559.9541   -519.08484     102002.7      46.7237      46.7237      46.7237 
   89000    128.76766    -7251.163    -6568.326      -448.26     102002.7      46.7237      46.7237      46.7237 
   90000    133.27288   -7277.3459   -6570.6184   -674.44252     102002.7      46.7237      46.7237      46.7237 
   91000    130.26581   -7269.9363   -6579.1548   -843.70487     102002.7      46.7237      46.7237      46.7237 
   92000    131.24119   -7262.5375   -6566.5838   -340.85187     102002.7      46.7237      46.7237      46.7237 
   93000    129.38732   -7236.3386   -6550.2157   -975.42875     102002.7      46.7237      46.7237      46.7237 
   94000    126.34193   -7298.2923   -6628.3186   -737.51067     102002.7      46.7237      46.7237      46.7237 
   95000    130.01606   -7225.7922   -6536.3351    -1182.329     102002.7      46.7237      46.7237      46.7237 
   96000     130.9573   -7252.7147   -6558.2663   -1138.7682     102002.7      46.7237      46.7237      46.7237 
   97000    132.42337   -7233.0148   -6530.7921    -914.1271     102002.7      46.7237      46.7237      46.7237 
   98000    129.22094   -7268.2755   -6583.0348    -828.4249     102002.7      46.7237      46.7237      46.7237 
   99000    128.83349   -7229.2409   -6546.0547   -867.91769     102002.7      46.7237      46.7237      46.7237 
  100000    128.70133   -7269.2597   -6586.7745   -719.99979     102002.7      46.7237      46.7237      46.7237 
  101000    129.54208   -7226.0978   -6539.1541   -546.18101     102002.7      46.7237      46.7237      46.7237 
  102000    127.49082   -7252.5142   -6576.4481     -898.619     102002.7      46.7237      46.7237      46.7237 
  103000    130.76265   -7273.6225   -6580.2063   -532.17686     102002.7      46.7237      46.7237      46.7237 
  104000    127.00605   -7255.3638   -6581.8683   -851.91163     102002.7      46.7237      46.7237      46.7237 
  105000    127.42527   -7220.2984   -6544.5799    -571.1467     102002.7      46.7237      46.7237      46.7237 
  106000    128.93648   -7267.5612    -6583.829   -558.65092     102002.7      46.7237      46.7237      46.7237 
  107000     134.3567   -7240.5005   -6528.0256   -682.69061     102002.7      46.7237      46.7237      46.7237 
  108000    126.58941   -7254.4122   -6583.1261   -579.53141     102002.7      46.7237      46.7237      46.7237 
  109000     131.8018   -7268.3619   -6569.4352   -464.83297     102002.7      46.7237      46.7237      46.7237 
  110000    127.93008   -7262.3979   -6584.0024   -811.86872     102002.7      46.7237      46.7237      46.7237 
  111000    128.04999    -7241.621   -6562.5897    -808.4254     102002.7      46.7237      46.7237      46.7237 
  112000      130.418   -7223.0993   -6531.5108   -936.50124     102002.7      46.7237      46.7237      46.7237 
  113000    129.68561   -7252.7535   -6565.0487   -1098.6974     102002.7      46.7237      46.7237      46.7237 
  114000    131.42351   -7230.9438   -6534.0232   -531.95653     102002.7      46.7237      46.7237      46.7237 
  115000    130.52468   -7256.8086   -6564.6544   -693.34085     102002.7      46.7237      46.7237      46.7237 
  116000    129.18308   -7224.5877   -6539.5478   -897.96563     102002.7      46.7237      46.7237      46.7237 
  117000    128.06017   -7243.3027   -6564.2174   -439.97389     102002.7      46.7237      46.7237      46.7237 
  118000    127.68869   -7255.4929   -6578.3775   -381.68433     102002.7      46.7237      46.7237      46.7237 
  119000    127.06009   -7236.1481   -6562.3661    -680.8595     102002.7      46.7237      46.7237      46.7237 
  120000    129.94231   -7235.4133   -6546.3473   -855.26147     102002.7      46.7237      46.7237      46.7237 
  121000    127.10109   -7255.7438   -6581.7444   -299.84004     102002.7      46.7237      46.7237      46.7237 
  122000    126.33553   -7258.3143   -6588.3745   -861.83237     102002.7      46.7237      46.7237      46.7237 
  123000    132.32463   -7243.8766   -6542.1775    -535.8445     102002.7      46.7237      46.7237      46.7237 
  124000    128.44023   -7253.9324   -6572.8317   -629.90081     102002.7      46.7237      46.7237      46.7237 
  125000     129.8041   -7256.3074   -6567.9743   -689.66991     102002.7      46.7237      46.7237      46.7237 
  126000    128.53873   -7242.9755   -6561.3525   -547.38086     102002.7      46.7237      46.7237      46.7237 
  127000    129.71226   -7261.9685   -6574.1224   -585.54498     102002.7      46.7237      46.7237      46.7237 
  128000    130.69138   -7261.4243    -6568.386   -682.24505     102002.7      46.7237      46.7237      46.7237 
  129000    128.53047   -7273.4041   -6591.8248   -290.24127     102002.7      46.7237      46.7237      46.7237 
  130000    128.54946   -7250.6194   -6568.9395   -722.34723     102002.7      46.7237      46.7237      46.7237 
  131000    130.60477   -7242.0093   -6549.4303   -872.21389     102002.7      46.7237      46.7237      46.7237 
  132000    129.43289   -7285.7156    -6599.351   -824.52641     102002.7      46.7237      46.7237      46.7237 
  133000    130.59888   -7239.9057    -6547.358   -747.33146     102002.7      46.7237      46.7237      46.7237 
  134000    130.53718   -7264.3014   -6572.0809   -738.01913     102002.7      46.7237      46.7237      46.7237 
  135000    135.63667   -7248.0087   -6528.7463   -737.88042     102002.7      46.7237      46.7237      46.7237 
  136000    128.84933   -7240.6786   -6557.4085    -713.9255     102002.7      46.7237      46.7237      46.7237 
  137000     126.8543   -7247.2053   -6574.5146   -593.53153     102002.7      46.7237      46.7237      46.7237 
  138000    130.85413   -7241.7311   -6547.8299   -810.49977     102002.7      46.7237      46.7237      46.7237 
  139000    129.85829   -7245.2313   -6556.6108   -693.75409     102002.7      46.7237      46.7237      46.7237 
  140000    132.51569   -7277.5835   -6574.8712   -743.30491     102002.7      46.7237      46.7237      46.7237 
  141000    129.88864   -7252.2093   -6563.4279    -699.8428     102002.7      46.7237      46.7237      46.7237 
  142000     128.9844   -7256.5676   -6572.5813   -509.03097     102002.7      46.7237      46.7237      46.7237 
  143000    126.33008   -7262.0385   -6592.1276   -917.92788     102002.7      46.7237      46.7237      46.7237 
  144000    132.24244   -7252.9084   -6551.6451   -772.17913     102002.7      46.7237      46.7237      46.7237 
  145000    128.19026    -7272.205   -6592.4299   -594.60403     102002.7      46.7237      46.7237      46.7237 
  146000    130.55074   -7259.0137   -6566.7212   -866.20879     102002.7      46.7237      46.7237      46.7237 
  147000    127.28789   -7263.0557   -6588.0657   -780.23508     102002.7      46.7237      46.7237      46.7237 
  148000    130.38421   -7248.6465   -6557.2372   -834.86549     102002.7      46.7237      46.7237      46.7237 
  149000     129.8452   -7246.3522   -6557.8012   -644.51092     102002.7      46.7237      46.7237      46.7237 
  150000     127.6244   -7264.8745   -6588.1001   -750.15216     102002.7      46.7237      46.7237      46.7237 
  151000    133.27911    -7264.964   -6558.2034   -866.24032     102002.7      46.7237      46.7237      46.7237 
  152000    127.62297   -7242.9212   -6566.1543   -933.43345     102002.7      46.7237      46.7237      46.7237 
  153000    128.33276    -7242.424   -6561.8932   -685.50994     102002.7      46.7237      46.7237      46.7237 
  154000    139.54355    -7261.917    -6521.937   -839.22184     102002.7      46.7237      46.7237      46.7237 
  155000    130.01108   -7245.4691   -6556.0383   -884.82628     102002.7      46.7237      46.7237      46.7237 
  156000    129.03059   -7227.3562   -6543.1249   -963.78811     102002.7      46.7237      46.7237      46.7237 
  157000     131.7444   -7244.5383   -6545.9161   -363.45786     102002.7      46.7237      46.7237      46.7237 
  158000    125.94991   -7271.5285   -6603.6336   -784.26995     102002.7      46.7237      46.7237      46.7237 
  159000    133.33036    -7269.315   -6562.2826   -906.03778     102002.7      46.7237      46.7237      46.7237 
  160000     130.8258   -7259.6439   -6565.8929   -544.49729     102002.7      46.7237      46.7237      46.7237 
  161000    126.36575    -7268.894   -6598.7939   -819.73752     102002.7      46.7237      46.7237      46.7237 
  162000    134.06329   -7266.3901   -6555.4711   -704.90225     102002.7      46.7237      46.7237      46.7237 
  163000    129.59932   -7263.9492   -6576.7021   -814.03318     102002.7      46.7237      46.7237      46.7237 
  164000    127.63442   -7260.1526    -6583.325   -728.08045     102002.7      46.7237      46.7237      46.7237 
  165000    134.32167   -7251.5138   -6539.2247   -972.55148     102002.7      46.7237      46.7237      46.7237 
  166000    130.01989   -7240.9844    -6551.507   -1137.8775     102002.7      46.7237      46.7237      46.7237 
  167000    133.87395    -7261.186    -6551.271   -964.12265     102002.7      46.7237      46.7237      46.7237 
  168000    129.49457   -7262.0456   -6575.3539   -876.65648     102002.7      46.7237      46.7237      46.7237 
  169000     130.2291   -7231.0757   -6540.4889   -804.70122     102002.7      46.7237      46.7237      46.7237 
  170000      132.385   -7247.4568   -6545.4375   -578.11886     102002.7      46.7237      46.7237      46.7237 
  171000    128.78115   -7257.3215    -6574.413   -1078.9715     102002.7      46.7237      46.7237      46.7237 
  172000    131.96602   -7255.8909   -6556.0934   -1091.6782     102002.7      46.7237      46.7237      46.7237 
  173000    127.09722   -7256.3422   -6582.3632   -856.85863     102002.7      46.7237      46.7237      46.7237 
  174000    132.97776   -7263.5237   -6558.3612   -581.83374     102002.7      46.7237      46.7237      46.7237 
  175000    129.52255   -7276.9319   -6590.0918   -574.05539     102002.7      46.7237      46.7237      46.7237 
  176000    129.45816   -7245.6367    -6559.138   -886.07486     102002.7      46.7237      46.7237      46.7237 
  177000    133.51826   -7288.2459   -6580.2171   -532.94524     102002.7      46.7237      46.7237      46.7237 
  178000     133.2426   -7258.8085   -6552.2415   -928.86938     102002.7      46.7237      46.7237      46.7237 
  179000     128.5493   -7234.1491     -6552.47   -863.29397     102002.7      46.7237      46.7237      46.7237 
  180000    126.47746   -7246.6021   -6575.9097   -1130.0417     102002.7      46.7237      46.7237      46.7237 
  181000    129.84018   -7227.4254    -6538.901   -934.28546     102002.7      46.7237      46.7237      46.7237 
  182000    132.99359   -7275.0181   -6569.7716   -982.48334     102002.7      46.7237      46.7237      46.7237 
  183000    132.91826   -7252.6627   -6547.8156    -728.1143     102002.7      46.7237      46.7237      46.7237 
  184000    131.29922   -7244.1114   -6547.8498   -761.81851     102002.7      46.7237      46.7237      46.7237 
  185000    125.99105   -7263.3053   -6595.1923   -912.45392     102002.7      46.7237      46.7237      46.7237 
  186000    130.44224   -7271.0884   -6579.3714   -501.66891     102002.7      46.7237      46.7237      46.7237 
  187000    131.29666   -7252.0708   -6555.8228   -838.08878     102002.7      46.7237      46.7237      46.7237 
  188000    131.61378   -7252.6105   -6554.6809   -491.72238     102002.7      46.7237      46.7237      46.7237 
  189000    127.07637   -7253.9344   -6580.0661   -617.65207     102002.7      46.7237      46.7237      46.7237 
  190000    130.60682   -7264.9796   -6572.3898   -798.95498     102002.7      46.7237      46.7237      46.7237 
  191000    138.81223   -7270.2401   -6534.1382   -760.36235     102002.7      46.7237      46.7237      46.7237 
  192000    129.29965   -7266.7457   -6581.0876   -845.29439     102002.7      46.7237      46.7237      46.7237 
  193000    130.67239   -7249.3577   -6556.4202   -871.56152     102002.7      46.7237      46.7237      46.7237 
  194000    131.91425   -7265.3944   -6565.8714   -858.06315     102002.7      46.7237      46.7237      46.7237 
  195000    129.89182   -7257.5373   -6568.7391   -518.52867     102002.7      46.7237      46.7237      46.7237 
  196000    134.71066   -7247.1259    -6532.774   -776.39941     102002.7      46.7237      46.7237      46.7237 
  197000    129.46083   -7238.7577   -6552.2449   -922.34433     102002.7      46.7237      46.7237      46.7237 
  198000    127.71172   -7276.5511   -6599.3136   -657.48421     102002.7      46.7237      46.7237      46.7237 
  199000    131.73015   -7250.5393   -6551.9926   -854.13151     102002.7      46.7237      46.7237      46.7237 
  200000    130.39468   -7234.0178    -6542.553   -574.34796     102002.7      46.7237      46.7237      46.7237 
  201000    129.07146   -7255.8217   -6571.3737   -431.67966     102002.7      46.7237      46.7237      46.7237 
  202000    130.51618    -7252.765   -6560.6558    -621.3075     102002.7      46.7237      46.7237      46.7237 
  203000     130.8694   -7238.7196   -6544.7374   -582.40518     102002.7      46.7237      46.7237      46.7237 
  204000    127.60062   -7249.8546   -6573.2062   -601.84274     102002.7      46.7237      46.7237      46.7237 
  205000    132.63388   -7260.9511   -6557.6121   -399.95012     102002.7      46.7237      46.7237      46.7237 
  206000    131.88191   -7251.1613   -6551.8098   -788.59242     102002.7      46.7237      46.7237      46.7237 
  207000     128.6698   -7247.1178   -6564.7997   -1071.0234     102002.7      46.7237      46.7237      46.7237 
  208000    129.71684   -7259.7685   -6571.8981   -611.05504     102002.7      46.7237      46.7237      46.7237 
  209000     132.7851   -7246.1648   -6542.0238   -504.10705     102002.7      46.7237      46.7237      46.7237 
  210000    126.41384   -7260.0687   -6589.7137   -597.27145     102002.7      46.7237      46.7237      46.7237 
  211000    131.54123   -7255.8249     -6558.28   -844.86336     102002.7      46.7237      46.7237      46.7237 
  212000    128.69359   -7256.5943     -6574.15   -351.15079     102002.7      46.7237      46.7237      46.7237 
  213000    127.79919   -7240.0325   -6562.3311   -748.97201     102002.7      46.7237      46.7237      46.7237 
  214000    125.61493   -7257.9323   -6591.8137   -670.41403     102002.7      46.7237      46.7237      46.7237 
  215000    129.10448   -7255.5747   -6570.9516   -734.68664     102002.7      46.7237      46.7237      46.7237 
  216000    129.18311   -7243.5609   -6558.5209   -535.70613     102002.7      46.7237      46.7237      46.7237 
  217000    128.20142    -7279.392   -6599.5577   -720.14401     102002.7      46.7237      46.7237      46.7237 
  218000     129.7599   -7238.1381   -6550.0394   -467.61206     102002.7      46.7237      46.7237      46.7237 
  219000    133.30622   -7255.0608   -6548.1565   -497.94103     102002.7      46.7237      46.7237      46.7237 
  220000    128.01422   -7251.2159   -6572.3743   -722.00439     102002.7      46.7237      46.7237      46.7237 
  221000    130.32061   -7267.3617   -6576.2896   -864.63793     102002.7      46.7237      46.7237      46.7237 
  222000    127.09369   -7274.1054   -6600.1452   -937.27133     102002.7      46.7237      46.7237      46.7237 
  223000     125.0224   -7234.1909   -6571.2145   -871.33167     102002.7      46.7237      46.7237      46.7237 
  224000    131.23737   -7231.2764   -6535.3428   -955.39017     102002.7      46.7237      46.7237      46.7237 
  225000    129.46485    -7252.316   -6565.7819   -917.90391     102002.7      46.7237      46.7237      46.7237 
  226000    129.99238   -7254.4335    -6565.102   -907.99344     102002.7      46.7237      46.7237      46.7237 
  227000    131.22937   -7246.6578   -6550.7667   -797.25443     102002.7      46.7237      46.7237      46.7237 
  228000    134.73018   -7248.7017   -6534.2462   -655.88106     102002.7      46.7237      46.7237      46.7237 
  229000    122.24677   -7229.9245   -6581.6669   -721.02741     102002.7      46.7237      46.7237      46.7237 
  230000    133.10594   -7253.1841   -6547.3418   -596.95724     102002.7      46.7237      46.7237      46.7237 
  231000    131.89483    -7256.998    -6557.578   -816.43802     102002.7      46.7237      46.7237      46.7237 
  232000    127.05983   -7282.0568   -6608.2762   -785.50921     102002.7      46.7237      46.7237      46.7237 
  233000     131.4126   -7248.3996   -6551.5369   -604.15149     102002.7      46.7237      46.7237      46.7237 
  234000    130.82746   -7260.1149   -6566.3551   -729.54096     102002.7      46.7237      46.7237      46.7237 
  235000    131.08549   -7268.9083   -6573.7802   -782.30912     102002.7      46.7237      46.7237      46.7237 
  236000     132.3004   -7250.2322   -6548.6616   -679.27972     102002.7      46.7237      46.7237      46.7237 
  237000    125.02816   -7227.6666   -6564.6597   -856.76334     102002.7      46.7237      46.7237      46.7237 
  238000    125.93719     -7252.92   -6585.0925   -749.25104     102002.7      46.7237      46.7237      46.7237 
  239000    135.21885   -7263.7374   -6546.6906   -801.66427     102002.7      46.7237      46.7237      46.7237 
  240000    130.70117   -7268.0077   -6574.9175   -524.59162     102002.7      46.7237      46.7237      46.7237 
  241000    130.69905   -7250.4727   -6557.3938   -705.42311     102002.7      46.7237      46.7237      46.7237 
  242000    128.79646   -7272.9239   -6589.9341   -509.93018     102002.7      46.7237      46.7237      46.7237 
  243000    134.55445   -7269.5155    -6555.992   -530.42148     102002.7      46.7237      46.7237      46.7237 
  244000    129.63584   -7260.1498    -6572.709    -506.6375     102002.7      46.7237      46.7237      46.7237 
  245000    132.64008   -7251.9847   -6548.6128   -380.21872     102002.7      46.7237      46.7237      46.7237 
  246000    130.79451   -7243.5884   -6550.0033   -501.29492     102002.7      46.7237      46.7237      46.7237 
  247000    126.88719   -7263.1782    -6590.313   -661.30545     102002.7      46.7237      46.7237      46.7237 
  248000    128.80453   -7273.2686   -6590.2361   -793.97455     102002.7      46.7237      46.7237      46.7237 
  249000    129.76577   -7264.4839    -6576.354   -715.38931     102002.7      46.7237      46.7237      46.7237 
  250000    126.98694   -7216.5964   -6543.2023   -564.65754     102002.7      46.7237      46.7237      46.7237 
  251000    128.73218   -7246.3019    -6563.653   -664.39058     102002.7      46.7237      46.7237      46.7237 
  252000    124.59949   -7271.7277   -6610.9939   -896.45172     102002.7      46.7237      46.7237      46.7237 
  253000     130.8718   -7270.9609   -6576.9659   -767.19169     102002.7      46.7237      46.7237      46.7237 
  254000    132.30919   -7243.7099   -6542.0926   -481.81292     102002.7      46.7237      46.7237      46.7237 
  255000    126.29737   -7262.6642   -6592.9268   -893.98541     102002.7      46.7237      46.7237      46.7237 
  256000    126.32372   -7243.5447   -6573.6675    -763.8941     102002.7      46.7237      46.7237      46.7237 
  257000    129.45761   -7247.0925   -6560.5967   -704.75452     102002.7      46.7237      46.7237      46.7237 
  258000    129.74203   -7248.1883   -6560.1844   -873.03324     102002.7      46.7237      46.7237      46.7237 
  259000    132.13862   -7252.9598    -6552.247   -701.04626     102002.7      46.7237      46.7237      46.7237 
  260000    128.12424   -7241.8749   -6562.4498   -820.34672     102002.7      46.7237      46.7237      46.7237 
  261000    132.50445   -7269.4951   -6566.8424   -580.48322     102002.7      46.7237      46.7237      46.7237 
  262000    128.62686   -7263.4472   -6581.3568   -795.50642     102002.7      46.7237      46.7237      46.7237 
  263000    130.52589   -7244.8012   -6552.6405   -828.61359     102002.7      46.7237      46.7237      46.7237 
  264000     129.7929   -7251.1946   -6562.9209   -489.70425     102002.7      46.7237      46.7237      46.7237 
  265000    133.69656   -7251.1266   -6542.1523   -578.03811     102002.7      46.7237      46.7237      46.7237 
  266000    127.47063    -7258.442    -6582.483   -722.65166     102002.7      46.7237      46.7237      46.7237 
  267000    132.18532   -7222.8386   -6521.8783   -684.13448     102002.7      46.7237      46.7237      46.7237 
  268000     129.1894   -7261.0681   -6575.9947   -933.93464     102002.7      46.7237      46.7237      46.7237 
  269000    128.43676   -7229.3316   -6548.2493   -584.98139     102002.7      46.7237      46.7237      46.7237 
  270000    128.38836   -7251.3857     -6570.56   -508.27397     102002.7      46.7237      46.7237      46.7237 
  271000    130.66966   -7238.6848   -6545.7617   -469.58057     102002.7      46.7237      46.7237      46.7237 
  272000    131.21588   -7250.0468   -6554.2272    -749.0331     102002.7      46.7237      46.7237      46.7237 
  273000     130.3196   -7269.0578   -6577.9911   -471.78694     102002.7      46.7237      46.7237      46.7237 
  274000    126.69776    -7248.234   -6576.3734   -662.31407     102002.7      46.7237      46.7237      46.7237 
  275000     128.9122   -7262.4412   -6578.8377    -374.8627     102002.7      46.7237      46.7237      46.7237 
  276000     129.7923   -7229.9847   -6541.7142   -1045.9658     102002.7      46.7237      46.7237      46.7237 
  277000    127.67201   -7267.9752   -6590.9483   -843.91806     102002.7      46.7237      46.7237      46.7237 
  278000    127.53955   -7240.3939   -6564.0694   -576.17579     102002.7      46.7237      46.7237      46.7237 
  279000    129.68588   -7243.3836   -6555.6773   -1007.4827     102002.7      46.7237      46.7237      46.7237 
  280000    132.34505    -7262.735   -6560.9276   -963.25839     102002.7      46.7237      46.7237      46.7237 
  281000    128.65334   -7252.6822   -6570.4514   -724.16914     102002.7      46.7237      46.7237      46.7237 
  282000    128.15467   -7242.7352   -6563.1488   -1108.7086     102002.7      46.7237      46.7237      46.7237 
  283000    132.61796   -7256.7126   -6553.4579   -634.92281     102002.7      46.7237      46.7237      46.7237 
  284000    133.66331   -7259.6553   -6550.8574   -794.37419     102002.7      46.7237      46.7237      46.7237 
  285000    125.18361   -7232.6596   -6568.8284   -616.39192     102002.7      46.7237      46.7237      46.7237 
  286000    129.84734   -7219.2435   -6530.6811    -671.3471     102002.7      46.7237      46.7237      46.7237 
  287000     130.3422   -7261.5551   -6570.3685   -647.28656     102002.7      46.7237      46.7237      46.7237 
  288000    129.86864   -7265.0859   -6576.4105   -662.00842     102002.7      46.7237      46.7237      46.7237 
  289000    130.99229    -7243.728   -6549.0941   -614.06007     102002.7      46.7237      46.7237      46.7237 
  290000    127.93228   -7261.9465   -6583.5394   -840.42377     102002.7      46.7237      46.7237      46.7237 
  291000    138.00048   -7255.3663   -6523.5689   -801.06671     102002.7      46.7237      46.7237      46.7237 
  292000    128.27031   -7230.5736   -6550.3739   -428.63328     102002.7      46.7237      46.7237      46.7237 
  293000    129.85511   -7252.0801   -6563.4765   -815.07662     102002.7      46.7237      46.7237      46.7237 
  294000    131.44226     -7260.65     -6563.63   -751.37202     102002.7      46.7237      46.7237      46.7237 
  295000    126.19796   -7261.0042    -6591.794   -809.61284     102002.7      46.7237      46.7237      46.7237 
  296000     130.4798   -7248.5155   -6556.5993   -619.40888     102002.7      46.7237      46.7237      46.7237 
  297000    130.03832   -7264.6228   -6575.0477   -571.91501     102002.7      46.7237      46.7237      46.7237 
  298000    128.08947   -7264.5141   -6585.2734    -477.5239     102002.7      46.7237      46.7237      46.7237 
  299000    133.39526   -7233.4356   -6526.0591   -669.96414     102002.7      46.7237      46.7237      46.7237 
  300000    129.87173   -7251.3031   -6562.6114   -530.41368     102002.7      46.7237      46.7237      46.7237 
  301000    124.25352   -7255.6268   -6596.7277    -700.6576     102002.7      46.7237      46.7237      46.7237 
  302000    133.00382   -7261.7649   -6556.4641   -574.21111     102002.7      46.7237      46.7237      46.7237 
  303000     130.6056   -7248.2901   -6555.7067   -748.15043     102002.7      46.7237      46.7237      46.7237 
  304000    130.20359   -7250.8117   -6560.3601   -535.95777     102002.7      46.7237      46.7237      46.7237 
  305000    130.81583   -7274.2024   -6580.5042   -671.09059     102002.7      46.7237      46.7237      46.7237 
  306000    130.28739   -7257.4846   -6566.5887   -738.63902     102002.7      46.7237      46.7237      46.7237 
  307000    129.13784   -7256.8872   -6572.0872   -698.14484     102002.7      46.7237      46.7237      46.7237 
  308000    130.03938   -7247.1248    -6557.544   -667.93897     102002.7      46.7237      46.7237      46.7237 
  309000    125.62779   -7271.2071   -6605.0204   -527.15541     102002.7      46.7237      46.7237      46.7237 
  310000    126.70058   -7261.3024   -6589.4268    -654.2804     102002.7      46.7237      46.7237      46.7237 
  311000    127.64447   -7252.1236   -6575.2428   -472.47621     102002.7      46.7237      46.7237      46.7237 
  312000    132.85205   -7240.8583   -6536.3623   -955.70912     102002.7      46.7237      46.7237      46.7237 
  313000    130.09198   -7255.5165   -6565.6568   -684.36637     102002.7      46.7237      46.7237      46.7237 
  314000    130.71083   -7267.9836   -6574.8422   -690.25143     102002.7      46.7237      46.7237      46.7237 
  315000    133.46829   -7244.7965   -6537.0327   -877.50263     102002.7      46.7237      46.7237      46.7237 
  316000    125.66778   -7238.6799   -6572.2811   -1049.2553     102002.7      46.7237      46.7237      46.7237 
  317000    127.33571   -7244.8315   -6569.5879   -776.36639     102002.7      46.7237      46.7237      46.7237 
  318000    130.03293   -7242.6375    -6553.091   -839.88139     102002.7      46.7237      46.7237      46.7237 
  319000    129.03073    -7265.081    -6580.849   -955.55062     102002.7      46.7237      46.7237      46.7237 
  320000    133.72712    -7255.791   -6546.6546   -765.15609     102002.7      46.7237      46.7237      46.7237 
  321000    129.35524   -7241.5985   -6555.6456   -723.68461     102002.7      46.7237      46.7237      46.7237 
  322000    130.73119   -7231.2951   -6538.0458   -416.84787     102002.7      46.7237      46.7237      46.7237 
  323000    130.26365   -7259.0877   -6568.3176   -738.02876     102002.7      46.7237      46.7237      46.7237 
  324000    129.30095   -7267.4248   -6581.7598   -458.27062     102002.7      46.7237      46.7237      46.7237 
  325000    129.50359   -7259.9909   -6573.2513   -358.36646     102002.7      46.7237      46.7237      46.7237 
  326000    131.77703   -7237.9532   -6539.1579   -284.95206     102002.7      46.7237      46.7237      46.7237 
  327000    129.99755   -7268.6833   -6579.3244   -710.23634     102002.7      46.7237      46.7237      46.7237 
  328000    132.48968   -7240.7785   -6538.2041   -727.54602     102002.7      46.7237      46.7237      46.7237 
  329000    128.92237   -7254.7137   -6571.0563   -511.67968     102002.7      46.7237      46.7237      46.7237 
  330000    131.35317   -7254.3175   -6557.7699   -802.76514     102002.7      46.7237      46.7237      46.7237 
  331000    131.98721   -7246.4043   -6546.4945   -871.67831     102002.7      46.7237      46.7237      46.7237 
  332000    129.17535   -7236.8545   -6551.8556   -683.17795     102002.7      46.7237      46.7237      46.7237 
  333000     128.2961   -7250.3775   -6570.0411   -898.85168     102002.7      46.7237      46.7237      46.7237 
  334000    134.35952   -7252.4507   -6539.9608   -716.46754     102002.7      46.7237      46.7237      46.7237 
  335000    131.38928   -7265.8883   -6569.1492   -699.78563     102002.7      46.7237      46.7237      46.7237 
  336000    127.37251   -7253.3164   -6577.8777   -1041.4334     102002.7      46.7237      46.7237      46.7237 
  337000    130.90653   -7239.3719   -6545.1928   -917.49702     102002.7      46.7237      46.7237      46.7237 
  338000    132.44482   -7260.3656   -6558.0291   -1096.4512     102002.7      46.7237      46.7237      46.7237 
  339000    127.71048   -7242.5411   -6565.3101   -757.30439     102002.7      46.7237      46.7237      46.7237 
  340000    133.43894   -7251.7275   -6544.1194   -395.95376     102002.7      46.7237      46.7237      46.7237 
  341000    129.69916   -7257.3826   -6569.6059   -809.20983     102002.7      46.7237      46.7237      46.7237 
  342000    131.66108   -7265.2985   -6567.1181   -492.14388     102002.7      46.7237      46.7237      46.7237 
  343000    129.06143   -7226.8635   -6542.4687   -806.57047     102002.7      46.7237      46.7237      46.7237 
  344000    130.80517   -7259.2363   -6565.5946   -566.34918     102002.7      46.7237      46.7237      46.7237 
  345000    134.28738   -7242.5515   -6530.4441   -683.37298     102002.7      46.7237      46.7237      46.7237 
  346000     132.4779   -7253.7675   -6551.2556   -758.40983     102002.7      46.7237      46.7237      46.7237 
  347000    128.39592   -7243.6038    -6562.738   -829.98352     102002.7      46.7237      46.7237      46.7237 
  348000    134.23111   -7241.4921   -6529.6831   -702.80589     102002.7      46.7237      46.7237      46.7237 
  349000    133.28722   -7268.4338   -6561.6302   -756.94941     102002.7      46.7237      46.7237      46.7237 
  350000     128.5406   -7232.1169    -6550.484   -822.07248     102002.7      46.7237      46.7237      46.7237 
  351000    124.42583   -7240.6646   -6580.8517   -586.76193     102002.7      46.7237      46.7237      46.7237 
  352000    128.52728   -7266.7313    -6585.169   -869.89044     102002.7      46.7237      46.7237      46.7237 
  353000    129.13407   -7250.0354   -6565.2554   -677.30177     102002.7      46.7237      46.7237      46.7237 
  354000    132.90362   -7257.6698   -6552.9003   -905.45738     102002.7      46.7237      46.7237      46.7237 
  355000     127.6296   -7245.5549   -6568.7528   -631.51243     102002.7      46.7237      46.7237      46.7237 
  356000    134.40743    -7248.217   -6535.4731   -943.87799     102002.7      46.7237      46.7237      46.7237 
  357000    132.46092   -7244.8994   -6542.4775   -1004.2929     102002.7      46.7237      46.7237      46.7237 
  358000    130.97267   -7257.6172   -6563.0873   -1021.4678     102002.7      46.7237      46.7237      46.7237 
  359000    127.70961   -7253.6489   -6576.4226   -1167.5833     102002.7      46.7237      46.7237      46.7237 
  360000    132.15043   -7260.7729   -6559.9975   -789.79752     102002.7      46.7237      46.7237      46.7237 
  361000     127.4658   -7230.2053   -6554.2719   -997.36975     102002.7      46.7237      46.7237      46.7237 
  362000    131.41214   -7231.5611   -6534.7008   -825.04602     102002.7      46.7237      46.7237      46.7237 
  363000    127.68706   -7255.0208   -6577.9141   -905.16287     102002.7      46.7237      46.7237      46.7237 
  364000     131.2148   -7242.0916   -6546.2777   -628.13696     102002.7      46.7237      46.7237      46.7237 
  365000    133.61775   -7246.2669   -6537.7105   -949.11131     102002.7      46.7237      46.7237      46.7237 
  366000    133.17257   -7258.5836    -6552.388    -1001.305     102002.7      46.7237      46.7237      46.7237 
  367000    132.31442   -7233.3584   -6531.7134   -787.22205     102002.7      46.7237      46.7237      46.7237 
  368000    129.75751   -7269.8965   -6581.8104    -787.5152     102002.7      46.7237      46.7237      46.7237 
  369000    130.06286    -7233.822   -6544.1168   -466.38902     102002.7      46.7237      46.7237      46.7237 
  370000    131.75811   -7255.3888   -6556.6938   -726.09258     102002.7      46.7237      46.7237      46.7237 
  371000    128.94076   -7255.4062   -6571.6513   -715.55977     102002.7      46.7237      46.7237      46.7237 
  372000    125.71922   -7277.1067   -6610.4352   -874.46733     102002.7      46.7237      46.7237      46.7237 
  373000    130.54069   -7264.0169   -6571.7778   -635.42859     102002.7      46.7237      46.7237      46.7237 
  374000    131.53704    -7260.705   -6563.1824     -656.481     102002.7      46.7237      46.7237      46.7237 
  375000    124.92111   -7260.2641   -6597.8248   -611.80963     102002.7      46.7237      46.7237      46.7237 
  376000    129.21705    -7241.865   -6556.6449   -687.63518     102002.7      46.7237      46.7237      46.7237 
  377000    133.73946   -7271.8136   -6562.6119    -699.7591     102002.7      46.7237      46.7237      46.7237 
  378000    127.75699   -7232.4967   -6555.0191   -836.70374     102002.7      46.7237      46.7237      46.7237 
  379000    131.27595   -7263.8224   -6567.6843   -711.91215     102002.7      46.7237      46.7237      46.7237 
  380000    135.09669   -7258.6876   -6542.2886   -110.92649     102002.7      46.7237      46.7237      46.7237 
  381000    131.64095    -7228.557   -6530.4833   -765.09151     102002.7      46.7237      46.7237      46.7237 
  382000    129.89622   -7254.9253   -6566.1037   -710.54084     102002.7      46.7237      46.7237      46.7237 
  383000    132.96226   -7237.0549   -6531.9745   -601.45754     102002.7      46.7237      46.7237      46.7237 
  384000    129.93325   -7258.5602   -6569.5422   -619.02601     102002.7      46.7237      46.7237      46.7237 
  385000    129.11421   -7245.7845   -6561.1098   -533.47717     102002.7      46.7237      46.7237      46.7237 
  386000    131.88601   -7244.0465   -6544.6733   -477.11953     102002.7      46.7237      46.7237      46.7237 
  387000     130.4245   -7264.8641   -6573.2411   -534.59682     102002.7      46.7237      46.7237      46.7237 
  388000    132.15049      -7231.1   -6530.3243   -779.30888     102002.7      46.7237      46.7237      46.7237 
  389000    129.81308   -7251.7361   -6563.3553   -789.24097     102002.7      46.7237      46.7237      46.7237 
  390000    128.79906   -7269.0482   -6586.0447   -690.72605     102002.7      46.7237      46.7237      46.7237 
  391000    135.00586   -7278.5342   -6562.6169    -914.4667     102002.7      46.7237      46.7237      46.7237 
  392000    129.07485   -7263.7593   -6579.2932   -691.11989     102002.7      46.7237      46.7237      46.7237 
  393000    129.84576   -7253.7925   -6565.2385   -718.78047     102002.7      46.7237      46.7237      46.7237 
  394000     131.6455   -7213.2511   -6515.1533   -618.71306     102002.7      46.7237      46.7237      46.7237 
  395000    128.73832   -7260.3239   -6577.6425   -303.78485     102002.7      46.7237      46.7237      46.7237 
  396000    128.16748   -7242.3444     -6562.69   -581.04206     102002.7      46.7237      46.7237      46.7237 
  397000     132.5108   -7261.5568   -6558.8704    -721.0853     102002.7      46.7237      46.7237      46.7237 
  398000    128.21425   -7262.6085   -6582.7061   -886.82718     102002.7      46.7237      46.7237      46.7237 
  399000    130.56099   -7246.0598   -6553.7131   -1095.5005     102002.7      46.7237      46.7237      46.7237 
  400000    134.00271   -7246.3079   -6535.7101   -799.46983     102002.7      46.7237      46.7237      46.7237 
  401000    124.09338   -7251.0989    -6593.049   -631.66264     102002.7      46.7237      46.7237      46.7237 
  402000    125.66114   -7228.0765   -6561.7129   -881.63285     102002.7      46.7237      46.7237      46.7237 
  403000    127.67472    -7253.571   -6576.5297     -217.746     102002.7      46.7237      46.7237      46.7237 
  404000    130.14009   -7227.7082   -6537.5934   -663.74121     102002.7      46.7237      46.7237      46.7237 
  405000    127.79724   -7251.0061   -6573.3151   -307.31333     102002.7      46.7237      46.7237      46.7237 
  406000    128.54522   -7226.1462   -6544.4888   -543.09112     102002.7      46.7237      46.7237      46.7237 
  407000    131.14065    -7265.144   -6569.7234   -935.04458     102002.7      46.7237      46.7237      46.7237 
  408000    127.28755   -7227.0594   -6552.0712   -403.68915     102002.7      46.7237      46.7237      46.7237 
  409000      130.338   -7252.0381   -6560.8738   -1032.1527     102002.7      46.7237      46.7237      46.7237 
  410000     130.7928   -7286.2443   -6592.6682   -452.07067     102002.7      46.7237      46.7237      46.7237 
  411000    132.36584   -7262.0324   -6560.1147   -412.53759     102002.7      46.7237      46.7237      46.7237 
  412000     126.7588   -7259.8962   -6587.7119   -709.06159     102002.7      46.7237      46.7237      46.7237 
  413000    128.66374   -7231.7489    -6549.463   -596.96911     102002.7      46.7237      46.7237      46.7237 
  414000    131.50685   -7264.2658   -6566.9032   -778.38117     102002.7      46.7237      46.7237      46.7237 
  415000     128.0279   -7257.9151   -6579.0009   -594.69022     102002.7      46.7237      46.7237      46.7237 
  416000    129.66897   -7250.3954   -6562.7789   -903.37349     102002.7      46.7237      46.7237      46.7237 
  417000     127.7672    -7261.409   -6583.8772   -773.38402     102002.7      46.7237      46.7237      46.7237 
  418000    128.75501   -7250.2689    -6567.499   -857.50391     102002.7      46.7237      46.7237      46.7237 
  419000    129.54702   -7239.4835   -6552.5136   -788.26082     102002.7      46.7237      46.7237      46.7237 
  420000    128.70283   -7266.0324   -6583.5392   -747.50462     102002.7      46.7237      46.7237      46.7237 
  421000    128.26378   -7243.1845   -6563.0195   -692.26319     102002.7      46.7237      46.7237      46.7237 
  422000     130.4742   -7268.6728   -6576.7862   -944.27809     102002.7      46.7237      46.7237      46.7237 
  423000    132.79414   -7236.8624   -6532.6735   -621.94167     102002.7      46.7237      46.7237      46.7237 
  424000    130.18954   -7271.1909   -6580.8139    -710.8069     102002.7      46.7237      46.7237      46.7237 
  425000    130.71774    -7253.838     -6560.66   -771.99731     102002.7      46.7237      46.7237      46.7237 
  426000     130.9401   -7233.6457   -6539.2885   -775.48169     102002.7      46.7237      46.7237      46.7237 
  427000    125.84394   -7251.4748   -6584.1419   -494.34813     102002.7      46.7237      46.7237      46.7237 
  428000    131.48546    -7266.009   -6568.7599   -729.60849     102002.7      46.7237      46.7237      46.7237 
  429000    130.98915   -7273.7188   -6579.1015   -626.13326     102002.7      46.7237      46.7237      46.7237 
  430000    129.73982   -7237.8224   -6549.8302   -788.90451     102002.7      46.7237      46.7237      46.7237 
  431000    132.81358   -7231.5538   -6527.2619    -772.8139     102002.7      46.7237      46.7237      46.7237 
  432000    128.63589   -7255.1033   -6572.9651   -684.92834     102002.7      46.7237      46.7237      46.7237 
  433000    136.24086   -7265.3133   -6542.8469    -617.8845     102002.7      46.7237      46.7237      46.7237 
  434000    129.08976   -7250.4777   -6565.9326   -616.65743     102002.7      46.7237      46.7237      46.7237 
  435000    129.11976   -7247.2586   -6562.5544   -848.88881     102002.7      46.7237      46.7237      46.7237 
  436000    126.49079   -7237.0555   -6566.2924   -461.28599     102002.7      46.7237      46.7237      46.7237 
  437000    130.66906   -7251.0806   -6558.1607   -769.81922     102002.7      46.7237      46.7237      46.7237 
  438000     133.2175   -7231.8227   -6525.3888   -791.01376     102002.7      46.7237      46.7237      46.7237 
  439000    128.66719   -7249.1245   -6566.8203     -876.351     102002.7      46.7237      46.7237      46.7237 
  440000    128.12693    -7238.272   -6558.8327   -548.31632     102002.7      46.7237      46.7237      46.7237 
  441000     129.0516   -7255.9327   -6571.5901   -729.17151     102002.7      46.7237      46.7237      46.7237 
  442000    133.93539   -7257.8174   -6547.5766   -936.88528     102002.7      46.7237      46.7237      46.7237 
  443000    125.65843   -7255.0122    -6588.663   -355.22584     102002.7      46.7237      46.7237      46.7237 
  444000    131.61367   -7239.3966   -6541.4676   -510.32978     102002.7      46.7237      46.7237      46.7237 
  445000     127.6332   -7237.8183   -6560.9972   -805.27635     102002.7      46.7237      46.7237      46.7237 
  446000    125.32241    -7266.481   -6601.9136   -806.21982     102002.7      46.7237      46.7237      46.7237 
  447000    127.40324   -7230.5967    -6554.995   -662.38334     102002.7      46.7237      46.7237      46.7237 
  448000    127.51063   -7254.3747   -6578.2035   -838.30178     102002.7      46.7237      46.7237      46.7237 
  449000    131.64366   -7241.4796   -6543.3916   -824.87227     102002.7      46.7237      46.7237      46.7237 
  450000    132.23704   -7257.2075   -6555.9728   -788.24946     102002.7      46.7237      46.7237      46.7237 
  451000    131.33753   -7243.0668   -6546.6021   -690.01099     102002.7      46.7237      46.7237      46.7237 
  452000    129.74943    -7262.961   -6574.9178   -478.96913     102002.7      46.7237      46.7237      46.7237 
  453000     128.7736   -7241.9776   -6559.1091   -853.54924     102002.7      46.7237      46.7237      46.7237 
  454000    133.98632   -7237.3914   -6526.8805   -712.09556     102002.7      46.7237      46.7237      46.7237 
  455000    132.91553   -7251.4626     -6546.63   -740.22538     102002.7      46.7237      46.7237      46.7237 
  456000    129.05304    -7225.053   -6540.7026   -969.53952     102002.7      46.7237      46.7237      46.7237 
  457000    127.21492   -7254.8681   -6580.2651   -664.24265     102002.7      46.7237      46.7237      46.7237 
  458000    129.65218   -7240.1754   -6552.6479   -804.45668     102002.7      46.7237      46.7237      46.7237 
  459000     129.9342   -7277.4607   -6588.4377   -874.39862     102002.7      46.7237      46.7237      46.7237 
  460000    131.30311   -7255.8707   -6559.5886   -544.94898     102002.7      46.7237      46.7237      46.7237 
  461000    127.80541   -7273.6234    -6595.889   -680.17338     102002.7      46.7237      46.7237      46.7237 
  462000     130.6936   -7260.3289   -6567.2789   -809.47386     102002.7      46.7237      46.7237      46.7237 
  463000     136.8411   -7231.0945   -6505.4452   -673.72274     102002.7      46.7237      46.7237      46.7237 
  464000    127.25009   -7238.4738   -6563.6843   -786.78046     102002.7      46.7237      46.7237      46.7237 
  465000    127.49985   -7260.7528   -6584.6389   -689.62012     102002.7      46.7237      46.7237      46.7237 
  466000    128.66946   -7236.8814   -6554.5652   -861.76707     102002.7      46.7237      46.7237      46.7237 
  467000    136.45864   -7255.4489   -6531.8277   -672.10095     102002.7      46.7237      46.7237      46.7237 
  468000    127.57518   -7230.1997   -6553.6863   -516.81124     102002.7      46.7237      46.7237      46.7237 
  469000    130.83433   -7254.6292   -6560.8329   -636.23593     102002.7      46.7237      46.7237      46.7237 
  470000    131.26292   -7265.0265   -6568.9575   -705.57232     102002.7      46.7237      46.7237      46.7237 
  471000    132.20497   -7262.3195    -6561.255   -782.42808     102002.7      46.7237      46.7237      46.7237 
  472000    131.31235   -7240.2162   -6543.8851   -303.97992     102002.7      46.7237      46.7237      46.7237 
  473000    131.82721   -7264.9362   -6565.8748   -405.28723     102002.7      46.7237      46.7237      46.7237 
  474000    132.04464   -7268.1588   -6567.9445     -710.154     102002.7      46.7237      46.7237      46.7237 
  475000    125.02253   -7256.2225   -6593.2454   -415.28573     102002.7      46.7237      46.7237      46.7237 
  476000    130.43569   -7268.7437   -6577.0613     -420.823     102002.7      46.7237      46.7237      46.7237 
  477000    128.51321   -7278.3077     -6596.82   -260.83775     102002.7      46.7237      46.7237      46.7237 
  478000    134.81435    -7255.166   -6540.2643   -369.56898     102002.7      46.7237      46.7237      46.7237 
  479000    129.99167   -7228.3731   -6539.0453   -561.42487     102002.7      46.7237      46.7237      46.7237 
  480000    129.63471   -7258.5641   -6571.1292   -666.50743     102002.7      46.7237      46.7237      46.7237 
  481000    132.27328   -7247.2409   -6545.8141   -672.79846     102002.7      46.7237      46.7237      46.7237 
  482000     134.2613   -7236.9455   -6524.9764   -481.83108     102002.7      46.7237      46.7237      46.7237 
  483000    132.09674   -7272.8276   -6572.3369   -430.95323     102002.7      46.7237      46.7237      46.7237 
  484000    126.81488   -7266.6151   -6594.1334   -553.35166     102002.7      46.7237      46.7237      46.7237 
  485000    128.13471    -7251.701   -6572.2205   -626.35457     102002.7      46.7237      46.7237      46.7237 
  486000    131.87918   -7229.1901   -6529.8531   -667.18141     102002.7      46.7237      46.7237      46.7237 
  487000    130.20211   -7248.2669   -6557.8232   -491.73898     102002.7      46.7237      46.7237      46.7237 
  488000    129.18612   -7267.5415   -6582.4854    -590.8688     102002.7      46.7237      46.7237      46.7237 
  489000    132.37104   -7257.7957   -6555.8504   -576.20646     102002.7      46.7237      46.7237      46.7237 
  490000    130.34824   -7256.3574   -6565.1388   -435.23225     102002.7      46.7237      46.7237      46.7237 
  491000    130.62539   -7253.4151   -6560.7269   -910.63266     102002.7      46.7237      46.7237      46.7237 
  492000    131.50402   -7254.1873   -6556.8398   -671.71702     102002.7      46.7237      46.7237      46.7237 
  493000    129.58276   -7267.6428   -6580.4834   -860.49795     102002.7      46.7237      46.7237      46.7237 
  494000     133.3265   -7237.1556   -6530.1437   -616.00642     102002.7      46.7237      46.7237      46.7237 
  495000    132.44589    -7271.851   -6569.5089   -574.11211     102002.7      46.7237      46.7237      46.7237 
  496000    130.19177   -7250.6286   -6560.2397   -644.88183     102002.7      46.7237      46.7237      46.7237 
  497000     125.9939   -7245.5688   -6577.4406   -419.72109     102002.7      46.7237      46.7237      46.7237 
  498000    129.90199   -7261.7151   -6572.8629   -179.00051     102002.7      46.7237      46.7237      46.7237 
  499000     130.5358   -7254.7339   -6562.5207   -566.88926     102002.7      46.7237      46.7237      46.7237 
  500000     131.7349    -7246.928   -6548.3561     -647.595     102002.7      46.7237      46.7237      46.7237 
  500502    132.56907   -7245.6731   -6542.6777   -786.85775     102002.7      46.7237      46.7237      46.7237 
Loop time of 1329.08 on 16 procs for 500000 steps with 1780 atoms

Performance: 32.504 ns/day, 0.738 hours/ns, 376.200 timesteps/s
99.8% CPU use with 16 MPI tasks x no OpenMP threads

MPI task timing breakdown:
Section |  min time  |  avg time  |  max time  |%varavg| %total
---------------------------------------------------------------
Pair    | 461.99     | 698        | 896.37     | 542.8 | 52.52
Bond    | 159.75     | 174.19     | 186.16     |  65.2 | 13.11
Neigh   | 5.3415     | 5.3575     | 5.3827     |   0.5 |  0.40
Comm    | 231.48     | 437.34     | 687.77     | 719.0 | 32.91
Output  | 0.020574   | 0.02103    | 0.024061   |   0.5 |  0.00
Modify  | 7.8944     | 8.7909     | 9.9467     |  23.5 |  0.66
Other   |            | 5.385      |            |       |  0.41

Nlocal:    111.25 ave 141 max 82 min
Histogram: 2 1 1 2 2 3 1 2 0 2
Nghost:    2257.12 ave 2291 max 2222 min
Histogram: 2 0 1 2 3 2 2 1 2 1
Neighs:    11449.4 ave 16702 max 7595 min
Histogram: 5 1 0 1 2 1 1 4 0 1

Total # of neighbors = 183190
Ave neighs/atom = 102.916
Ave special neighs/atom = 6.47191
Neighbor list builds = 4252
Dangerous builds = 0
Neighbor list info ...
  update every 1 steps, delay 10 steps, check yes
  max neighbors/atom: 2000, page size: 100000
  master list distance cutoff = 16
  ghost atom cutoff = 16
  binsize = 8, bins = 6 6 6
  3 neighbor lists, perpetual/occasional/extra = 3 0 0
  (1) pair buck6d/coul/gauss/dsf, perpetual, skip from (3)
      attributes: half, newton on
      pair build: skip
      stencil: none
      bin: none
  (2) pair lj/cut, perpetual, skip from (3)
      attributes: half, newton on
      pair build: skip
      stencil: none
      bin: none
  (3) neighbor class addition, perpetual
      attributes: half, newton on
      pair build: half/bin/newton
      stencil: half/bin/3d/newton
      bin: standard
Setting up Verlet run ...
  Unit style    : real
  Current step  : 500502
  Time step     : 1
WARNING: Inconsistent image flags (../domain.cpp:786)
Per MPI rank memory allocation (min/avg/max) = 23.07 | 23.3 | 23.34 Mbytes
Step Time TotEng KinEng PotEng E_mol E_pair Temp Pxx Pyy Pzz Pxy Pxz Pyz Cella Cellb Cellc CellAlpha CellBeta CellGamma Volume Press 
  500502       500000   -6542.6777    702.99537   -7245.6731    4414.5709   -11660.244    132.56907   -1274.9446   -760.78157   -324.84712    65.371089   -223.38018    125.87032      46.7237      46.7237      46.7237           90           90           90     102002.7   -786.85775 
  501000       500498   -6540.1961    706.59887    -7246.795    4400.8352    -11647.63    133.24861    -598.9147   -353.53094   -502.62461    196.46482   -113.24773   -228.22911      46.7237      46.7237      46.7237           90           90           90     102002.7   -485.02342 
  502000       501498   -6576.2162    690.16646   -7266.3826    4384.4107   -11650.793    130.14983   -1121.8268   -15.374806   -873.10813   -92.345443   -32.184667   -251.70337      46.7237      46.7237      46.7237           90           90           90     102002.7   -670.10324 
  503000       502498   -6576.5713    686.69347   -7263.2648    4402.0565   -11665.321     129.4949   -366.88554   -804.23601   -886.28527   -101.08503   -5.8877217   -137.34134      46.7237      46.7237      46.7237           90           90           90     102002.7   -685.80227 
  504000       503498   -6546.9926    702.03939    -7249.032    4422.2532   -11671.285    132.38879     -964.455   -595.19674   -622.58509   -43.819538    139.51188   -55.948325      46.7237      46.7237      46.7237           90           90           90     102002.7   -727.41228 
  505000       504498   -6579.8345    687.24355    -7267.078    4373.3014   -11640.379    129.59863   -395.25596   -596.23694   -567.85115    279.50982   -15.476734   -100.29204      46.7237      46.7237      46.7237           90           90           90     102002.7   -519.78135 
  506000       505498    -6568.292    684.54218   -7252.8342    4411.1274   -11663.962    129.08922    -1088.276   -536.75521   -1008.9544   -148.25085   -79.620413   -146.35818      46.7237      46.7237      46.7237           90           90           90     102002.7    -877.9952 
  507000       506498   -6548.1336    718.15677   -7266.2903     4388.085   -11654.375    135.42817   -450.17929   -493.59296   -644.07822   -160.54264   -146.52135     164.5135      46.7237      46.7237      46.7237           90           90           90     102002.7   -529.28349 
  508000       507498   -6568.3719    696.81938   -7265.1913    4376.3793   -11641.571    131.40442      -727.28   -1065.8097   -1094.2602    110.10633    52.753657   -60.494738      46.7237      46.7237      46.7237           90           90           90     102002.7   -962.44995 
  509000       508498   -6597.8868    680.68567   -7278.5724    4375.3785   -11653.951    128.36196    -860.4664   -379.36424   -745.71454    3.5289736    230.66279   -226.97801      46.7237      46.7237      46.7237           90           90           90     102002.7    -661.8484 
  510000       509498   -6530.1889    690.26601   -7220.4549     4441.966   -11662.421     130.1686   -810.13808   -930.22949    -438.0286   -18.265346   -8.9048221   -160.69102      46.7237      46.7237      46.7237           90           90           90     102002.7   -726.13205 
  511000       510498   -6569.8738    681.92293   -7251.7968    4415.6723   -11667.469    128.59529   -348.15993   -1009.5266   -1276.8694    142.83253    57.483314   -125.34928      46.7237      46.7237      46.7237           90           90           90     102002.7   -878.18533 
  512000       511498   -6573.6882    691.48464   -7265.1728    4411.0494   -11676.222    130.39841   -689.05107   -554.67897    -846.0512   -17.868699    135.88052    -230.4987      46.7237      46.7237      46.7237           90           90           90     102002.7   -696.59375 
  513000       512498   -6528.2295    715.85779   -7244.0873    4417.2143   -11661.302    134.99463   -640.58607   -1027.5861   -481.98958   -102.02199    118.54083   -96.601599      46.7237      46.7237      46.7237           90           90           90     102002.7   -716.72058 
  514000       513498   -6564.7518    696.56573   -7261.3175    4398.4402   -11659.758    131.35659   -325.35338   -1018.4402   -1168.1922    132.67444   -7.8696415    200.55678      46.7237      46.7237      46.7237           90           90           90     102002.7   -837.32858 
  515000       514498   -6561.4983    696.71477   -7258.2131    4407.7799   -11665.993    131.38469   -842.88871   -624.53597   -580.61396   -226.57705    61.951643   -221.88309      46.7237      46.7237      46.7237           90           90           90     102002.7   -682.67955 
  516000       515498   -6562.9428    681.56368   -7244.5065    4410.3356   -11654.842    128.52754   -864.05037   -847.84018   -1041.2062   -228.12865    131.73901   -219.54162      46.7237      46.7237      46.7237           90           90           90     102002.7   -917.69891 
  517000       516498   -6557.4595    695.79259   -7253.2521    4402.2424   -11655.494    131.21079   -931.24271    -755.3388   -937.48494   -257.93519     152.9748    51.704027      46.7237      46.7237      46.7237           90           90           90     102002.7   -874.68882 
  518000       517498   -6590.1296    676.95192   -7267.0816    4400.3592   -11667.441    127.65786   -1127.8372   -1044.1234   -418.87232    -90.11109    61.676714    120.83607      46.7237      46.7237      46.7237           90           90           90     102002.7   -863.61095 
  519000       518498   -6571.8973    697.89731   -7269.7947     4393.935    -11663.73    131.60769   -627.58282   -1220.8905   -560.11209    68.181244   -13.724164   -205.22439      46.7237      46.7237      46.7237           90           90           90     102002.7   -802.86181 
  520000       519498   -6546.0695    698.29889   -7244.3684    4417.9689   -11662.337    131.68342   -719.15718   -175.63229   -582.44447   -196.45525    -166.7789   -26.776845      46.7237      46.7237      46.7237           90           90           90     102002.7   -492.41131 
  521000       520498   -6560.2132    699.61312   -7259.8264    4405.3712   -11665.198    131.93126   -610.07071   -637.60609   -764.98953   -98.726428   -24.671799    303.74245      46.7237      46.7237      46.7237           90           90           90     102002.7   -670.88877 
  522000       521498   -6578.0499    699.92493   -7277.9748    4388.8902   -11666.865    131.99006   -265.83064   -810.19248   -551.11786    17.315438     95.14225    -8.835603      46.7237      46.7237      46.7237           90           90           90     102002.7   -542.38033 
  523000       522498   -6547.0446    692.00636    -7239.051    4428.7451   -11667.796    130.49679   -626.75222   -733.17383   -191.69851   -351.32251    9.7787371   -150.08093      46.7237      46.7237      46.7237           90           90           90     102002.7   -517.20819 
  524000       523498   -6535.9009    699.67169   -7235.5726    4437.6472    -11673.22     131.9423   -361.64898   -815.62346   -566.76263    58.880329     47.31821    146.81507      46.7237      46.7237      46.7237           90           90           90     102002.7   -581.34503 
  525000       524498   -6558.9003    690.12267    -7249.023    4396.6079   -11645.631    130.14157   -463.59472   -713.59765   -605.32645    420.43199   -35.455416     10.77581      46.7237      46.7237      46.7237           90           90           90     102002.7   -594.17294 
  526000       525498   -6534.0715    690.73939   -7224.8109     4434.509    -11659.32    130.25787   -1021.5464   -460.33292    56.173192   -71.414821    1.5959991   -88.388268      46.7237      46.7237      46.7237           90           90           90     102002.7   -475.23538 
  527000       526498   -6554.4783    691.36118   -7245.8394    4420.9679   -11666.807    130.37513   -935.42831   -784.27087    -754.3247   -87.706603   -223.99045    179.46307      46.7237      46.7237      46.7237           90           90           90     102002.7   -824.67463 
  528000       527498   -6570.3989    685.50976   -7255.9086    4398.4473   -11654.356    129.27168   -583.44201   -866.88281    -422.4632    4.3419631    243.72338     64.87723      46.7237      46.7237      46.7237           90           90           90     102002.7   -624.26268 
  529000       528498   -6545.7267    697.18785   -7242.9146    4419.2302   -11662.145    131.47391   -1186.4902   -558.39994   -1027.2478    203.82981    128.55389   -184.06938      46.7237      46.7237      46.7237           90           90           90     102002.7   -924.04599 
  530000       529498   -6562.4168    688.42872   -7250.8456    4399.2945    -11650.14    129.82213     -738.037   -604.64187   -1117.7417    10.775993   -32.113385    -128.0239      46.7237      46.7237      46.7237           90           90           90     102002.7   -820.14019 
  531000       530498   -6536.9071     704.6292   -7241.5363    4423.2778   -11664.814    132.87718   -921.22258   -499.52872   -634.65552   -128.85543   -69.468507     49.47433      46.7237      46.7237      46.7237           90           90           90     102002.7   -685.13561 
  532000       531498    -6558.646    703.64529   -7262.2913    4393.2935   -11655.585    132.69163   -753.97656   -590.64716   -908.82225   -1.2408404   -207.33402   -49.628948      46.7237      46.7237      46.7237           90           90           90     102002.7   -751.14865 
  533000       532498   -6596.9259    657.68009    -7254.606    4415.2839    -11669.89    124.02363   -804.78795    -1236.724   -856.21391   -47.538876   -18.900914   -113.03291      46.7237      46.7237      46.7237           90           90           90     102002.7   -965.90863 
  534000       533498   -6554.2646    701.07658   -7255.3412    4391.0865   -11646.428    132.20723   -535.56807   -372.15451    -1044.203    132.68995   -19.210338   -50.470195      46.7237      46.7237      46.7237           90           90           90     102002.7   -650.64185 
  535000       534498   -6524.5965    714.59653    -7239.193    4438.2233   -11677.416    134.75679   -846.92838   -834.18818   -1009.7168   -106.06966     142.6306   -102.05056      46.7237      46.7237      46.7237           90           90           90     102002.7   -896.94447 
  536000       535498   -6571.2934    662.08693   -7233.3803    4418.8161   -11652.196    124.85466   -1392.8653   -791.87743   -709.44263   -384.15122   -41.634068   -273.47558      46.7237      46.7237      46.7237           90           90           90     102002.7   -964.72845 
  537000       536498   -6554.0247    684.77367   -7238.7984    4419.0278   -11657.826    129.13287   -997.80241   -1033.1927   -980.73747   -58.289217   -109.02222   -311.11756      46.7237      46.7237      46.7237           90           90           90     102002.7   -1003.9109 
  538000       537498    -6570.457    692.60542   -7263.0624    4405.6187   -11668.681    130.60976   -523.83679   -840.23199   -707.55862    74.271649    110.23457   -186.57475      46.7237      46.7237      46.7237           90           90           90     102002.7   -690.54247 
  539000       538498   -6597.0179    669.29633   -7266.3142    4392.7344   -11659.049    126.21419   -290.91484   -690.02571   -1040.0312   -80.305679   -8.9113909   -83.797979      46.7237      46.7237      46.7237           90           90           90     102002.7   -673.65723 
  540000       539498   -6576.8321     671.9554   -7248.7875    4422.6366   -11671.424    126.71563   -743.86694   -831.82781   -818.90505    57.021179   -182.33669   -113.00372      46.7237      46.7237      46.7237           90           90           90     102002.7   -798.19993 
  541000       540498   -6557.1685    710.05041   -7267.2189    4378.8776   -11646.097    133.89949   -579.82701   -52.871273   -996.91644   -67.398463    1.2936947      227.932      46.7237      46.7237      46.7237           90           90           90     102002.7   -543.20491 
  542000       541498   -6561.8049    697.71224   -7259.5172    4402.4052   -11661.922    131.57279   -989.28422   -701.87836   -1182.8189    251.41795    237.46443     18.33908      46.7237      46.7237      46.7237           90           90           90     102002.7   -957.99383 
  543000       542498   -6592.2724    673.53453   -7265.8069     4373.323    -11639.13    127.01342    -1202.825   -324.47953   -1012.2702   -148.99934   -263.34245   -22.580155      46.7237      46.7237      46.7237           90           90           90     102002.7   -846.52492 
  544000       543498    -6534.375     698.4677   -7232.8427    4430.6876    -11663.53    131.71525   -1252.7757    -961.5132   -817.93244   -149.98679    22.958159   -208.85576      46.7237      46.7237      46.7237           90           90           90     102002.7   -1010.7404 
  545000       544498   -6575.1848    698.83971   -7274.0245    4380.6031   -11654.628    131.78541   -909.98356   -611.43295    -747.2716   -138.97971    214.78637   -80.668555      46.7237      46.7237      46.7237           90           90           90     102002.7   -756.22937 
  546000       545498   -6574.7353     687.3808   -7262.1161    4412.0089   -11674.125    129.62451   -1016.7847   -516.81695   -940.99919   -71.741924    100.23747   -121.89781      46.7237      46.7237      46.7237           90           90           90     102002.7   -824.86693 
  547000       546498   -6564.8036    686.09444    -7250.898    4412.7525   -11663.651    129.38194   -282.43818   -615.77487   -1229.3153   -166.62333   -119.19209   -357.64985      46.7237      46.7237      46.7237           90           90           90     102002.7   -709.17613 
  548000       547498   -6591.0504    674.65632   -7265.7067    4381.6661   -11647.373    127.22497   -605.68877   -587.33763   -808.74191    24.585461    235.27879    178.14264      46.7237      46.7237      46.7237           90           90           90     102002.7    -667.2561 
  549000       548498   -6545.5644    715.40341   -7260.9678    4404.5211   -11665.489    134.90895   -456.02426   -374.93212   -147.26323   -360.31188    86.652794    155.09945      46.7237      46.7237      46.7237           90           90           90     102002.7   -326.07321 
  550000       549498   -6589.5197    689.03327   -7278.5529    4387.3064   -11665.859    129.93613    -577.9314   -824.86464   -936.71517   -36.701953    -135.5077   -176.83023      46.7237      46.7237      46.7237           90           90           90     102002.7   -779.83707 
  551000       550498   -6538.1038    698.87593   -7236.9798    4423.9581   -11660.938    131.79224    -625.5446   -298.79835   -993.98505   -76.204669    108.85623   -90.279493      46.7237      46.7237      46.7237           90           90           90     102002.7   -639.44267 
  552000       551498   -6581.9709    668.66996   -7250.6409    4405.0151   -11655.656    126.09607   -346.78844   -772.32271    -495.1048   -191.19719   -18.657882    45.077918      46.7237      46.7237      46.7237           90           90           90     102002.7   -538.07198 
  553000       552498   -6586.8377    692.81095   -7279.6487    4381.7954   -11661.444    130.64852   -739.22123   -803.62434   -960.27593    136.74477   -282.66405   -131.94913      46.7237      46.7237      46.7237           90           90           90     102002.7   -834.37383 
  554000       553498   -6549.1683    688.93377   -7238.1021    4426.9696   -11665.072    129.91737   -930.34026   -892.96784   -1330.9092   -3.4982379   -200.28703   -92.613141      46.7237      46.7237      46.7237           90           90           90     102002.7   -1051.4058 
  555000       554498   -6574.6038     686.2862     -7260.89    4408.7222   -11669.612     129.4181   -768.90188    -691.8226    -474.6016    345.21007   -93.888362     -16.2666      46.7237      46.7237      46.7237           90           90           90     102002.7    -645.1087 
[...]
  936000       935498   -6561.4921    691.92491    -7253.417    4408.0284   -11661.445    130.48143   -666.52312   -988.83703   -1011.3851   -128.59063    10.664238   -50.822895      46.7237      46.7237      46.7237           90           90           90     102002.7    -888.9151 
  937000       936498    -6568.025     680.1208   -7248.1458    4399.2484   -11647.394    128.25544   -371.28485   -624.47763    -284.7572     128.2955    120.17501   -33.508498      46.7237      46.7237      46.7237           90           90           90     102002.7   -426.83989 
  938000       937498   -6576.4686      689.773   -7266.2416    4389.8723   -11656.114    130.07563   -402.59289   -487.89413   -244.53721   -79.945731   -164.00641    85.987515      46.7237      46.7237      46.7237           90           90           90     102002.7   -378.34141 
  939000       938498   -6547.8139    694.84526   -7242.6592    4399.0142   -11641.673    131.03214   -302.88495   -786.71196    -432.0917   -198.44502    167.44927   -34.515857      46.7237      46.7237      46.7237           90           90           90     102002.7   -507.22954 
  940000       939498   -6565.7975    672.60561   -7238.4031    4410.6783   -11649.081    126.83825   -606.26301   -959.29264   -410.88437   -37.191541    91.818089    78.813982      46.7237      46.7237      46.7237           90           90           90     102002.7   -658.81334 
  941000       940498   -6569.9826    688.40567   -7258.3883    4390.2109   -11648.599    129.81778   -253.41712   -435.23485   -1026.2316   -237.19879    190.09773   -85.689441      46.7237      46.7237      46.7237           90           90           90     102002.7   -571.62785 
  942000       941498   -6570.0625    702.60899   -7272.6715    4377.8307   -11650.502    132.49621   -655.87448   -288.15209   -515.68584   -80.928981    79.470489   -209.43533      46.7237      46.7237      46.7237           90           90           90     102002.7    -486.5708 
  943000       942498   -6548.9291    698.96128   -7247.8904    4403.1924   -11651.083    131.80833   -553.98939   -817.89514   -544.38812    209.22005   -212.28541    88.455669      46.7237      46.7237      46.7237           90           90           90     102002.7   -638.75755 
  944000       943498   -6573.9476    680.71024   -7254.6579    4381.2574   -11635.915     128.3666   -797.10499   -496.13648   -765.14001    55.207745    185.53334    186.94875      46.7237      46.7237      46.7237           90           90           90     102002.7   -686.12716 
  945000       944498   -6559.0258    689.07891   -7248.1047    4422.1679   -11670.273    129.94474   -799.62894    -851.3098   -589.14811   -89.777861   -76.433621   -258.12423      46.7237      46.7237      46.7237           90           90           90     102002.7   -746.69562 
  946000       945498   -6528.7248    713.58987   -7242.3147    4406.4454    -11648.76    134.56696   -653.50874   -661.53426   -321.45212    355.08937    170.85197   -72.197904      46.7237      46.7237      46.7237           90           90           90     102002.7   -545.49837 
  947000       946498   -6549.0211    704.74971   -7253.7709    4411.9316   -11665.702     132.8999   -755.68182   -910.59653   -379.62932   -98.122393   -241.78247    32.440427      46.7237      46.7237      46.7237           90           90           90     102002.7   -681.96922 
  948000       947498   -6534.3261    711.69528   -7246.0213    4416.3384    -11662.36    134.20968    -155.8902   -901.48778    -692.9347   -304.97098    14.469941   -225.37373      46.7237      46.7237      46.7237           90           90           90     102002.7   -583.43756 
  949000       948498   -6569.2446    710.32081   -7279.5654    4379.4815   -11659.047    133.95049   -880.40493   -566.27105   -751.92118   -186.48918    93.513773    234.54588      46.7237      46.7237      46.7237           90           90           90     102002.7   -732.86572 
  950000       949498   -6573.5337    681.61466   -7255.1484    4408.3212    -11663.47    128.53715   -783.06044   -825.85603   -912.14399    248.59634   -98.123345    342.82241      46.7237      46.7237      46.7237           90           90           90     102002.7   -840.35348 
  951000       950498   -6557.2697    696.98082   -7254.2505    4399.3084   -11653.559    131.43486   -473.60228   -800.96304   -755.73682   -27.719175    67.055435   -42.628085      46.7237      46.7237      46.7237           90           90           90     102002.7   -676.76738 
  952000       951498   -6576.1708    678.23556   -7254.4063     4410.847   -11665.253    127.89993   -251.69383   -268.47778    -1313.568   -260.46039   -57.185129   -104.44455      46.7237      46.7237      46.7237           90           90           90     102002.7   -611.24654 
  953000       952498   -6557.2959    691.01557   -7248.3114    4420.1356   -11668.447    130.30995   -800.84081   -645.27885   -682.59208   -24.472961   -173.82605    47.799478      46.7237      46.7237      46.7237           90           90           90     102002.7   -709.57058 
  954000       953498   -6530.6772    711.80625   -7242.4835    4414.5491   -11657.033     134.2306   -536.84351   -596.07818   -732.33087    62.744691    -89.80208   -151.34808      46.7237      46.7237      46.7237           90           90           90     102002.7   -621.75085 
  955000       954498   -6554.3398    691.38146   -7245.7213    4405.5155   -11651.237    130.37895   -739.83992   -433.88986   -885.94262    -61.21355    153.72075    106.80285      46.7237      46.7237      46.7237           90           90           90     102002.7   -686.55746 
  956000       955498    -6564.275    679.49066   -7243.7657    4425.4294   -11669.195    128.13661   -736.28706   -752.24678   -829.53478    155.66932   -99.022738    12.320787      46.7237      46.7237      46.7237           90           90           90     102002.7   -772.68954 
  957000       956498    -6545.723    684.75129   -7230.4743     4410.075   -11640.549    129.12865   -1154.7905   -640.71714   -612.50338   -259.16772    -110.3097    1.0745496      46.7237      46.7237      46.7237           90           90           90     102002.7   -802.67034 
  958000       957498   -6546.2599    704.01008     -7250.27    4404.0156   -11654.286    132.76042   -292.83474   -268.93688   -659.36683   -34.788771    168.64205   -110.87001      46.7237      46.7237      46.7237           90           90           90     102002.7   -407.04615 
  959000       958498   -6567.3052    683.86034   -7251.1655     4399.917   -11651.083    128.96064   -315.55236   -752.67112   -621.26854   -43.370153    216.04085    135.72901      46.7237      46.7237      46.7237           90           90           90     102002.7   -563.16401 
  960000       959498   -6524.2612    699.41994   -7223.6811    4442.0242   -11665.705    131.89483   -254.74939   -539.89544   -439.29403    125.85632   -263.79816    27.898223      46.7237      46.7237      46.7237           90           90           90     102002.7   -411.31295 
  961000       960498   -6554.1583    701.19228   -7255.3506    4396.1711   -11651.522    132.22905   -814.37172    -2.535639   -782.15772    136.07728    -14.65235    16.112393      46.7237      46.7237      46.7237           90           90           90     102002.7   -533.02169 
  962000       961498   -6606.0344     663.0445   -7269.0789    4369.7846   -11638.864    125.03524   -204.96624   -1078.8757   -401.41408    171.16151   -41.997056    443.84461      46.7237      46.7237      46.7237           90           90           90     102002.7   -561.75201 
  963000       962498   -6566.5016    690.25972   -7256.7613    4416.4503   -11673.212    130.16742   -609.60613   -314.93179   -765.63696   -342.26074    36.332424   -171.98622      46.7237      46.7237      46.7237           90           90           90     102002.7   -563.39163 
  964000       963498   -6566.9965    692.21437   -7259.2109     4414.291   -11673.502    130.53602    -1036.778   -789.50571    -773.1335     250.5799      124.311    79.279331      46.7237      46.7237      46.7237           90           90           90     102002.7    -866.4724 
  965000       964498    -6538.831    695.83403    -7234.665    4422.0408   -11656.706     131.2186    -658.4374   -894.12149   -578.18162   -42.584349   -82.222956    122.51418      46.7237      46.7237      46.7237           90           90           90     102002.7   -710.24684 
  966000       965498   -6575.2081    679.73111   -7254.9392     4392.024   -11646.963    128.18196   -524.29558   -764.78056   -1622.9533     13.16264    22.346606    130.76583      46.7237      46.7237      46.7237           90           90           90     102002.7   -970.67648 
  967000       966498   -6536.4322    689.27222   -7225.7044    4451.6783   -11677.383     129.9812   -1042.6873   -1293.1795   -1179.8643    3.5314338    58.647362   -55.335322      46.7237      46.7237      46.7237           90           90           90     102002.7   -1171.9104 
  968000       967498   -6552.0627     693.2182   -7245.2809    4427.2065   -11672.487    130.72532   -1357.4222   -996.90322   -945.58577   0.45293054   -303.32843   -12.468448      46.7237      46.7237      46.7237           90           90           90     102002.7   -1099.9704 
  969000       968498   -6558.7903    686.30494   -7245.0953    4408.7073   -11653.803    129.42163   -1058.9216   -1037.4602   -698.45071   -12.204406    197.72773    82.600614      46.7237      46.7237      46.7237           90           90           90     102002.7   -931.61083 
  970000       969498   -6564.3906    694.81029   -7259.2009    4394.9748   -11654.176    131.02555   -444.77898   -111.88087   -687.23926    103.00036    128.64418   -71.417803      46.7237      46.7237      46.7237           90           90           90     102002.7   -414.63304 
  971000       970498   -6543.6139    703.21604   -7246.8299    4404.2793   -11651.109    132.61068   -834.28735   -1085.2638   -260.51154   -166.39836   -262.37151   -20.567801      46.7237      46.7237      46.7237           90           90           90     102002.7   -726.68755 
  972000       971498   -6601.3308    671.55071   -7272.8815    4390.3781    -11663.26    126.63932   -695.05121   -678.77898   -678.79488    173.21587   -98.676552   -72.175222      46.7237      46.7237      46.7237           90           90           90     102002.7   -684.20836 
  973000       972498   -6569.7537    673.83062   -7243.5843    4390.2022   -11633.786    127.06926   -500.58511   -920.01316    -595.7047   -276.99415    197.65517    317.50736      46.7237      46.7237      46.7237           90           90           90     102002.7   -672.10099 
  974000       973498   -6543.6479    706.08487   -7249.7328     4416.712   -11666.445    133.15168   -403.84685   -504.63392   -404.97536    138.44452      220.577   -68.444575      46.7237      46.7237      46.7237           90           90           90     102002.7   -437.81871 
  975000       974498    -6579.513    674.02177   -7253.5348    4399.3754    -11652.91     127.1053    -402.0681   -345.72149   -905.53555    468.96754   -134.57263    473.23209      46.7237      46.7237      46.7237           90           90           90     102002.7   -551.10838 
  976000       975498   -6563.6424    702.24527   -7265.8876    4391.5351   -11657.423    132.42762   -692.40378    -819.6216   -1145.4782   -20.381787    39.455501   -134.20141      46.7237      46.7237      46.7237           90           90           90     102002.7   -885.83451 
  977000       976498   -6534.5947    699.65886   -7234.2535    4404.2905   -11638.544    131.93988   -642.87795   -725.46962   -778.69693   -186.49729    274.06876    84.191749      46.7237      46.7237      46.7237           90           90           90     102002.7    -715.6815 
  978000       977498   -6578.6655    685.19999   -7263.8655    4416.5148    -11680.38    129.21326   -538.75408   -660.48514   -998.98015    104.04938    148.54214   -75.672124      46.7237      46.7237      46.7237           90           90           90     102002.7   -732.73979 
  979000       978498   -6562.2141     700.7584   -7262.9725    4385.8459   -11648.818    132.14723   -292.82855    -930.3898   -646.04269   -175.21901   -15.966774   -12.437503      46.7237      46.7237      46.7237           90           90           90     102002.7   -623.08701 
  980000       979498   -6546.0114    683.86438   -7229.8758    4426.0608   -11655.937     128.9614    -1030.362   -753.97528    -690.2391    192.82417    8.1724209    188.07252      46.7237      46.7237      46.7237           90           90           90     102002.7   -824.85879 
  981000       980498   -6576.2834    691.88588   -7268.1692    4407.0801   -11675.249    130.47407   -561.05911   -1128.1728   -1041.6224    5.0338405   -78.903851    25.497975      46.7237      46.7237      46.7237           90           90           90     102002.7   -910.28477 
  982000       981498   -6556.8081    689.87235   -7246.6804    4416.4788   -11663.159    130.09437   -381.12086    -572.8847   -653.87717   -192.37724    156.45219   -246.22445      46.7237      46.7237      46.7237           90           90           90     102002.7   -535.96091 
  983000       982498   -6555.0671    702.95718   -7258.0242    4392.0932   -11650.117    132.56187   -317.36668   -301.93927    -928.3593    61.394453   -233.17078   -340.46933      46.7237      46.7237      46.7237           90           90           90     102002.7   -515.88841 
  984000       983498   -6552.5993    697.81583   -7250.4152    4414.0083   -11664.423    131.59233   -387.60429   -572.94144   -902.25942    150.00744    234.84326    70.063423      46.7237      46.7237      46.7237           90           90           90     102002.7   -620.93505 
  985000       984498   -6566.1192    676.73099   -7242.8502    4434.2623   -11677.113     127.6162    -1338.549   -704.86268   -523.56202   -73.592372   -177.73697    91.906157      46.7237      46.7237      46.7237           90           90           90     102002.7   -855.65789 
  986000       985498   -6559.7768    694.95891   -7254.7357    4391.2221   -11645.958    131.05358   -724.06551   -890.73325    -1139.288    141.69752    92.620166   -158.45636      46.7237      46.7237      46.7237           90           90           90     102002.7   -918.02891 
  987000       986498    -6542.583     703.3406   -7245.9236    4407.6592   -11653.583    132.63417   -1013.9075   -624.05437   -1115.3898   -21.795134    205.81952    13.529699      46.7237      46.7237      46.7237           90           90           90     102002.7   -917.78387 
  988000       987498   -6550.7452    702.94654   -7253.6917    4421.0902   -11674.782    132.55986   -342.57748   -840.13897   -474.46701   -248.68073   -4.8516675    156.68511      46.7237      46.7237      46.7237           90           90           90     102002.7   -552.39449 
  989000       988498   -6543.3539    690.72053   -7234.0744    4423.6894   -11657.764    130.25431    -1157.621   -904.12561   -220.29232    56.988773   -53.818682    109.30883      46.7237      46.7237      46.7237           90           90           90     102002.7   -760.67965 
  990000       989498   -6583.9848    686.53683   -7270.5216    4386.6712   -11657.193    129.46536   -741.14858   -278.67259   -807.35502   -218.27225   -153.61315   -78.829182      46.7237      46.7237      46.7237           90           90           90     102002.7   -609.05873 
  991000       990498   -6577.2191    673.63753   -7250.8566    4383.9151   -11634.772    127.03284   -469.68976   -731.31799   -229.79289   -15.990053    35.170422    59.371287      46.7237      46.7237      46.7237           90           90           90     102002.7   -476.93354 
  992000       991498    -6539.546    682.59618   -7222.1421    4455.9934   -11678.136    128.72224   -571.48789   -955.68094   -1109.0586   -33.460269   -288.50628     11.52237      46.7237      46.7237      46.7237           90           90           90     102002.7   -878.74247 
  993000       992498   -6574.3371    682.55601   -7256.8931    4412.9597   -11669.853    128.71467   -564.43999   -988.01742   -507.06847   -361.07485   -158.52596   -92.948485      46.7237      46.7237      46.7237           90           90           90     102002.7   -686.50863 
  994000       993498    -6554.602    704.80877   -7259.4108    4390.9778   -11650.389    132.91104    -584.2944   -205.92972   -784.71267    59.155169    157.14235    103.84424      46.7237      46.7237      46.7237           90           90           90     102002.7   -524.97893 
  995000       994498   -6588.7136     681.4444    -7270.158     4388.962    -11659.12    128.50504   -765.80181   -589.52106    97.757443    88.328192   -292.80883    96.769142      46.7237      46.7237      46.7237           90           90           90     102002.7   -419.18848 
  996000       995498   -6568.8488    693.99747   -7262.8462     4406.351   -11669.197    130.87227   -631.42739   -219.67577   -606.09159    -180.3863   -125.39569   -115.27128      46.7237      46.7237      46.7237           90           90           90     102002.7   -485.73159 
  997000       996498   -6571.4381    686.98652   -7258.4246    4405.5692   -11663.994    129.55016   -487.42397   -542.14645   -503.23622    9.6590347    292.66463   -258.33652      46.7237      46.7237      46.7237           90           90           90     102002.7   -510.93555 
  998000       997498   -6592.0346    680.30513   -7272.3397    4383.7481   -11656.088     128.2902   -664.08295   -623.21259   -1019.4437    45.255351    438.43865    236.76507      46.7237      46.7237      46.7237           90           90           90     102002.7   -768.91309 
  999000       998498   -6567.4813    677.30377   -7244.7851     4419.773   -11664.558    127.72422   -677.03576   -962.07224   -400.44289    94.622679   -44.073051   -99.157806      46.7237      46.7237      46.7237           90           90           90     102002.7    -679.8503 
 1000000       999498   -6555.3777    705.62943   -7261.0072    4390.9746   -11651.982     133.0658   -588.26227   -610.97152    -56.14146    247.06374    186.25557   -289.10699      46.7237      46.7237      46.7237           90           90           90     102002.7   -418.45842 
 1000502      1000000   -6565.7807    692.07436   -7257.8551    4393.0329   -11650.888    130.50962   -949.48176    21.882179   -675.09265   -87.527859   -261.15288   -176.02178      46.7237      46.7237      46.7237           90           90           90     102002.7   -534.23074 
Loop time of 1401.65 on 16 procs for 500000 steps with 1780 atoms

Performance: 30.821 ns/day, 0.779 hours/ns, 356.724 timesteps/s
99.9% CPU use with 16 MPI tasks x no OpenMP threads

MPI task timing breakdown:
Section |  min time  |  avg time  |  max time  |%varavg| %total
---------------------------------------------------------------
Pair    | 618.28     | 787.21     | 934.19     | 350.3 | 56.16
Bond    | 159.06     | 183.41     | 204.61     | 112.3 | 13.09
Neigh   | 5.2185     | 5.2381     | 5.2556     |   0.5 |  0.37
Comm    | 264.81     | 398.25     | 552.49     | 440.6 | 28.41
Output  | 0.098188   | 0.10326    | 0.10373    |   0.4 |  0.01
Modify  | 21.501     | 22.234     | 23.403     |  12.5 |  1.59
Other   |            | 5.195      |            |       |  0.37

Nlocal:    111.25 ave 142 max 64 min
Histogram: 1 0 0 1 2 4 2 3 2 1
Nghost:    2267.38 ave 2318 max 2241 min
Histogram: 3 0 4 4 3 1 0 0 0 1
Neighs:    11450.9 ave 17792 max 7449 min
Histogram: 2 1 3 3 3 1 2 0 0 1

Total # of neighbors = 183215
Ave neighs/atom = 102.93
Ave special neighs/atom = 6.47191
Neighbor list builds = 4323
Dangerous builds = 0
Total wall time: 0:45:33
