LAMMPS (30 Mar 2018)
Reading data file ...
  orthogonal box = (0 0 0) to (46.7237 46.7237 46.7237)
  2 by 3 by 4 MPI processor grid
  reading atoms ...
  1730 atoms
  scanning bonds ...
  5 = max bonds/atom
  scanning angles ...
  10 = max angles/atom
  scanning dihedrals ...
  32 = max dihedrals/atom
  scanning impropers ...
  3 = max impropers/atom
  reading bonds ...
  2064 bonds
  reading angles ...
  3696 angles
  reading dihedrals ...
  6240 dihedrals
  reading impropers ...
  1008 impropers
Finding 1-2 1-3 1-4 neighbors ...
  special bond factors lj:   0          0          0         
  special bond factors coul: 0          0          0         
  5 = max # of 1-2 neighbors
  8 = max # of 1-3 neighbors
  20 = max # of 1-4 neighbors
  19 = max # of special neighbors
Finding 1-2 1-3 1-4 neighbors ...
  special bond factors lj:   0          0          1         
  special bond factors coul: 1          1          1         
  5 = max # of 1-2 neighbors
  8 = max # of 1-3 neighbors
  19 = max # of special neighbors
WARNING: Using 'neigh_modify every 1 delay 0 check yes' setting during minimization (../min.cpp:168)
Neighbor list info ...
  update every 1 steps, delay 0 steps, check yes
  max neighbors/atom: 2000, page size: 100000
  master list distance cutoff = 16
  ghost atom cutoff = 16
  binsize = 8, bins = 6 6 6
  3 neighbor lists, perpetual/occasional/extra = 3 0 0
  (1) pair buck6d/coul/gauss/dsf, perpetual, skip from (3)
      attributes: half, newton on
      pair build: skip
      stencil: none
      bin: none
  (2) pair lj/cut, perpetual, skip from (3)
      attributes: half, newton on
      pair build: skip
      stencil: none
      bin: none
  (3) neighbor class addition, perpetual
      attributes: half, newton on
      pair build: half/bin/newton
      stencil: half/bin/3d/newton
      bin: standard
Setting up cg style minimization ...
  Unit style    : real
  Current step  : 0
WARNING: Inconsistent image flags (../domain.cpp:786)
Per MPI rank memory allocation (min/avg/max) = 22.87 | 23.28 | 24.42 Mbytes
Step Temp E_pair E_mol TotEng Press 
       0            0   -11519.111    6482.8914     -5036.22    6288.9463 
     509            0    -11537.32    3735.7628   -7801.5568   -471.35994 
Loop time of 1.2275 on 24 procs for 509 steps with 1730 atoms

99.8% CPU use with 24 MPI tasks x no OpenMP threads

Minimization stats:
  Stopping criterion = max force evaluations
  Energy initial, next-to-last, final = 
        -5036.21999676     -7801.49930145     -7801.55682615
  Force two-norm initial, final = 2576.99 11.2897
  Force max component initial, final = 151.978 1.24487
  Final line search alpha, max atom move = 0.00825435 0.0102756
  Iterations, force evaluations = 509 1000

MPI task timing breakdown:
Section |  min time  |  avg time  |  max time  |%varavg| %total
---------------------------------------------------------------
Pair    | 0.47562    | 0.60755    | 0.78483    |  11.0 | 49.50
Bond    | 0.13001    | 0.15846    | 0.18944    |   4.1 | 12.91
Neigh   | 0.0082644  | 0.0085022  | 0.0086753  |   0.2 |  0.69
Comm    | 0.25523    | 0.43179    | 0.55958    |  12.5 | 35.18
Output  | 0          | 0          | 0          |   0.0 |  0.00
Modify  | 0          | 0          | 0          |   0.0 |  0.00
Other   |            | 0.0212     |            |       |  1.73

Nlocal:    72.0833 ave 83 max 61 min
Histogram: 4 0 1 4 2 5 1 2 2 3
Nghost:    1966.5 ave 2136 max 1875 min
Histogram: 16 0 0 0 0 0 0 0 0 8
Neighs:    7627.58 ave 11247 max 4847 min
Histogram: 2 5 4 1 0 6 0 4 1 1

Total # of neighbors = 183062
Ave neighs/atom = 105.816
Ave special neighs/atom = 6.65896
Neighbor list builds = 16
Dangerous builds = 0
Neighbor list info ...
  update every 1 steps, delay 10 steps, check yes
  max neighbors/atom: 2000, page size: 100000
  master list distance cutoff = 16
  ghost atom cutoff = 16
  binsize = 8, bins = 6 6 6
  3 neighbor lists, perpetual/occasional/extra = 3 0 0
  (1) pair buck6d/coul/gauss/dsf, perpetual, skip from (3)
      attributes: half, newton on
      pair build: skip
      stencil: none
      bin: none
  (2) pair lj/cut, perpetual, skip from (3)
      attributes: half, newton on
      pair build: skip
      stencil: none
      bin: none
  (3) neighbor class addition, perpetual
      attributes: half, newton on
      pair build: half/bin/newton
      stencil: half/bin/3d/newton
      bin: standard
Setting up Verlet run ...
  Unit style    : real
  Current step  : 509
  Time step     : 1
WARNING: Inconsistent image flags (../domain.cpp:786)
Per MPI rank memory allocation (min/avg/max) = 22.52 | 22.71 | 23.31 Mbytes
Step Temp PotEng TotEng Press Volume Lx Ly Lz 
     509          110   -7801.5568   -7234.6366   -217.29593     102002.7      46.7237      46.7237      46.7237 
    1000    92.964575   -7281.6242   -6802.5014   -584.54695     102002.7      46.7237      46.7237      46.7237 
    2000    109.52042   -7210.4122   -6645.9635   -597.95699     102002.7      46.7237      46.7237      46.7237 
    3000    106.30026   -7219.2444    -6671.392   -635.33926     102002.7      46.7237      46.7237      46.7237 
    4000    107.93093   -7227.2152   -6670.9586    -412.9381     102002.7      46.7237      46.7237      46.7237 
    5000    108.32262   -7202.6373   -6644.3619   -858.47808     102002.7      46.7237      46.7237      46.7237 
    6000    108.71347     -7251.31   -6691.0202   -661.80315     102002.7      46.7237      46.7237      46.7237 
    7000    110.92951   -7218.1797   -6646.4689   -628.90094     102002.7      46.7237      46.7237      46.7237 
    8000    107.15823   -7243.3696   -6691.0953   -760.36245     102002.7      46.7237      46.7237      46.7237 
    9000    110.76971   -7226.5463   -6655.6591   -601.04811     102002.7      46.7237      46.7237      46.7237 
   10000    112.87957   -7211.9692   -6630.2082   -692.09616     102002.7      46.7237      46.7237      46.7237 
   11000    106.83792   -7224.5791   -6673.9556   -649.88755     102002.7      46.7237      46.7237      46.7237 
   12000    109.51076   -7228.4128   -6664.0139   -618.50227     102002.7      46.7237      46.7237      46.7237 
   13000    106.47777   -7232.6816   -6683.9143   -834.21886     102002.7      46.7237      46.7237      46.7237 
   14000    114.21221   -7237.4168   -6648.7875   -582.90062     102002.7      46.7237      46.7237      46.7237 
   15000    108.34373   -7214.5923   -6656.2081   -801.91223     102002.7      46.7237      46.7237      46.7237 
   16000    109.93669   -7222.9115   -6656.3175   -813.63944     102002.7      46.7237      46.7237      46.7237 
   17000    111.67767   -7234.0324   -6658.4658   -722.99437     102002.7      46.7237      46.7237      46.7237 
   18000    108.23397   -7222.8625    -6665.044   -487.91731     102002.7      46.7237      46.7237      46.7237 
   19000    108.01492   -7219.3516   -6662.6621   -596.52025     102002.7      46.7237      46.7237      46.7237 
   20000    105.12445   -7237.9673   -6696.1748   -454.59977     102002.7      46.7237      46.7237      46.7237 
   21000    111.67682    -7217.883   -6642.3207   -659.74046     102002.7      46.7237      46.7237      46.7237 
   22000     108.6708   -7222.2602   -6662.1904   -519.71407     102002.7      46.7237      46.7237      46.7237 
   23000    113.19804   -7234.3421   -6650.9398   -729.36113     102002.7      46.7237      46.7237      46.7237 
   24000    110.06553   -7221.0258   -6653.7678   -499.99263     102002.7      46.7237      46.7237      46.7237 
   25000    109.83978   -7239.9598   -6673.8652   -298.04029     102002.7      46.7237      46.7237      46.7237 
   26000    112.70598   -7221.5023   -6640.6359   -628.84369     102002.7      46.7237      46.7237      46.7237 
   27000    109.80049   -7243.5279   -6677.6359   -465.23798     102002.7      46.7237      46.7237      46.7237 
   28000    113.18674    -7214.463   -6631.1188   -527.65606     102002.7      46.7237      46.7237      46.7237 
   29000    111.67231    -7238.869     -6663.33   -590.10136     102002.7      46.7237      46.7237      46.7237 
   30000    108.42659   -7225.1934   -6666.3822    -793.9116     102002.7      46.7237      46.7237      46.7237 
   31000    111.65243   -7227.9825   -6652.5459   -578.67332     102002.7      46.7237      46.7237      46.7237 
   32000    107.64397   -7221.3389   -6666.5612   -620.93289     102002.7      46.7237      46.7237      46.7237 
   33000      109.573   -7224.5089   -6659.7893    -502.8932     102002.7      46.7237      46.7237      46.7237 
   34000     108.0785   -7210.8521   -6653.8349   -523.94194     102002.7      46.7237      46.7237      46.7237 
   35000    109.67332   -7242.0745   -6676.8379   -699.48397     102002.7      46.7237      46.7237      46.7237 
   36000    110.45638   -7233.2707   -6663.9984   -581.25508     102002.7      46.7237      46.7237      46.7237 
   37000    110.32539   -7232.8595   -6664.2622   -580.86647     102002.7      46.7237      46.7237      46.7237 
   38000    111.76324   -7234.8652   -6658.8575   -599.33922     102002.7      46.7237      46.7237      46.7237 
   39000    113.87635   -7231.4705   -6644.5722   -619.30261     102002.7      46.7237      46.7237      46.7237 
   40000    113.28089   -7217.1885   -6633.3592   -845.99349     102002.7      46.7237      46.7237      46.7237 
   41000    107.83523   -7220.1348   -6664.3714   -620.63235     102002.7      46.7237      46.7237      46.7237 
   42000    110.90669   -7199.9882   -6628.3951   -446.25476     102002.7      46.7237      46.7237      46.7237 
   43000    110.69887   -7226.0456   -6655.5235    -526.0439     102002.7      46.7237      46.7237      46.7237 
   44000    105.04435   -7241.5983   -6700.2185     -345.645     102002.7      46.7237      46.7237      46.7237 
   45000    110.07563    -7210.995    -6643.685   -783.80556     102002.7      46.7237      46.7237      46.7237 
   46000    109.06019   -7222.4741   -6660.3974   -733.50901     102002.7      46.7237      46.7237      46.7237 
   47000    109.36145   -7235.9569   -6672.3276   -793.77912     102002.7      46.7237      46.7237      46.7237 
   48000    104.48694   -7227.2529    -6688.746   -799.07289     102002.7      46.7237      46.7237      46.7237 
   49000     110.7126   -7225.6674   -6655.0746   -667.72009     102002.7      46.7237      46.7237      46.7237 
   50000    107.52784   -7226.8914   -6672.7121   -599.67908     102002.7      46.7237      46.7237      46.7237 
   51000    106.98141   -7227.5147   -6676.1517   -573.28611     102002.7      46.7237      46.7237      46.7237 
   52000    106.05878   -7224.2496   -6677.6417   -562.99996     102002.7      46.7237      46.7237      46.7237 
   53000     109.5823   -7221.0728   -6656.3052   -509.58902     102002.7      46.7237      46.7237      46.7237 
   54000    106.51994   -7247.7447   -6698.7601    -685.1378     102002.7      46.7237      46.7237      46.7237 
   55000    109.63532   -7218.0796   -6653.0388   -439.78772     102002.7      46.7237      46.7237      46.7237 
   56000    107.10163   -7226.7152   -6674.7327   -507.40135     102002.7      46.7237      46.7237      46.7237 
   57000     109.0081   -7238.0623   -6676.2541   -617.28697     102002.7      46.7237      46.7237      46.7237 
   58000    112.07554    -7224.436   -6646.8188   -397.96721     102002.7      46.7237      46.7237      46.7237 
   59000    109.09756   -7237.6537   -6675.3844   -532.07277     102002.7      46.7237      46.7237      46.7237 
   60000    109.85372   -7224.9453   -6658.7789   -583.00488     102002.7      46.7237      46.7237      46.7237 
   61000     108.1094   -7234.7938   -6677.6173   -700.31644     102002.7      46.7237      46.7237      46.7237 
   62000    110.91024   -7211.8162   -6640.2047   -773.92557     102002.7      46.7237      46.7237      46.7237 
   63000    110.38759   -7218.7381   -6649.8203   -1095.9533     102002.7      46.7237      46.7237      46.7237 
   64000    108.74238   -7261.4288   -6700.9901   -676.60261     102002.7      46.7237      46.7237      46.7237 
   65000    116.00052   -7207.2613   -6609.4154    -769.1587     102002.7      46.7237      46.7237      46.7237 
   66000    107.89546   -7229.8425   -6673.7687   -618.77869     102002.7      46.7237      46.7237      46.7237 
   67000    108.46837   -7216.3573   -6657.3308   -630.07812     102002.7      46.7237      46.7237      46.7237 
   68000    110.92003   -7216.5362   -6644.8743   -472.61534     102002.7      46.7237      46.7237      46.7237 
   69000    109.95249   -7242.6504   -6675.9749   -803.84748     102002.7      46.7237      46.7237      46.7237 
   70000     112.5911   -7220.5906   -6640.3163   -808.04842     102002.7      46.7237      46.7237      46.7237 
   71000    110.79249   -7237.9906    -6666.986   -732.19691     102002.7      46.7237      46.7237      46.7237 
   72000    111.23481   -7232.1332    -6658.849    -804.4711     102002.7      46.7237      46.7237      46.7237 
   73000    109.10067   -7243.3188   -6681.0335   -518.27335     102002.7      46.7237      46.7237      46.7237 
   74000    111.89212   -7218.0595   -6641.3876   -430.64449     102002.7      46.7237      46.7237      46.7237 
   75000    108.90723   -7213.9812   -6652.6929   -611.37737     102002.7      46.7237      46.7237      46.7237 
   76000    112.97656   -7235.9696   -6653.7087   -565.49754     102002.7      46.7237      46.7237      46.7237 
   77000    106.14174   -7225.5806   -6678.5451   -864.46103     102002.7      46.7237      46.7237      46.7237 
   78000    110.55088   -7240.4136   -6670.6542   -1074.4563     102002.7      46.7237      46.7237      46.7237 
   79000    110.34944   -7227.7178   -6658.9966   -731.14494     102002.7      46.7237      46.7237      46.7237 
   80000     117.1486   -7232.8744   -6629.1115   -687.82926     102002.7      46.7237      46.7237      46.7237 
   81000    110.38378   -7245.8989   -6677.0007   -505.60379     102002.7      46.7237      46.7237      46.7237 
   82000     110.4939   -7236.4343   -6666.9686   -387.50118     102002.7      46.7237      46.7237      46.7237 
   83000    112.77312   -7219.6858   -6638.4734   -164.70409     102002.7      46.7237      46.7237      46.7237 
   84000    108.62472   -7233.7319   -6673.8996   -551.45323     102002.7      46.7237      46.7237      46.7237 
   85000    108.62418   -7208.7625    -6648.933   -482.69592     102002.7      46.7237      46.7237      46.7237 
   86000    105.39229   -7233.6644   -6690.4914    -887.3952     102002.7      46.7237      46.7237      46.7237 
   87000    110.89296   -7239.4599   -6667.9375    -667.4352     102002.7      46.7237      46.7237      46.7237 
   88000    111.92322   -7233.0047   -6656.1725   -705.50405     102002.7      46.7237      46.7237      46.7237 
   89000    107.91032   -7226.7198   -6670.5693   -870.04547     102002.7      46.7237      46.7237      46.7237 
   90000    111.98061   -7216.4215   -6639.2936    -669.6324     102002.7      46.7237      46.7237      46.7237 
   91000    109.58303   -7229.3312   -6664.5599   -730.67114     102002.7      46.7237      46.7237      46.7237 
   92000    105.74973   -7198.1644   -6653.1493   -534.87037     102002.7      46.7237      46.7237      46.7237 
   93000    113.02542    -7236.373   -6653.8602   -565.61765     102002.7      46.7237      46.7237      46.7237 
   94000    107.97815   -7223.9707   -6667.4706   -747.36061     102002.7      46.7237      46.7237      46.7237 
   95000    114.53176   -7218.7552    -6628.479   -795.74574     102002.7      46.7237      46.7237      46.7237 
   96000    110.08413   -7216.2044   -6648.8505   -821.50678     102002.7      46.7237      46.7237      46.7237 
   97000    108.98069    -7225.164   -6663.4971   -650.68956     102002.7      46.7237      46.7237      46.7237 
   98000    110.92379   -7212.5799   -6640.8986   -624.14536     102002.7      46.7237      46.7237      46.7237 
   99000     111.2392    -7230.929   -6657.6222   -653.57818     102002.7      46.7237      46.7237      46.7237 
  100000    106.06678   -7225.7806   -6679.1315   -897.63444     102002.7      46.7237      46.7237      46.7237 
  101000    110.78036   -7221.3039   -6650.3618   -687.30952     102002.7      46.7237      46.7237      46.7237 
  102000    108.75569   -7237.9789   -6677.4716    -534.1941     102002.7      46.7237      46.7237      46.7237 
  103000    110.92877   -7232.0361   -6660.3291   -662.12683     102002.7      46.7237      46.7237      46.7237 
  104000    110.70603   -7228.8198   -6658.2608   -962.30785     102002.7      46.7237      46.7237      46.7237 
  105000    106.54309   -7221.5679   -6672.4639   -632.35807     102002.7      46.7237      46.7237      46.7237 
  106000    107.49771   -7246.9343   -6692.9104   -657.79663     102002.7      46.7237      46.7237      46.7237 
  107000    109.31921   -7217.6404   -6654.2288   -681.45498     102002.7      46.7237      46.7237      46.7237 
  108000    108.91076   -7240.0654   -6678.7588   -633.90996     102002.7      46.7237      46.7237      46.7237 
  109000    110.92096   -7235.8286   -6664.1618   -615.58781     102002.7      46.7237      46.7237      46.7237 
  110000    112.96383   -7211.3836   -6629.1883   -613.52429     102002.7      46.7237      46.7237      46.7237 
  111000    106.77613   -7204.9194   -6654.6143   -903.56549     102002.7      46.7237      46.7237      46.7237 
  112000    109.47448   -7240.5014   -6676.2896   -808.23014     102002.7      46.7237      46.7237      46.7237 
  113000    110.24199   -7210.7466   -6642.5791   -741.96514     102002.7      46.7237      46.7237      46.7237 
  114000    107.98414   -7212.0859    -6655.555   -687.67279     102002.7      46.7237      46.7237      46.7237 
  115000    111.66948   -7206.3176   -6630.7931   -835.56991     102002.7      46.7237      46.7237      46.7237 
  116000    109.18383   -7229.7225   -6667.0086    -616.8461     102002.7      46.7237      46.7237      46.7237 
  117000    109.89773   -7220.2366   -6653.8434   -717.33233     102002.7      46.7237      46.7237      46.7237 
  118000    111.20987   -7229.6969   -6656.5412   -752.26676     102002.7      46.7237      46.7237      46.7237 
  119000    106.55182   -7223.1598   -6674.0108   -531.12523     102002.7      46.7237      46.7237      46.7237 
  120000    114.13665   -7222.5016   -6634.2618   -633.10014     102002.7      46.7237      46.7237      46.7237 
  121000    110.20671    -7239.997   -6672.0114   -170.09112     102002.7      46.7237      46.7237      46.7237 
  122000    113.47232   -7229.5391   -6644.7231   -662.41399     102002.7      46.7237      46.7237      46.7237 
  123000    111.96173   -7234.3249   -6657.2942   -535.29398     102002.7      46.7237      46.7237      46.7237 
  124000    108.26853   -7229.1388   -6671.1422   -695.02635     102002.7      46.7237      46.7237      46.7237 
  125000    111.81275   -7221.7089   -6645.4461   -812.76586     102002.7      46.7237      46.7237      46.7237 
  126000    111.79625   -7220.1503   -6643.9725   -452.18494     102002.7      46.7237      46.7237      46.7237 
  127000    105.07066     -7229.45   -6687.9347   -686.28042     102002.7      46.7237      46.7237      46.7237 
  128000    109.48083   -7225.4053   -6661.1608   -406.00135     102002.7      46.7237      46.7237      46.7237 
  129000    110.39676    -7232.694   -6663.7288   -723.75052     102002.7      46.7237      46.7237      46.7237 
  130000    109.48632   -7241.1035   -6676.8307   -587.28784     102002.7      46.7237      46.7237      46.7237 
  131000    105.51371   -7216.6657    -6672.867   -743.59072     102002.7      46.7237      46.7237      46.7237 
  132000    111.39307    -7226.508   -6652.4081   -860.50985     102002.7      46.7237      46.7237      46.7237 
  133000    108.18178    -7245.207   -6687.6575   -742.70253     102002.7      46.7237      46.7237      46.7237 
  134000    108.88936   -7248.2899   -6687.0937   -811.48113     102002.7      46.7237      46.7237      46.7237 
  135000    111.69193   -7233.2582    -6657.618   -553.94139     102002.7      46.7237      46.7237      46.7237 
  136000    114.52874   -7211.1231   -6620.8626   -576.14708     102002.7      46.7237      46.7237      46.7237 
  137000     110.0355   -7234.9326   -6667.8294   -243.09523     102002.7      46.7237      46.7237      46.7237 
  138000    110.89282   -7224.1116   -6652.5899   -241.98524     102002.7      46.7237      46.7237      46.7237 
  139000    110.11901   -7215.4348   -6647.9012   -407.26481     102002.7      46.7237      46.7237      46.7237 
  140000    108.17217   -7227.9558   -6670.4558   -516.56431     102002.7      46.7237      46.7237      46.7237 
  141000    110.06936   -7224.5915   -6657.3137    -79.26915     102002.7      46.7237      46.7237      46.7237 
  142000    110.98906   -7224.7261   -6652.7085   -124.86351     102002.7      46.7237      46.7237      46.7237 
  143000    108.25343   -7225.9117   -6667.9929   -556.36135     102002.7      46.7237      46.7237      46.7237 
  144000    108.96202   -7221.6487    -6660.078   -624.66255     102002.7      46.7237      46.7237      46.7237 
  145000    106.83328   -7214.8364   -6664.2368   -719.07105     102002.7      46.7237      46.7237      46.7237 
  146000    107.69263   -7228.0973   -6673.0689    -985.8562     102002.7      46.7237      46.7237      46.7237 
  147000    112.89245   -7215.0507   -6633.2233   -644.79565     102002.7      46.7237      46.7237      46.7237 
  148000    106.23474   -7209.1632   -6661.6485   -651.11079     102002.7      46.7237      46.7237      46.7237 
  149000    107.59166   -7213.6229   -6659.1147   -558.53181     102002.7      46.7237      46.7237      46.7237 
  150000    109.95237   -7238.6306   -6671.9559   -316.98414     102002.7      46.7237      46.7237      46.7237 
  151000    112.16087   -7223.0452   -6644.9882   -555.18604     102002.7      46.7237      46.7237      46.7237 
  152000    111.59207   -7250.5331   -6675.4076    -594.9665     102002.7      46.7237      46.7237      46.7237 
  153000    113.07201   -7243.9957   -6661.2428   -639.07468     102002.7      46.7237      46.7237      46.7237 
  154000    114.61841   -7232.0443   -6641.3216   -523.27263     102002.7      46.7237      46.7237      46.7237 
  155000    112.48465   -7230.2662   -6650.5405   -751.89409     102002.7      46.7237      46.7237      46.7237 
  156000    109.28777   -7238.7867   -6675.5372   -639.00655     102002.7      46.7237      46.7237      46.7237 
  157000    109.34541   -7209.6578   -6646.1112   -722.74651     102002.7      46.7237      46.7237      46.7237 
  158000    113.84615   -7235.7122   -6648.9695   -705.67351     102002.7      46.7237      46.7237      46.7237 
  159000    110.53251   -7250.6017   -6680.9369   -663.56901     102002.7      46.7237      46.7237      46.7237 
  160000    111.73095     -7232.42   -6656.5787   -675.42801     102002.7      46.7237      46.7237      46.7237 
  161000    114.16081   -7226.8016   -6638.4373   -474.73944     102002.7      46.7237      46.7237      46.7237 
  162000    110.20064   -7233.6792   -6665.7249   -681.68656     102002.7      46.7237      46.7237      46.7237 
  163000    110.99094   -7238.2362   -6666.2088   -500.13775     102002.7      46.7237      46.7237      46.7237 
  164000    109.63204   -7223.8556   -6658.8317   -460.14295     102002.7      46.7237      46.7237      46.7237 
  165000    110.17707   -7205.3652   -6637.5324   -456.19484     102002.7      46.7237      46.7237      46.7237 
  166000    109.68756   -7235.9221   -6670.6121   -841.66742     102002.7      46.7237      46.7237      46.7237 
  167000    111.80392   -7222.0885   -6645.8712   -679.89189     102002.7      46.7237      46.7237      46.7237 
  168000    111.54566   -7252.7498   -6677.8635   -563.17685     102002.7      46.7237      46.7237      46.7237 
  169000    110.35637   -7220.1789    -6651.422   -570.72182     102002.7      46.7237      46.7237      46.7237 
  170000    111.45874   -7227.5324   -6653.0941    -708.0713     102002.7      46.7237      46.7237      46.7237 
  171000    110.91418   -7216.7723   -6645.1405   -596.98735     102002.7      46.7237      46.7237      46.7237 
  172000    105.53016   -7252.8105    -6708.927   -487.84686     102002.7      46.7237      46.7237      46.7237 
  173000    113.54571   -7241.4867   -6656.2924   -707.45153     102002.7      46.7237      46.7237      46.7237 
  174000    108.91307   -7227.8649   -6666.5465   -600.72922     102002.7      46.7237      46.7237      46.7237 
  175000    108.50745   -7244.2842   -6685.0563   -818.42847     102002.7      46.7237      46.7237      46.7237 
  176000    109.74001   -7206.7807   -6641.2003   -749.90587     102002.7      46.7237      46.7237      46.7237 
  177000    109.62286   -7220.9964   -6656.0198   -546.06642     102002.7      46.7237      46.7237      46.7237 
  178000    108.84659    -7236.308   -6675.3322   -738.93269     102002.7      46.7237      46.7237      46.7237 
  179000    109.49625   -7212.1666   -6647.8426   -658.15403     102002.7      46.7237      46.7237      46.7237 
  180000    111.85961   -7220.3354   -6643.8311    -756.6753     102002.7      46.7237      46.7237      46.7237 
  181000    110.95332   -7216.0055    -6644.172   -779.06491     102002.7      46.7237      46.7237      46.7237 
  182000    109.31566    -7231.033   -6667.6398   -653.43919     102002.7      46.7237      46.7237      46.7237 
  183000    111.52985   -7236.6177   -6661.8128   -538.30038     102002.7      46.7237      46.7237      46.7237 
  184000    111.08199   -7236.8998   -6664.4031   -566.97562     102002.7      46.7237      46.7237      46.7237 
  185000    108.13974   -7219.4635   -6662.1307   -629.31698     102002.7      46.7237      46.7237      46.7237 
  186000    110.98339   -7218.7673   -6646.7788   -678.63307     102002.7      46.7237      46.7237      46.7237 
  187000    109.40262   -7249.6207   -6685.7793   -1009.6815     102002.7      46.7237      46.7237      46.7237 
  188000    109.00556   -7225.9548   -6664.1598   -397.07912     102002.7      46.7237      46.7237      46.7237 
  189000    109.75688   -7229.5252   -6663.8579   -835.07984     102002.7      46.7237      46.7237      46.7237 
  190000    113.40293    -7228.873   -6644.4147    -726.7301     102002.7      46.7237      46.7237      46.7237 
  191000    111.41325   -7229.3336   -6655.1296   -621.76753     102002.7      46.7237      46.7237      46.7237 
  192000      108.486    -7246.741   -6687.6236   -455.02676     102002.7      46.7237      46.7237      46.7237 
  193000    109.11212   -7224.7493    -6662.405   -527.07293     102002.7      46.7237      46.7237      46.7237 
  194000    111.67613   -7226.2307    -6650.672   -601.61544     102002.7      46.7237      46.7237      46.7237 
  195000    108.87931    -7222.175   -6661.0306   -694.74497     102002.7      46.7237      46.7237      46.7237 
  196000    110.99706   -7219.0248   -6646.9658    -648.6495     102002.7      46.7237      46.7237      46.7237 
  197000    110.36888    -7215.118   -6646.2966   -597.99124     102002.7      46.7237      46.7237      46.7237 
  198000    107.35135   -7218.8901   -6665.6205   -801.29054     102002.7      46.7237      46.7237      46.7237 
  199000    111.59723   -7225.0379   -6649.8858   -1073.0812     102002.7      46.7237      46.7237      46.7237 
  200000    111.88567   -7236.6074   -6659.9688   -636.02456     102002.7      46.7237      46.7237      46.7237 
  201000     108.7476   -7236.6267   -6676.1611   -747.44395     102002.7      46.7237      46.7237      46.7237 
  202000    111.21072   -7223.1076   -6649.9475   -562.81775     102002.7      46.7237      46.7237      46.7237 
  203000    105.28223   -7227.4771   -6684.8714   -716.27778     102002.7      46.7237      46.7237      46.7237 
  204000    109.87209   -7224.8216   -6658.5605   -609.82737     102002.7      46.7237      46.7237      46.7237 
  205000    108.85059   -7225.2068   -6664.2104   -701.53475     102002.7      46.7237      46.7237      46.7237 
  206000    114.04998   -7247.3901   -6659.5969   -801.36587     102002.7      46.7237      46.7237      46.7237 
  207000    109.00369   -7205.8841   -6644.0987   -676.02753     102002.7      46.7237      46.7237      46.7237 
  208000    110.06686   -7240.0798    -6672.815   -580.29563     102002.7      46.7237      46.7237      46.7237 
  209000    111.04663   -7225.4701   -6653.1557   -775.71197     102002.7      46.7237      46.7237      46.7237 
  210000    107.22401   -7248.4021   -6695.7888   -489.66865     102002.7      46.7237      46.7237      46.7237 
  211000    112.65858   -7232.9996   -6652.3775    -667.0708     102002.7      46.7237      46.7237      46.7237 
  212000    108.83531   -7225.4795   -6664.5619   -659.63155     102002.7      46.7237      46.7237      46.7237 
  213000    105.64032   -7229.6673   -6685.2161   -700.76144     102002.7      46.7237      46.7237      46.7237 
  214000     108.5456   -7216.4324   -6657.0079   -794.72059     102002.7      46.7237      46.7237      46.7237 
  215000    106.26816   -7226.5528   -6678.8658   -663.85427     102002.7      46.7237      46.7237      46.7237 
  216000    109.68955   -7237.6225   -6672.3022   -658.92792     102002.7      46.7237      46.7237      46.7237 
  217000    108.47565   -7229.6075   -6670.5435    -590.7549     102002.7      46.7237      46.7237      46.7237 
  218000    114.77367   -7234.9823   -6643.4594   -693.42061     102002.7      46.7237      46.7237      46.7237 
  219000    109.51919   -7234.0946   -6669.6524   -513.30443     102002.7      46.7237      46.7237      46.7237 
  220000    109.96995    -7231.782   -6665.0166   -529.72451     102002.7      46.7237      46.7237      46.7237 
  221000    108.25875   -7215.6727   -6657.7265   -466.16188     102002.7      46.7237      46.7237      46.7237 
  222000    102.93847    -7247.607   -6717.0806   -531.89966     102002.7      46.7237      46.7237      46.7237 
  223000    111.15481   -7232.5405   -6659.6686   -842.45194     102002.7      46.7237      46.7237      46.7237 
  224000     112.9004   -7201.5085   -6619.6401   -601.48853     102002.7      46.7237      46.7237      46.7237 
  225000    107.38632   -7216.0758    -6662.626   -658.79458     102002.7      46.7237      46.7237      46.7237 
  226000     105.0824   -7217.2072   -6675.6313    -639.1213     102002.7      46.7237      46.7237      46.7237 
  227000     110.9163    -7227.143   -6655.5003   -463.53556     102002.7      46.7237      46.7237      46.7237 
  228000    107.19321   -7233.4641   -6681.0096   -862.70237     102002.7      46.7237      46.7237      46.7237 
  229000    107.80113   -7222.1623   -6666.5746   -379.60345     102002.7      46.7237      46.7237      46.7237 
  230000    106.12858   -7247.7727    -6700.805   -805.98892     102002.7      46.7237      46.7237      46.7237 
  231000    108.78826   -7207.5243   -6646.8491   -915.62076     102002.7      46.7237      46.7237      46.7237 
  232000    110.22823   -7223.9186   -6655.8221   -524.20438     102002.7      46.7237      46.7237      46.7237 
  233000    109.47657    -7240.908   -6676.6854   -553.25248     102002.7      46.7237      46.7237      46.7237 
  234000    111.07283   -7224.3692   -6651.9197   -1003.0133     102002.7      46.7237      46.7237      46.7237 
  235000    108.93869   -7228.3817   -6666.9313   -593.54506     102002.7      46.7237      46.7237      46.7237 
  236000    110.21809   -7223.5008   -6655.4565   -712.61731     102002.7      46.7237      46.7237      46.7237 
  237000    109.36525   -7226.1905   -6662.5416   -511.87005     102002.7      46.7237      46.7237      46.7237 
  238000    114.35935   -7217.3582   -6627.9707   -479.25115     102002.7      46.7237      46.7237      46.7237 
  239000    112.08375    -7229.983   -6652.3234   -450.52227     102002.7      46.7237      46.7237      46.7237 
  240000    110.96651   -7239.0316   -6667.1301   -407.69227     102002.7      46.7237      46.7237      46.7237 
  241000    112.02485   -7205.8061   -6628.4501   -690.98546     102002.7      46.7237      46.7237      46.7237 
  242000     112.9365   -7230.8044   -6648.7499   -539.54342     102002.7      46.7237      46.7237      46.7237 
  243000    107.78125   -7240.3149   -6684.8296   -490.40708     102002.7      46.7237      46.7237      46.7237 
  244000    112.21162   -7243.5971   -6665.2786   -574.52368     102002.7      46.7237      46.7237      46.7237 
  245000    114.42455   -7228.8273   -6639.1036   -376.15631     102002.7      46.7237      46.7237      46.7237 
  246000      110.403   -7220.3589   -6651.3616   -526.21162     102002.7      46.7237      46.7237      46.7237 
  247000    108.80758   -7239.8077   -6679.0329   -312.38541     102002.7      46.7237      46.7237      46.7237 
  248000    108.80826   -7195.9958   -6635.2175   -568.80147     102002.7      46.7237      46.7237      46.7237 
  249000     111.7295   -7245.6772   -6669.8434   -479.14319     102002.7      46.7237      46.7237      46.7237 
  250000    114.58744   -7227.7406   -6637.1775   -509.70466     102002.7      46.7237      46.7237      46.7237 
  251000    110.38241   -7233.5428   -6664.6517   -806.94181     102002.7      46.7237      46.7237      46.7237 
  252000    110.59017   -7229.2048   -6659.2429   -504.51516     102002.7      46.7237      46.7237      46.7237 
  253000    112.00168   -7212.1212   -6634.8846   -548.28063     102002.7      46.7237      46.7237      46.7237 
  254000    113.10263   -7253.7466    -6670.836   -453.48565     102002.7      46.7237      46.7237      46.7237 
  255000    111.61475    -7226.351   -6651.1086   -753.68309     102002.7      46.7237      46.7237      46.7237 
  256000     107.9474    -7242.204   -6685.8625    -704.8647     102002.7      46.7237      46.7237      46.7237 
  257000    111.30493   -7237.2857   -6663.6401   -669.94834     102002.7      46.7237      46.7237      46.7237 
  258000    110.18915   -7220.7604   -6652.8653   -695.30107     102002.7      46.7237      46.7237      46.7237 
  259000    107.57022   -7234.3634   -6679.9658   -606.83836     102002.7      46.7237      46.7237      46.7237 
  260000      112.706   -7214.4606   -6633.5941   -287.83914     102002.7      46.7237      46.7237      46.7237 
  261000    114.12622   -7233.2256   -6645.0395   -773.72957     102002.7      46.7237      46.7237      46.7237 
  262000     108.6523    -7246.762   -6686.7876   -604.28911     102002.7      46.7237      46.7237      46.7237 
  263000    112.80224    -7242.437   -6661.0745   -329.39863     102002.7      46.7237      46.7237      46.7237 
  264000    109.26789   -7222.6385   -6659.4914   -532.71384     102002.7      46.7237      46.7237      46.7237 
  265000    108.94308   -7240.0038   -6678.5307   -493.71065     102002.7      46.7237      46.7237      46.7237 
  266000    112.92682   -7224.6042   -6642.5997   -791.08612     102002.7      46.7237      46.7237      46.7237 
  267000    112.71435   -7246.4835    -6665.574   -493.03102     102002.7      46.7237      46.7237      46.7237 
  268000    113.54504    -7223.713   -6638.5222   -380.86497     102002.7      46.7237      46.7237      46.7237 
  269000    109.92361   -7210.7549   -6644.2284   -672.97783     102002.7      46.7237      46.7237      46.7237 
  270000    110.91538   -7233.9901   -6662.3521   -607.04376     102002.7      46.7237      46.7237      46.7237 
  271000     111.2927   -7215.4625   -6641.8799   -569.16925     102002.7      46.7237      46.7237      46.7237 
  272000    112.39651    -7233.789   -6654.5175   -935.66214     102002.7      46.7237      46.7237      46.7237 
  273000    108.71087   -7230.4503    -6670.174   -1037.7298     102002.7      46.7237      46.7237      46.7237 
  274000    111.86984   -7212.5829   -6636.0258   -1015.4845     102002.7      46.7237      46.7237      46.7237 
  275000    108.44834   -7222.6622   -6663.7389   -804.25233     102002.7      46.7237      46.7237      46.7237 
  276000     106.0793   -7221.9691   -6675.2554   -1016.8171     102002.7      46.7237      46.7237      46.7237 
  277000    105.79338   -7228.7371    -6683.497   -787.85282     102002.7      46.7237      46.7237      46.7237 
  278000      105.361   -7220.6517     -6677.64   -980.14156     102002.7      46.7237      46.7237      46.7237 
  279000    115.23379   -7247.1809   -6653.2866    -560.1532     102002.7      46.7237      46.7237      46.7237 
  280000    114.10048   -7220.4064    -6632.353   -761.13555     102002.7      46.7237      46.7237      46.7237 
  281000     110.0617   -7241.2115   -6673.9732   -994.48267     102002.7      46.7237      46.7237      46.7237 
  282000    108.31634   -7217.8381   -6659.5951   -858.85642     102002.7      46.7237      46.7237      46.7237 
  283000    110.02486   -7231.1101   -6664.0618   -899.48815     102002.7      46.7237      46.7237      46.7237 
  284000    107.65169   -7242.0295    -6687.212   -692.07239     102002.7      46.7237      46.7237      46.7237 
  285000    112.75995   -7239.6987   -6658.5541   -833.28635     102002.7      46.7237      46.7237      46.7237 
  286000    110.50623   -7213.1308   -6643.6016   -721.31323     102002.7      46.7237      46.7237      46.7237 
  287000    108.29398   -7240.2908   -6682.1631    -599.6144     102002.7      46.7237      46.7237      46.7237 
  288000    109.12725   -7223.6976   -6661.2753   -544.66068     102002.7      46.7237      46.7237      46.7237 
  289000    108.11889   -7211.9396   -6654.7142   -679.30456     102002.7      46.7237      46.7237      46.7237 
  290000    108.06855    -7222.887   -6665.9211   -842.09411     102002.7      46.7237      46.7237      46.7237 
  291000    111.64286   -7216.9191   -6641.5318    -446.9165     102002.7      46.7237      46.7237      46.7237 
  292000    109.61455   -7228.9146   -6663.9808    -705.8942     102002.7      46.7237      46.7237      46.7237 
  293000    112.05847    -7225.736   -6648.2068   -1139.0957     102002.7      46.7237      46.7237      46.7237 
  294000    111.31811   -7248.4312   -6674.7176   -576.90002     102002.7      46.7237      46.7237      46.7237 
  295000    111.06133   -7222.6751   -6650.2849   -764.57784     102002.7      46.7237      46.7237      46.7237 
  296000    110.41576   -7235.2773   -6666.2142    -812.7778     102002.7      46.7237      46.7237      46.7237 
  297000    113.15913   -7225.6563   -6642.4544   -734.28265     102002.7      46.7237      46.7237      46.7237 
  298000    112.59664   -7225.7479    -6645.445   -1099.6637     102002.7      46.7237      46.7237      46.7237 
  299000    109.42074    -7210.008   -6646.0731   -775.50483     102002.7      46.7237      46.7237      46.7237 
  300000    108.12475   -7228.6944   -6671.4388   -864.56979     102002.7      46.7237      46.7237      46.7237 
  301000    113.78997   -7211.6726   -6625.2195   -908.70598     102002.7      46.7237      46.7237      46.7237 
  302000    108.18881   -7228.5618   -6670.9761   -794.77477     102002.7      46.7237      46.7237      46.7237 
  303000    110.33298   -7205.9551   -6637.3187    -867.4949     102002.7      46.7237      46.7237      46.7237 
  304000    111.97234   -7241.5819   -6664.4966   -680.55943     102002.7      46.7237      46.7237      46.7237 
  305000    111.71598   -7212.6192   -6636.8551   -843.48372     102002.7      46.7237      46.7237      46.7237 
  306000    107.55832    -7245.285   -6690.9488   -690.01812     102002.7      46.7237      46.7237      46.7237 
  307000    107.57287   -7216.7258   -6662.3145   -819.99651     102002.7      46.7237      46.7237      46.7237 
  308000    109.74655   -7230.2722   -6664.6582   -589.36417     102002.7      46.7237      46.7237      46.7237 
  309000    109.65576   -7238.7237   -6673.5777   -673.18916     102002.7      46.7237      46.7237      46.7237 
  310000    110.53424   -7215.5846    -6645.911   -726.86496     102002.7      46.7237      46.7237      46.7237 
  311000    110.70985   -7231.9589   -6661.3802   -224.89156     102002.7      46.7237      46.7237      46.7237 
  312000    108.72861   -7238.2018   -6677.8341   -775.16639     102002.7      46.7237      46.7237      46.7237 
  313000    114.20765   -7222.7353   -6634.1296   -336.03524     102002.7      46.7237      46.7237      46.7237 
  314000    110.12506   -7227.0047   -6659.4399   -707.02707     102002.7      46.7237      46.7237      46.7237 
  315000    106.66386   -7230.1617   -6680.4354   -507.52051     102002.7      46.7237      46.7237      46.7237 
  316000    109.31598   -7221.1967   -6657.8017   -557.12527     102002.7      46.7237      46.7237      46.7237 
  317000    112.31635   -7221.0563    -6642.198   -434.28399     102002.7      46.7237      46.7237      46.7237 
  318000    109.91095   -7223.4127   -6656.9514   -724.88971     102002.7      46.7237      46.7237      46.7237 
  319000    106.10264   -7249.4742   -6702.6403   -604.45596     102002.7      46.7237      46.7237      46.7237 
  320000    111.89336   -7223.8016   -6647.1233   -738.42839     102002.7      46.7237      46.7237      46.7237 
  321000    103.69635   -7221.0182   -6686.5858   -698.66415     102002.7      46.7237      46.7237      46.7237 
  322000     108.3488   -7227.8933    -6669.483   -1043.7093     102002.7      46.7237      46.7237      46.7237 
  323000    109.41084   -7205.3002   -6641.4163   -718.54593     102002.7      46.7237      46.7237      46.7237 
  324000    108.06024   -7234.0264   -6677.1033   -756.21417     102002.7      46.7237      46.7237      46.7237 
  325000    113.24569   -7219.2863   -6635.6383   -676.38102     102002.7      46.7237      46.7237      46.7237 
  326000    109.53101    -7227.235   -6662.7318   -771.81406     102002.7      46.7237      46.7237      46.7237 
  327000    106.33934   -7229.8685   -6681.8147   -505.23094     102002.7      46.7237      46.7237      46.7237 
  328000    109.66915    -7224.801   -6659.5858   -842.79185     102002.7      46.7237      46.7237      46.7237 
  329000    109.51561   -7223.8676   -6659.4438   -566.10009     102002.7      46.7237      46.7237      46.7237 
  330000    107.75067   -7232.2698   -6676.9422    -1003.835     102002.7      46.7237      46.7237      46.7237 
  331000    111.44405    -7241.974   -6667.6113   -651.47364     102002.7      46.7237      46.7237      46.7237 
  332000    113.70531   -7224.5598    -6638.543   -386.12062     102002.7      46.7237      46.7237      46.7237 
  333000    110.87728   -7221.2477   -6649.8061   -716.73313     102002.7      46.7237      46.7237      46.7237 
  334000      106.048   -7238.6966   -6692.1442   -761.35781     102002.7      46.7237      46.7237      46.7237 
  335000    108.89211   -7221.0185   -6659.8081   -717.50121     102002.7      46.7237      46.7237      46.7237 
  336000    113.20685   -7234.8839   -6651.4362   -912.16396     102002.7      46.7237      46.7237      46.7237 
  337000    107.55283   -7235.4747   -6681.1667   -668.69872     102002.7      46.7237      46.7237      46.7237 
  338000    113.76355   -7229.2244   -6642.9074   -746.86657     102002.7      46.7237      46.7237      46.7237 
  339000    109.02821   -7228.7528    -6666.841   -669.77676     102002.7      46.7237      46.7237      46.7237 
  340000    107.78916   -7217.1648   -6661.6388   -502.77842     102002.7      46.7237      46.7237      46.7237 
  341000    112.82445   -7239.1318   -6657.6548   -768.26833     102002.7      46.7237      46.7237      46.7237 
  342000    111.48435   -7243.5324    -6668.962   -740.22323     102002.7      46.7237      46.7237      46.7237 
  343000    108.63317   -7253.6606   -6693.7848   -662.73205     102002.7      46.7237      46.7237      46.7237 
  344000    113.52306   -7229.0733   -6643.9958   -739.95757     102002.7      46.7237      46.7237      46.7237 
  345000     108.6332   -7243.4399   -6683.5638   -380.82346     102002.7      46.7237      46.7237      46.7237 
  346000    105.06094   -7197.9748   -6656.5096   -707.97214     102002.7      46.7237      46.7237      46.7237 
  347000    110.73923   -7221.0972   -6650.3671   -731.44839     102002.7      46.7237      46.7237      46.7237 
  348000    111.08415   -7219.2155   -6646.7077   -629.16128     102002.7      46.7237      46.7237      46.7237 
  349000    112.38408   -7228.2208   -6649.0135   -425.52922     102002.7      46.7237      46.7237      46.7237 
  350000    108.55066   -7230.5211   -6671.0705   -342.39928     102002.7      46.7237      46.7237      46.7237 
  351000    113.89156   -7221.2729   -6634.2963   -746.68844     102002.7      46.7237      46.7237      46.7237 
  352000    111.47515   -7222.5403   -6648.0173   -683.36241     102002.7      46.7237      46.7237      46.7237 
  353000    107.25543   -7237.2988   -6684.5236   -900.60455     102002.7      46.7237      46.7237      46.7237 
  354000    112.51875   -7236.1481   -6656.2467   -884.59369     102002.7      46.7237      46.7237      46.7237 
  355000    105.06601   -7233.7481   -6692.2567   -984.72764     102002.7      46.7237      46.7237      46.7237 
  356000    106.81342    -7226.484   -6675.9868   -778.90769     102002.7      46.7237      46.7237      46.7237 
  357000    110.03681   -7219.8539   -6652.7439   -832.69388     102002.7      46.7237      46.7237      46.7237 
  358000    108.41072   -7219.8135   -6661.0841   -501.41344     102002.7      46.7237      46.7237      46.7237 
  359000    108.64352   -7227.6773   -6667.7481   -814.78596     102002.7      46.7237      46.7237      46.7237 
  360000    106.89356    -7223.693   -6672.7828   -625.61068     102002.7      46.7237      46.7237      46.7237 
  361000    108.74887   -7211.5163   -6651.0441   -1040.6501     102002.7      46.7237      46.7237      46.7237 
  362000    107.89712   -7230.2234    -6674.141   -773.31955     102002.7      46.7237      46.7237      46.7237 
  363000     108.3188   -7227.5788   -6669.3231   -971.90201     102002.7      46.7237      46.7237      46.7237 
  364000    113.19038   -7225.2818   -6641.9189   -458.94929     102002.7      46.7237      46.7237      46.7237 
  365000      107.675   -7219.4237    -6664.486   -708.34667     102002.7      46.7237      46.7237      46.7237 
  366000     111.0479   -7229.4726   -6657.1517   -881.27036     102002.7      46.7237      46.7237      46.7237 
  367000    111.31186   -7203.8457   -6630.1643   -757.41077     102002.7      46.7237      46.7237      46.7237 
  368000    108.51572   -7227.0483   -6667.7777   -720.40464     102002.7      46.7237      46.7237      46.7237 
  369000    112.79895   -7244.7018   -6663.3563   -587.33729     102002.7      46.7237      46.7237      46.7237 
  370000    108.18394   -7236.3734   -6678.8128   -810.70584     102002.7      46.7237      46.7237      46.7237 
  371000    109.22427   -7209.5595   -6646.6372   -777.85425     102002.7      46.7237      46.7237      46.7237 
  372000    112.13014   -7220.9587   -6643.0601   -667.86391     102002.7      46.7237      46.7237      46.7237 
  373000    108.92421    -7244.056   -6682.6801   -759.46143     102002.7      46.7237      46.7237      46.7237 
  374000    108.29941   -7201.9572   -6643.8015   -807.75042     102002.7      46.7237      46.7237      46.7237 
  375000     112.4969   -7240.8964   -6661.1076   -920.97247     102002.7      46.7237      46.7237      46.7237 
  376000    113.17796   -7223.2236   -6639.9247   -416.40055     102002.7      46.7237      46.7237      46.7237 
  377000    111.50929   -7245.1661   -6670.4672   -752.53519     102002.7      46.7237      46.7237      46.7237 
  378000     111.0672   -7224.4126   -6651.9922   -835.25402     102002.7      46.7237      46.7237      46.7237 
  379000    108.29389   -7239.5447   -6681.4174   -545.30953     102002.7      46.7237      46.7237      46.7237 
  380000    109.05946   -7220.6925   -6658.6196   -830.26898     102002.7      46.7237      46.7237      46.7237 
  381000    108.73775   -7239.7373   -6679.3224   -705.41937     102002.7      46.7237      46.7237      46.7237 
  382000      108.525   -7210.1062   -6650.7878   -776.78887     102002.7      46.7237      46.7237      46.7237 
  383000    110.14416   -7219.8143   -6652.1511   -767.76173     102002.7      46.7237      46.7237      46.7237 
  384000    108.10243   -7218.4938   -6661.3533   -794.43616     102002.7      46.7237      46.7237      46.7237 
  385000    109.54516   -7223.8264   -6659.2503   -613.46676     102002.7      46.7237      46.7237      46.7237 
  386000    111.24795   -7243.5415   -6670.1895   -708.69015     102002.7      46.7237      46.7237      46.7237 
  387000    111.67221    -7217.756   -6642.2175   -848.55672     102002.7      46.7237      46.7237      46.7237 
  388000    104.92264   -7246.8298   -6706.0773   -773.78829     102002.7      46.7237      46.7237      46.7237 
  389000    112.81373     -7228.51   -6647.0882   -713.54122     102002.7      46.7237      46.7237      46.7237 
  390000     108.3912   -7229.2422   -6670.6134   -841.64633     102002.7      46.7237      46.7237      46.7237 
  391000    110.01656   -7224.5335   -6657.5278   -788.64428     102002.7      46.7237      46.7237      46.7237 
  392000    112.62827   -7244.2923   -6663.8264   -814.70113     102002.7      46.7237      46.7237      46.7237 
  393000    111.09732   -7233.6386    -6661.063   -804.37675     102002.7      46.7237      46.7237      46.7237 
  394000    114.89497   -7232.9332   -6640.7851   -1054.4345     102002.7      46.7237      46.7237      46.7237 
  395000    106.85523   -7203.3237    -6652.611    -629.5982     102002.7      46.7237      46.7237      46.7237 
  396000    107.24089   -7216.3894   -6663.6891   -867.00254     102002.7      46.7237      46.7237      46.7237 
  397000    111.91692   -7221.2023   -6644.4025   -488.29388     102002.7      46.7237      46.7237      46.7237 
  398000    111.84328   -7235.0818   -6658.6616    -604.7522     102002.7      46.7237      46.7237      46.7237 
  399000    113.09359   -7203.5195   -6620.6555   -834.08018     102002.7      46.7237      46.7237      46.7237 
  400000    109.19161   -7233.3489   -6670.5949   -518.02494     102002.7      46.7237      46.7237      46.7237 
  401000    111.15244    -7227.264   -6654.4042   -1157.0983     102002.7      46.7237      46.7237      46.7237 
  402000    107.57404   -7237.5537   -6683.1364   -788.63773     102002.7      46.7237      46.7237      46.7237 
  403000    111.28133   -7239.5138   -6665.9898   -924.66018     102002.7      46.7237      46.7237      46.7237 
  404000    111.35661   -7236.9878   -6663.0758   -811.19782     102002.7      46.7237      46.7237      46.7237 
  405000    110.28259   -7202.0398   -6633.6631   -826.16493     102002.7      46.7237      46.7237      46.7237 
  406000    111.81102   -7224.7239     -6648.47   -757.27886     102002.7      46.7237      46.7237      46.7237 
  407000     109.9028   -7227.6164   -6661.1971   -506.23448     102002.7      46.7237      46.7237      46.7237 
  408000    111.06099   -7233.4777   -6661.0893   -664.06824     102002.7      46.7237      46.7237      46.7237 
  409000    106.33566    -7226.486   -6678.4511   -750.56659     102002.7      46.7237      46.7237      46.7237 
  410000    111.16472   -7214.6439   -6641.7209   -589.07479     102002.7      46.7237      46.7237      46.7237 
  411000    112.05234   -7225.8887   -6648.3911   -725.85764     102002.7      46.7237      46.7237      46.7237 
  412000    110.54102   -7231.9661   -6662.2575   -563.57613     102002.7      46.7237      46.7237      46.7237 
  413000    105.83203   -7236.2999   -6690.8606   -867.53965     102002.7      46.7237      46.7237      46.7237 
  414000    112.08291   -7232.3197   -6654.6645   -581.69167     102002.7      46.7237      46.7237      46.7237 
  415000    107.24609   -7239.9742   -6687.2471   -542.00716     102002.7      46.7237      46.7237      46.7237 
  416000    110.72061   -7226.6631    -6656.029   -831.27836     102002.7      46.7237      46.7237      46.7237 
  417000    109.22958   -7241.5676    -6678.618   -979.30018     102002.7      46.7237      46.7237      46.7237 
  418000    111.41186   -7217.4953   -6643.2985   -1212.8869     102002.7      46.7237      46.7237      46.7237 
  419000    109.24681   -7234.8479   -6671.8094   -736.46666     102002.7      46.7237      46.7237      46.7237 
  420000    111.71539   -7223.1449   -6647.3838   -1029.9358     102002.7      46.7237      46.7237      46.7237 
  421000    107.41046   -7243.6389   -6690.0647   -681.10801     102002.7      46.7237      46.7237      46.7237 
  422000    109.99928   -7239.8675    -6672.951   -1076.3355     102002.7      46.7237      46.7237      46.7237 
  423000    109.74367   -7234.7452    -6669.146   -634.33146     102002.7      46.7237      46.7237      46.7237 
  424000    108.02196   -7253.6654   -6696.9396   -758.91141     102002.7      46.7237      46.7237      46.7237 
  425000    111.59226   -7227.0837   -6651.9572   -934.38298     102002.7      46.7237      46.7237      46.7237 
  426000    112.47535   -7230.1675   -6650.4898    -784.9127     102002.7      46.7237      46.7237      46.7237 
  427000    110.37575   -7217.6676   -6648.8108   -867.46172     102002.7      46.7237      46.7237      46.7237 
  428000    107.89191   -7236.8782   -6680.8227   -966.75059     102002.7      46.7237      46.7237      46.7237 
  429000    109.22853   -7220.4598   -6657.5156     -755.427     102002.7      46.7237      46.7237      46.7237 
  430000    110.37432    -7255.969   -6687.1195   -838.54337     102002.7      46.7237      46.7237      46.7237 
  431000    110.41376   -7219.5224   -6650.4696   -739.61421     102002.7      46.7237      46.7237      46.7237 
  432000    107.63164   -7237.5177   -6682.8035   -686.29462     102002.7      46.7237      46.7237      46.7237 
  433000    111.69586   -7233.5077   -6657.8473   -600.40184     102002.7      46.7237      46.7237      46.7237 
  434000    112.49633   -7235.1818   -6655.3959   -575.94167     102002.7      46.7237      46.7237      46.7237 
  435000    110.87903   -7262.1963   -6690.7457   -710.44674     102002.7      46.7237      46.7237      46.7237 
  436000    110.45804   -7234.6971   -6665.4162    -627.7038     102002.7      46.7237      46.7237      46.7237 
  437000    111.61959   -7226.5579   -6651.2906   -862.16834     102002.7      46.7237      46.7237      46.7237 
  438000    111.20461   -7221.8903   -6648.7617    -804.5472     102002.7      46.7237      46.7237      46.7237 
  439000    109.68289   -7244.9737   -6679.6877   -735.60566     102002.7      46.7237      46.7237      46.7237 
  440000    113.84202   -7216.7386   -6630.0173   -896.54034     102002.7      46.7237      46.7237      46.7237 
  441000    110.12054   -7234.7512   -6667.2097   -963.14495     102002.7      46.7237      46.7237      46.7237 
  442000    110.96995   -7219.9998   -6648.0806   -728.62658     102002.7      46.7237      46.7237      46.7237 
  443000    107.56877    -7227.246   -6672.8559   -764.79854     102002.7      46.7237      46.7237      46.7237 
  444000    109.62774   -7230.0524   -6665.0508   -733.33842     102002.7      46.7237      46.7237      46.7237 
  445000    113.94034   -7222.9714   -6635.7434   -723.18506     102002.7      46.7237      46.7237      46.7237 
  446000     111.8955   -7240.3036   -6663.6143   -463.51756     102002.7      46.7237      46.7237      46.7237 
  447000    107.85521   -7218.0061   -6662.1397   -550.76029     102002.7      46.7237      46.7237      46.7237 
  448000    111.93547   -7218.8485   -6641.9532   -411.66425     102002.7      46.7237      46.7237      46.7237 
  449000    110.38409   -7231.7544   -6662.8547    -480.1964     102002.7      46.7237      46.7237      46.7237 
  450000    109.97228   -7203.5109   -6636.7335    -832.5968     102002.7      46.7237      46.7237      46.7237 
  451000      109.858   -7225.1482   -6658.9597   -698.85637     102002.7      46.7237      46.7237      46.7237 
  452000    106.82455   -7230.4229   -6679.8684   -531.68419     102002.7      46.7237      46.7237      46.7237 
  453000    111.78138   -7229.8929   -6653.7917   -421.32178     102002.7      46.7237      46.7237      46.7237 
  454000    105.30788   -7234.3623   -6691.6243   -490.46934     102002.7      46.7237      46.7237      46.7237 
  455000    109.62479   -7231.3543   -6666.3678     -583.235     102002.7      46.7237      46.7237      46.7237 
  456000    110.93307   -7206.2487   -6634.5195   -345.96521     102002.7      46.7237      46.7237      46.7237 
  457000    110.02648   -7224.0697    -6657.013   -661.69756     102002.7      46.7237      46.7237      46.7237 
  458000    107.67535   -7235.6218   -6680.6824   -536.22996     102002.7      46.7237      46.7237      46.7237 
  459000    109.46244   -7222.8247   -6658.6749   -566.24333     102002.7      46.7237      46.7237      46.7237 
  460000    107.37893   -7226.6247    -6673.213   -570.46729     102002.7      46.7237      46.7237      46.7237 
  461000    110.54761    -7205.312   -6635.5695   -912.96314     102002.7      46.7237      46.7237      46.7237 
  462000    107.55791   -7219.7318   -6665.3976   -436.79659     102002.7      46.7237      46.7237      46.7237 
  463000    106.87181   -7198.1282   -6647.3301   -356.85924     102002.7      46.7237      46.7237      46.7237 
  464000    110.57556   -7234.0885   -6664.2019   -734.22229     102002.7      46.7237      46.7237      46.7237 
  465000    111.15197   -7197.1406   -6624.2833   -336.67903     102002.7      46.7237      46.7237      46.7237 
  466000    108.76091    -7226.266   -6665.7318   -575.82822     102002.7      46.7237      46.7237      46.7237 
  467000    107.98032   -7216.8274   -6660.3162   -501.04421     102002.7      46.7237      46.7237      46.7237 
  468000    106.18759   -7233.5621   -6686.2903    -772.3864     102002.7      46.7237      46.7237      46.7237 
  469000    110.12156   -7225.8746   -6658.3279    -515.4229     102002.7      46.7237      46.7237      46.7237 
  470000    105.62015    -7227.556   -6683.2086    -471.6876     102002.7      46.7237      46.7237      46.7237 
  471000    109.69224   -7222.8773   -6657.5432   -898.46612     102002.7      46.7237      46.7237      46.7237 
  472000    107.82904   -7237.8953   -6682.1638   -696.75106     102002.7      46.7237      46.7237      46.7237 
  473000    109.38868   -7225.8841   -6662.1145   -671.39675     102002.7      46.7237      46.7237      46.7237 
  474000    106.64908   -7232.9784   -6683.3282   -712.83664     102002.7      46.7237      46.7237      46.7237 
  475000    114.58262   -7234.4052    -6643.867    -508.2664     102002.7      46.7237      46.7237      46.7237 
  476000    110.34699   -7247.2442   -6678.5356   -456.35102     102002.7      46.7237      46.7237      46.7237 
  477000    110.93811   -7248.9623   -6677.2072   -431.39106     102002.7      46.7237      46.7237      46.7237 
  478000    109.31151   -7226.1389    -6662.767   -610.76873     102002.7      46.7237      46.7237      46.7237 
  479000    112.62794   -7210.8491   -6630.3849   -805.22514     102002.7      46.7237      46.7237      46.7237 
  480000    109.78361   -7239.8909   -6674.0858   -699.60934     102002.7      46.7237      46.7237      46.7237 
  481000     110.1861   -7218.8734    -6650.994   -825.44438     102002.7      46.7237      46.7237      46.7237 
  482000    108.60878   -7224.7557   -6665.0055   -749.04554     102002.7      46.7237      46.7237      46.7237 
  483000    112.66005   -7231.0428   -6650.4131   -656.98205     102002.7      46.7237      46.7237      46.7237 
  484000    110.46031   -7231.0359   -6661.7433   -653.85107     102002.7      46.7237      46.7237      46.7237 
  485000    110.47215   -7245.9166    -6676.563   -623.38531     102002.7      46.7237      46.7237      46.7237 
  486000    110.53259    -7228.108   -6658.4428   -757.89432     102002.7      46.7237      46.7237      46.7237 
  487000    111.17681   -7209.2202   -6636.2348   -611.92958     102002.7      46.7237      46.7237      46.7237 
  488000    111.34028   -7228.4507   -6654.6229    -1105.138     102002.7      46.7237      46.7237      46.7237 
  489000    114.93855   -7240.2017   -6647.8291   -749.48877     102002.7      46.7237      46.7237      46.7237 
  490000    107.83537   -7238.7296   -6682.9655   -658.60203     102002.7      46.7237      46.7237      46.7237 
  491000    107.53146   -7228.8987   -6674.7009   -624.66297     102002.7      46.7237      46.7237      46.7237 
  492000    110.28365    -7236.135   -6667.7529    -880.8625     102002.7      46.7237      46.7237      46.7237 
  493000    109.89401   -7220.8105   -6654.4364    -878.7553     102002.7      46.7237      46.7237      46.7237 
  494000    110.43236   -7223.6753   -6654.5267   -599.06637     102002.7      46.7237      46.7237      46.7237 
  495000    111.51104    -7215.213   -6640.5051   -562.02023     102002.7      46.7237      46.7237      46.7237 
  496000    112.30144   -7228.3419   -6649.5604   -814.18869     102002.7      46.7237      46.7237      46.7237 
  497000    107.78567   -7229.7909   -6674.2829   -686.99303     102002.7      46.7237      46.7237      46.7237 
  498000    108.24204   -7212.4539   -6654.5938   -656.26022     102002.7      46.7237      46.7237      46.7237 
  499000    105.29665   -7227.9777   -6685.2977   -686.33987     102002.7      46.7237      46.7237      46.7237 
  500000    112.07834   -7230.9001   -6653.2685   -1026.0679     102002.7      46.7237      46.7237      46.7237 
  500509    112.38808   -7227.7661   -6648.5382   -835.85372     102002.7      46.7237      46.7237      46.7237 
Loop time of 564.976 on 24 procs for 500000 steps with 1730 atoms

Performance: 76.463 ns/day, 0.314 hours/ns, 884.993 timesteps/s
99.9% CPU use with 24 MPI tasks x no OpenMP threads

MPI task timing breakdown:
Section |  min time  |  avg time  |  max time  |%varavg| %total
---------------------------------------------------------------
Pair    | 202.37     | 275.94     | 376.14     | 300.4 | 48.84
Bond    | 73.752     | 78.458     | 84.947     |  38.2 | 13.89
Neigh   | 1.427      | 1.4427     | 1.453      |   0.8 |  0.26
Comm    | 95.641     | 202.08     | 269.38     | 356.7 | 35.77
Output  | 0.31217    | 0.31253    | 0.31682    |   0.2 |  0.06
Modify  | 3.4611     | 3.7823     | 4.0385     |   8.5 |  0.67
Other   |            | 2.967      |            |       |  0.53

Nlocal:    72.0833 ave 103 max 53 min
Histogram: 1 4 3 6 5 2 1 0 1 1
Nghost:    1973.08 ave 2132 max 1868 min
Histogram: 6 10 0 0 0 0 0 0 0 8
Neighs:    7639.29 ave 11139 max 4854 min
Histogram: 3 3 6 0 1 2 4 2 2 1

Total # of neighbors = 183343
Ave neighs/atom = 105.979
Ave special neighs/atom = 6.65896
Neighbor list builds = 2732
Dangerous builds = 0
Neighbor list info ...
  update every 1 steps, delay 10 steps, check yes
  max neighbors/atom: 2000, page size: 100000
  master list distance cutoff = 16
  ghost atom cutoff = 16
  binsize = 8, bins = 6 6 6
  3 neighbor lists, perpetual/occasional/extra = 3 0 0
  (1) pair buck6d/coul/gauss/dsf, perpetual, skip from (3)
      attributes: half, newton on
      pair build: skip
      stencil: none
      bin: none
  (2) pair lj/cut, perpetual, skip from (3)
      attributes: half, newton on
      pair build: skip
      stencil: none
      bin: none
  (3) neighbor class addition, perpetual
      attributes: half, newton on
      pair build: half/bin/newton
      stencil: half/bin/3d/newton
      bin: standard
Setting up Verlet run ...
  Unit style    : real
  Current step  : 500509
  Time step     : 1
WARNING: Inconsistent image flags (../domain.cpp:786)
Per MPI rank memory allocation (min/avg/max) = 24.1 | 24.46 | 24.57 Mbytes
Step Time TotEng KinEng PotEng E_mol E_pair Temp Pxx Pyy Pzz Pxy Pxz Pyz Cella Cellb Cellc CellAlpha CellBeta CellGamma Volume Press 
  500509       500000   -6648.5382    579.22798   -7227.7661    4313.0512   -11540.817    112.38808   -490.35753   -880.93012   -1136.2735   -134.78148   -28.021069   -149.36947      46.7237      46.7237      46.7237           90           90           90     102002.7   -835.85372 
  501000       500491   -6638.6197    591.23712   -7229.8568     4311.884   -11541.741    114.71822    -517.2597   -685.85818    -462.8444    11.676224    279.76613    -198.4858      46.7237      46.7237      46.7237           90           90           90     102002.7   -555.32076 
  502000       501491   -6667.4546    565.68089   -7233.1355    4300.7264   -11533.862    109.75952   -1127.2648   -766.62471   -639.10112    70.027135    208.29237    164.28569      46.7237      46.7237      46.7237           90           90           90     102002.7    -844.3302 
  503000       502491   -6663.0032    549.85912   -7212.8623    4328.7513   -11541.614    106.68961   -1066.2266   -732.39183   -974.10155    49.056763   -31.477284   -92.716807      46.7237      46.7237      46.7237           90           90           90     102002.7   -924.23999 
  504000       503491    -6658.524    581.12965   -7239.6536    4292.7959    -11532.45    112.75706   -1031.5691    -1110.238   -624.66239   -168.79119    -215.8258   -372.21092      46.7237      46.7237      46.7237           90           90           90     102002.7   -922.15651 
  505000       504491   -6679.2019    557.06762   -7236.2696    4286.2464   -11522.516    108.08828   -654.29197   -395.18008   -678.75866   -172.18021   -149.13321   -6.7871793      46.7237      46.7237      46.7237           90           90           90     102002.7    -576.0769 
  506000       505491   -6655.7294    562.42352   -7218.1529    4316.8093   -11534.962    109.12749   -1126.2448   -730.12266   -1013.4907   -91.794745   -133.52934   -169.83475      46.7237      46.7237      46.7237           90           90           90     102002.7   -956.61936 
  507000       506491   -6693.6267      547.577   -7241.2037    4298.1922   -11539.396    106.24681   -1218.7196   -949.08354   -900.78297    48.921208     124.3234   -136.79643      46.7237      46.7237      46.7237           90           90           90     102002.7    -1022.862 
  508000       507491   -6650.9872    568.18906   -7219.1763    4330.9593   -11550.136    110.24619   -1011.3774   -1131.8388   -695.72489    44.114113   -139.60042    71.904977      46.7237      46.7237      46.7237           90           90           90     102002.7   -946.31369 
  509000       508491   -6683.7514    555.40503   -7239.1565    4293.1036    -11532.26    107.76569   -749.64831   -857.95368   -397.34216   -180.34729   -36.306158    14.610198      46.7237      46.7237      46.7237           90           90           90     102002.7   -668.31472 
  510000       509491   -6656.5305    563.52958     -7220.06    4337.5382   -11557.598     109.3421   -822.91408   -815.89213   -951.18045  -0.93952536   -193.71044     89.57124      46.7237      46.7237      46.7237           90           90           90     102002.7   -863.32888 
  511000       510491   -6663.9212    569.85117   -7233.7724    4295.4023   -11529.175    110.56869   -785.74917   -952.42361   -930.67908    75.331324   -63.554949   -52.405695      46.7237      46.7237      46.7237           90           90           90     102002.7   -889.61729 
  512000       511491   -6692.4983    554.80122   -7247.2995    4286.3076   -11533.607    107.64853   -1113.1136   -589.08947   -892.06281   -5.3351023   -347.63147   -170.83847      46.7237      46.7237      46.7237           90           90           90     102002.7   -864.75529 
  513000       512491   -6650.2117    582.40531    -7232.617    4302.8892   -11535.506    113.00458   -659.91493   -698.19936   -1035.6344   -64.173298   -143.25999    16.651393      46.7237      46.7237      46.7237           90           90           90     102002.7   -797.91624 
  514000       513491   -6688.3007     563.3582   -7251.6589    4285.1699   -11536.829    109.30885   -535.09438   -507.60334   -651.58857    20.842932   -126.30229    125.59393      46.7237      46.7237      46.7237           90           90           90     102002.7   -564.76209 
  515000       514491   -6639.7338    565.34035   -7205.0741    4334.1642   -11539.238    109.69345   -693.24285   -805.35123   -593.67053    100.40322   -197.65807    218.26565      46.7237      46.7237      46.7237           90           90           90     102002.7   -697.42154 
  516000       515491   -6659.7254    564.88831   -7224.6137    4310.6061    -11535.22    109.60574   -592.00604   -648.46692   -788.01298    47.729837    90.715766    29.464951      46.7237      46.7237      46.7237           90           90           90     102002.7   -676.16198 
  517000       516491   -6677.4414    554.84022   -7232.2816      4306.36   -11538.642     107.6561   -892.11296   -565.69858   -345.39767    84.158918      60.3872    154.79359      46.7237      46.7237      46.7237           90           90           90     102002.7   -601.06974 
  518000       517491   -6655.2936    572.56269   -7227.8563    4319.4922   -11547.349    111.09481   -293.97998   -962.09471   -454.48288   -62.504933   -17.414856   -34.883245      46.7237      46.7237      46.7237           90           90           90     102002.7   -570.18586 
  519000       518491   -6638.2402    572.58914   -7210.8293    4318.4107    -11529.24    111.09994   -835.49764   -307.56132   -502.68587    92.128893   -101.33493   -60.181908      46.7237      46.7237      46.7237           90           90           90     102002.7   -548.58161 
  520000       519491   -6671.1057    561.95998   -7233.0657    4316.3138   -11549.379    109.03755   -316.52871   -384.86702   -658.64198   -15.934756    60.223157    42.170712      46.7237      46.7237      46.7237           90           90           90     102002.7    -453.3459 
  521000       520491   -6636.6635    576.56971   -7213.2332    4341.9066    -11555.14    111.87229   -642.69916   -1092.1236   -1074.3509   -107.27872    -85.65238   -29.861406      46.7237      46.7237      46.7237           90           90           90     102002.7   -936.39123 
  522000       521491   -6665.6002    557.27681    -7222.877    4323.3613   -11546.238    108.12887   -849.86179   -768.27627    -890.6193   -133.37333    129.02658   -77.902906      46.7237      46.7237      46.7237           90           90           90     102002.7   -836.25246 
  523000       522491   -6644.8144     581.1045   -7225.9189    4311.4141   -11537.333    112.75218   -494.68751   -819.76649   -523.07634    69.421992    216.04586   -52.521828      46.7237      46.7237      46.7237           90           90           90     102002.7   -612.51011 
  524000       523491   -6640.7429    578.26756   -7219.0105    4324.8096    -11543.82    112.20173   -501.76802    -1055.235   -810.49054   -38.988848    23.321474    38.244426      46.7237      46.7237      46.7237           90           90           90     102002.7   -789.16453 
  525000       524491   -6670.0005    555.01111   -7225.0116     4320.113   -11545.125    107.68926   -714.14845   -407.70064   -543.92119    169.50588   -26.030923    -39.54007      46.7237      46.7237      46.7237           90           90           90     102002.7   -555.25676 
  526000       525491   -6654.4938    565.05687   -7219.5507    4321.0053   -11540.556    109.63845   -540.33079   -236.86556   -1013.3845    41.856115   -88.274512   -14.284175      46.7237      46.7237      46.7237           90           90           90     102002.7   -596.86027 
  527000       526491   -6674.3167     560.9609   -7235.2776    4297.3234   -11532.601     108.8437   -253.78249   -1121.7526   -1053.5374    37.118015   -60.294199   -145.39978      46.7237      46.7237      46.7237           90           90           90     102002.7   -809.69082 
  528000       527491   -6682.1702    559.71672   -7241.8869    4294.2783   -11536.165    108.60229   -695.21993   -388.14225   -415.07224   -13.550048    213.91042      236.665      46.7237      46.7237      46.7237           90           90           90     102002.7   -499.47814 
  529000       528491   -6656.8685    566.94416   -7223.8127    4315.7799   -11539.593    110.00464   -497.17604   -999.15469   -980.24837    119.91042    135.36536     49.71692      46.7237      46.7237      46.7237           90           90           90     102002.7   -825.52637 
  530000       529491   -6695.9958    551.96752   -7247.9633    4290.8232   -11538.787    107.09871   -684.22269     -1083.51   -659.09544    16.818014   -164.98033    109.04158      46.7237      46.7237      46.7237           90           90           90     102002.7   -808.94272 
  531000       530491   -6684.9586    562.66002   -7247.6186    4291.4464   -11539.065    109.17338   -550.38791   -744.92083   -846.34294    40.165161    241.11433    11.390952      46.7237      46.7237      46.7237           90           90           90     102002.7   -713.88389 
  532000       531491   -6658.1575    572.90249     -7231.06    4303.6605   -11534.721    111.16074   -712.70744     -1039.08   -880.06245     156.6056   -234.60449    67.720238      46.7237      46.7237      46.7237           90           90           90     102002.7    -877.2833 
  533000       532491   -6666.2407    561.82529    -7228.066      4326.06   -11554.126    109.01142   -642.56854   -761.63004     -329.831    225.51988   -81.384602   -44.855164      46.7237      46.7237      46.7237           90           90           90     102002.7   -578.00986 
  534000       533491   -6686.2293    562.20222   -7248.4315    4288.9998   -11537.431    109.08455   -509.93905   -625.61956   -486.51606   -56.474283    61.002487    20.418152      46.7237      46.7237      46.7237           90           90           90     102002.7   -540.69156 
  535000       534491   -6665.2524    548.00099   -7213.2533    4314.9526   -11528.206    106.32908   -581.76035   -505.78907   -805.12622   -126.63162    80.810155    91.946138      46.7237      46.7237      46.7237           90           90           90     102002.7   -630.89188 
  536000       535491   -6646.6501    576.37988     -7223.03    4304.1929   -11527.223    111.83546   -474.35074   -599.14946   -393.09978    179.08421    -412.3688    56.123082      46.7237      46.7237      46.7237           90           90           90     102002.7   -488.86666 
  537000       536491   -6624.2425    580.83963   -7205.0822    4349.0088   -11554.091    112.70079   -829.44555   -839.89191   -1538.7677   -109.53995   -64.820965   -68.382758      46.7237      46.7237      46.7237           90           90           90     102002.7   -1069.3684 
  538000       537491   -6674.2273    557.53213   -7231.7595    4299.0273   -11530.787    108.17841   -666.56542   -316.87978   -977.38227    179.05307   -123.95414   -26.233206      46.7237      46.7237      46.7237           90           90           90     102002.7   -653.60916 
  539000       538491   -6645.6014    575.88676   -7221.4882    4320.9419    -11542.43    111.73978   -772.38647   -439.41647   -680.62296     95.56365   -144.16598   -120.93219      46.7237      46.7237      46.7237           90           90           90     102002.7   -630.80863 
  540000       539491    -6663.206    567.08931   -7230.2953     4304.425    -11534.72     110.0328   -586.71964   -645.90949    -923.1158    231.27174    265.59024   -112.34106      46.7237      46.7237      46.7237           90           90           90     102002.7   -718.58164 
  541000       540491   -6647.7736    576.91765   -7224.6913    4305.0083     -11529.7     111.9398   -769.53415   -666.96031   -473.17947    149.47519   -15.807634    55.495021      46.7237      46.7237      46.7237           90           90           90     102002.7   -636.55798 
  542000       541491   -6639.7381    589.80925   -7229.5473    4298.8545   -11528.402    114.44117    -445.8117   -878.76901   -386.74871    36.903786   -139.39227    145.07439      46.7237      46.7237      46.7237           90           90           90     102002.7   -570.44314 
  543000       542491   -6649.8227    568.13923   -7217.9619    4325.8825   -11543.844    110.23652   -894.94382   -826.67562   -272.49627   -171.81158    180.92592   -70.176552      46.7237      46.7237      46.7237           90           90           90     102002.7   -664.70524 
  544000       543491   -6660.5787     570.3961   -7230.9748    4316.3876   -11547.362    110.67442   -796.66516   -700.26372   -766.90086   -36.791088   -74.772989    14.364879      46.7237      46.7237      46.7237           90           90           90     102002.7   -754.60991 
  545000       544491   -6660.7711    571.39067   -7232.1617    4297.2945   -11529.456     110.8674   -110.70931   -577.61958   -274.01861    -71.78766    6.1512786    129.51593      46.7237      46.7237      46.7237           90           90           90     102002.7    -320.7825 
  546000       545491   -6660.3615    568.31984   -7228.6813    4303.7172   -11532.399    110.27156    -1091.796    -482.5044   -715.00199   -81.085652   -13.165501    250.20749      46.7237      46.7237      46.7237           90           90           90     102002.7   -763.10079 
  547000       546491   -6646.8914    571.18423   -7218.0757     4310.544    -11528.62    110.82734   -683.91323    -94.05502   -628.31871   -76.527685   -19.198035   -185.22428      46.7237      46.7237      46.7237           90           90           90     102002.7   -468.76232 
  548000       547491   -6659.6354    575.94819   -7235.5836    4316.9362    -11552.52     111.7517   -261.34141   -801.51034   -963.65289    91.015041    275.35114    198.88806      46.7237      46.7237      46.7237           90           90           90     102002.7   -675.50155 
  549000       548491   -6684.1354    564.28532   -7248.4208    4273.4416   -11521.862    109.48874    -936.3118   -852.75397   -681.41441   -260.82207   -99.943461     107.8908      46.7237      46.7237      46.7237           90           90           90     102002.7   -823.49339 
  550000       549491   -6655.2827    573.50897   -7228.7917    4315.1298   -11543.921    111.27841   -596.08972   -744.87664   -502.86681   -18.027685    73.823596    226.93801      46.7237      46.7237      46.7237           90           90           90     102002.7   -614.61106 
  551000       550491   -6685.7996    541.65222   -7227.4518    4300.7797   -11528.232    105.09722   -396.64638   -892.18765   -1042.4095    425.77515    183.07085    -51.49392      46.7237      46.7237      46.7237           90           90           90     102002.7   -777.08117 
  552000       551491   -6665.7443    571.33012   -7237.0744    4307.3106   -11544.385    110.85565   -366.46529   -102.45403   -447.18154   -32.214831   -18.309788    71.211848      46.7237      46.7237      46.7237           90           90           90     102002.7   -305.36695 
  553000       552491   -6666.3233    558.48013   -7224.8034    4295.0412   -11519.845    108.36235   -535.39019   -455.49058   -731.12053   -114.55092   -138.64877    15.537039      46.7237      46.7237      46.7237           90           90           90     102002.7   -574.00043 
  554000       553491    -6667.102    554.98275   -7222.0847    4329.7845   -11551.869    107.68376   -574.05446   -585.57967   -798.98204    107.52555   -154.24289   -156.25657      46.7237      46.7237      46.7237           90           90           90     102002.7   -652.87206 
  555000       554491   -6629.0353    592.22509   -7221.2604    4329.5265   -11550.787    114.90992   -805.93213   -306.70373   -729.86602   -32.020922   -116.51358    43.175663      46.7237      46.7237      46.7237           90           90           90     102002.7   -614.16729 
[...]
  936000       935491   -6647.9557    566.95438   -7214.9101    4335.0167   -11549.927    110.00662   -1090.4506   -808.00079   -711.66935   -127.32423     65.89765    41.522229      46.7237      46.7237      46.7237           90           90           90     102002.7   -870.04023 
  937000       936491   -6663.2032    572.24629   -7235.4495    4296.8793   -11532.329    111.03341   -774.44437   -1070.1364   -1068.0233   -77.631757   -91.694419   -164.88802      46.7237      46.7237      46.7237           90           90           90     102002.7   -970.86804 
  938000       937491   -6641.2909    578.07252   -7219.3635    4315.1808   -11534.544    112.16388   -569.98455   -732.67677   -849.11314    22.069912    120.34175   -24.714009      46.7237      46.7237      46.7237           90           90           90     102002.7   -717.25815 
  939000       938491   -6676.7603    563.12192   -7239.8822    4283.3141   -11523.196    109.26301    -413.4111   -1147.4953   -981.43835    168.56064    -151.7253    328.82565      46.7237      46.7237      46.7237           90           90           90     102002.7   -847.44824 
  940000       939491   -6679.7923    554.22556   -7234.0179    4308.1991   -11542.217    107.53684   -853.10169   -835.56498   -592.15865   -27.124931   -276.73772   -75.876251      46.7237      46.7237      46.7237           90           90           90     102002.7   -760.27511 
  941000       940491   -6651.3069     565.7923   -7217.0992    4314.2912    -11531.39    109.78114   -533.83351   -763.96536   -682.15205   -131.86471   -116.75806    189.83856      46.7237      46.7237      46.7237           90           90           90     102002.7   -659.98364 
  942000       941491   -6646.3065    587.94915   -7234.2556    4297.2598   -11531.515    114.08025   -487.88616   -760.27114   -796.27645   -139.54161    93.149888    159.18339      46.7237      46.7237      46.7237           90           90           90     102002.7   -681.47791 
  943000       942491   -6665.9794    577.42801   -7243.4074    4289.8917   -11533.299    112.03883   -747.19337   -917.62174   -245.83085   -155.77782     142.2627     26.94531      46.7237      46.7237      46.7237           90           90           90     102002.7   -636.88199 
  944000       943491   -6629.9603    580.37592   -7210.3362    4322.0912   -11532.427    112.61081   -263.79252   -707.23655   -448.22351   -192.42306    78.848843   -224.69459      46.7237      46.7237      46.7237           90           90           90     102002.7   -473.08419 
  945000       944491   -6670.7608    566.32353   -7237.0844    4313.1044   -11550.189    109.88421   -596.71453   -424.47596   -480.29215   -137.54665    101.72412    235.13134      46.7237      46.7237      46.7237           90           90           90     102002.7   -500.49421 
  946000       945491   -6640.0716    570.72364   -7210.7952     4320.546   -11531.341    110.73797   -473.81075   -444.68394   -675.00503    88.402842   -274.69938   -28.399947      46.7237      46.7237      46.7237           90           90           90     102002.7   -531.16657 
  947000       946491   -6673.5218    564.17625    -7237.698    4306.2033   -11543.901    109.46758   -642.39536   -598.59948   -745.97419    56.063427    25.590838    164.34654      46.7237      46.7237      46.7237           90           90           90     102002.7   -662.32301 
  948000       947491   -6658.6711    564.26036   -7222.9314    4305.9079   -11528.839     109.4839   -426.62174      -152.61   -881.55642   -66.914151    132.33177    190.97459      46.7237      46.7237      46.7237           90           90           90     102002.7   -486.92939 
  949000       948491   -6648.9925    565.05156   -7214.0441    4339.9603   -11554.004    109.63741   -854.60032   -737.34995   -731.54587    107.96792    150.69299    31.389931      46.7237      46.7237      46.7237           90           90           90     102002.7   -774.49871 
  950000       949491   -6678.7527    553.69077   -7232.4435    4297.9078   -11530.351    107.43307   -946.20674   -499.32074   -530.48283   -86.912199   -178.46775    211.83045      46.7237      46.7237      46.7237           90           90           90     102002.7    -658.6701 
  951000       950491    -6645.999      570.961     -7216.96    4329.4773   -11546.437    110.78403   -841.26068    -776.2391   -890.84667    158.88842    55.757028   -119.79779      46.7237      46.7237      46.7237           90           90           90     102002.7   -836.11548 
  952000       951491   -6646.4519    574.30677   -7220.7587    4308.4641   -11529.223    111.43321   -869.75383   -922.21622   -598.46163   -73.664584   -72.034667   -214.25232      46.7237      46.7237      46.7237           90           90           90     102002.7   -796.81056 
  953000       952491   -6669.6904    561.29225   -7230.9827    4319.7515   -11550.734    108.90799   -729.97468   -509.31391   -819.65388   -93.285249   -59.010588   -90.513754      46.7237      46.7237      46.7237           90           90           90     102002.7   -686.31416 
  954000       953491   -6651.2023    569.72374   -7220.9261     4299.098   -11520.024    110.54396   -932.21958   -944.23485    -700.1458    92.789398    101.30733   -144.86994      46.7237      46.7237      46.7237           90           90           90     102002.7   -858.86674 
  955000       954491   -6650.2337     566.2741   -7216.5078    4328.0901   -11544.598    109.87462   -694.65662   -585.00677   -811.46359    226.87528   -139.43059   -204.15483      46.7237      46.7237      46.7237           90           90           90     102002.7   -697.04233 
  956000       955491   -6648.9374    573.88898   -7222.8264    4301.8263   -11524.653    111.35215   -832.53743   -769.46685   -626.48403   -74.210389   -124.56963   -169.86335      46.7237      46.7237      46.7237           90           90           90     102002.7   -742.82944 
  957000       956491   -6666.4591    586.62978   -7253.0889    4283.7228   -11536.812    113.82425   -660.39856    -555.7595   -553.16882    27.358658    47.968966   -80.286854      46.7237      46.7237      46.7237           90           90           90     102002.7   -589.77562 
  958000       957491   -6660.7598    562.52301   -7223.2828    4319.0975    -11542.38     109.1468   -983.59734   -779.26693   -625.85233    288.03774   -160.97382    155.64961      46.7237      46.7237      46.7237           90           90           90     102002.7   -796.23887 
  959000       958491   -6649.0092    564.02037   -7213.0296    4333.3297   -11546.359    109.43733   -1259.7965   -536.60301   -700.90463   -157.93635   -56.181945     266.4443      46.7237      46.7237      46.7237           90           90           90     102002.7   -832.43472 
  960000       959491    -6662.722    551.63136   -7214.3533    4320.5889   -11534.942    107.03348   -781.74552   -503.63716    -618.9118    157.69801   -173.74128    201.29409      46.7237      46.7237      46.7237           90           90           90     102002.7   -634.76483 
  961000       960491   -6663.6824     560.6097   -7224.2921    4307.8586   -11532.151    108.77556   -256.36654   -903.46105   -252.40544    247.20404    15.345144    64.907844      46.7237      46.7237      46.7237           90           90           90     102002.7   -470.74434 
  962000       961491   -6639.8735    574.96322   -7214.8367    4320.2288   -11535.066    111.56058   -406.58312    98.084271   -463.33776   -128.19491   -40.526255   -139.75365      46.7237      46.7237      46.7237           90           90           90     102002.7   -257.27887 
  963000       962491   -6648.1528    567.86389   -7216.0167    4325.1797   -11541.196    110.18309   -379.10237   -749.83715   -989.38039     80.28902   -176.35428    81.401003      46.7237      46.7237      46.7237           90           90           90     102002.7   -706.10664 
  964000       963491   -6664.1387    552.37693   -7216.5157    4306.9397   -11523.455    107.17814   -656.77528   -304.50695   -418.45111    21.356534   -25.322797    98.687477      46.7237      46.7237      46.7237           90           90           90     102002.7   -459.91111 
  965000       964491   -6655.2507    560.34569   -7215.5964    4318.5799   -11534.176    108.72433   -449.62013   -444.09583   -1202.5003   -168.37106   -178.32166   -54.665412      46.7237      46.7237      46.7237           90           90           90     102002.7   -698.73876 
  966000       965491   -6694.7984    545.17707   -7239.9755    4294.4944    -11534.47    105.78115   -920.74383   -1107.4709   -873.66783    84.863994    240.13397    61.590495      46.7237      46.7237      46.7237           90           90           90     102002.7   -967.29417 
  967000       966491   -6656.7492    573.05757   -7229.8068    4322.6974   -11552.504    111.19083   -1121.3486   -1077.6274   -688.88681   -103.74509    63.883986    34.889587      46.7237      46.7237      46.7237           90           90           90     102002.7   -962.62095 
  968000       967491   -6680.7739     552.2839   -7233.0578    4315.8614   -11548.919    107.16009   -1054.2687   -1110.9646   -627.29885    124.44444    -43.51907   -123.24268      46.7237      46.7237      46.7237           90           90           90     102002.7   -930.84404 
  969000       968491   -6669.7039    565.56105    -7235.265    4287.8761   -11523.141    109.73627   -474.95629   -696.49135   -950.54646   -181.41385    61.696914   -13.353102      46.7237      46.7237      46.7237           90           90           90     102002.7   -707.33137 
  970000       969491   -6643.9837     573.6441   -7217.6278    4323.8958   -11541.524    111.30463   -449.06718   -613.32498   -997.19528    152.91978   -266.23419   -50.441469      46.7237      46.7237      46.7237           90           90           90     102002.7   -686.52914 
  971000       970491   -6675.8265    550.59491   -7226.4214    4312.6916   -11539.113    106.83238   -606.30964   -794.43074    -639.5972   -116.20285   -83.723853    210.22438      46.7237      46.7237      46.7237           90           90           90     102002.7   -680.11253 
  972000       971491   -6656.2859    557.76295   -7214.0488    4320.2063   -11534.255     108.2232   -511.69561   -500.13024   -1049.1254    48.792158   -117.99492    102.70856      46.7237      46.7237      46.7237           90           90           90     102002.7   -686.98373 
  973000       972491    -6655.566    587.05351   -7242.6195     4281.004   -11523.624    113.90647   -422.91815   -538.16419   -492.89022   -189.64536   -84.970063   -140.53833      46.7237      46.7237      46.7237           90           90           90     102002.7   -484.65752 
  974000       973491   -6659.1839    567.88966   -7227.0736    4316.5097   -11543.583    110.18809   -703.34913   -714.99636   -336.36562   -130.69019   -4.2457662    232.83508      46.7237      46.7237      46.7237           90           90           90     102002.7    -584.9037 
  975000       974491   -6677.0448    552.98095   -7230.0258     4294.482   -11524.508    107.29534   -521.08191   -171.04675   -386.06771    39.070999    30.372032   -112.12572      46.7237      46.7237      46.7237           90           90           90     102002.7   -359.39879 
  976000       975491   -6640.3176    569.75406   -7210.0717     4317.679   -11527.751    110.54984   -638.56441   -728.89741    -471.0755    7.7478278   -106.21302   -63.754506      46.7237      46.7237      46.7237           90           90           90     102002.7   -612.84577 
  977000       976491   -6680.3804    537.68136   -7218.0618    4326.1745   -11544.236    104.32675   -748.35701   -393.28812   -432.70489   -201.97444    204.06289     69.19665      46.7237      46.7237      46.7237           90           90           90     102002.7   -524.78334 
  978000       977491   -6657.3456      566.613   -7223.9586    4301.9011    -11525.86    109.94038   -577.38444   -389.91231   -850.89948   -109.15787    62.321346    -67.67161      46.7237      46.7237      46.7237           90           90           90     102002.7   -606.06541 
  979000       978491   -6682.6109    557.54174   -7240.1526    4307.4539   -11547.606    108.18028   -686.44634   -698.40612   -1135.9047    98.719694    72.682686   -114.91471      46.7237      46.7237      46.7237           90           90           90     102002.7   -840.25237 
  980000       979491    -6675.509    560.21242   -7235.7214    4301.5447   -11537.266    108.69847   -558.71282   -584.33821   -565.86258   -70.423295   -111.71124    133.59865      46.7237      46.7237      46.7237           90           90           90     102002.7   -569.63787 
  981000       980491   -6630.0626    569.56496   -7199.6275    4334.0429    -11533.67    110.51315   -791.13285   -851.13353   -756.10712     224.6095   -281.78504    -49.68494      46.7237      46.7237      46.7237           90           90           90     102002.7   -799.45784 
  982000       981491   -6645.5643    580.40095   -7225.9652      4314.04   -11540.005    112.61567   -398.24226   -1111.1779   -989.58329    13.659487   -237.22389    142.08236      46.7237      46.7237      46.7237           90           90           90     102002.7   -833.00115 
  983000       982491   -6654.6262    558.39824   -7213.0245    4320.1547   -11533.179    108.34647   -925.40565   -480.83073   -809.43353   -160.60306   -219.18469   -191.19743      46.7237      46.7237      46.7237           90           90           90     102002.7   -738.55664 
  984000       983491   -6640.3465    571.36316   -7211.7096    4322.4036   -11534.113    110.86206   -703.57031   -1067.4765    -466.0265    256.62319   -66.596662   -226.41339      46.7237      46.7237      46.7237           90           90           90     102002.7   -745.69111 
  985000       984491   -6673.6846     567.3844    -7241.069    4284.9044   -11525.973    110.09006   -156.96824   -717.29189   -475.56645    59.894882   -80.568228   -28.303046      46.7237      46.7237      46.7237           90           90           90     102002.7   -449.94219 
  986000       985491   -6659.7807    552.50187   -7212.2826    4318.2776    -11530.56    107.20239    -573.8519   -692.65356   -863.01791    52.983222   -8.0304427   -9.7741819      46.7237      46.7237      46.7237           90           90           90     102002.7   -709.84112 
  987000       986491   -6650.3474    583.24551   -7233.5929    4299.7283   -11533.321     113.1676   -681.19207   -421.53819   -986.78065   -70.908666   -108.40432    212.69337      46.7237      46.7237      46.7237           90           90           90     102002.7   -696.50364 
  988000       987491   -6686.6257    563.63033    -7250.256     4294.799   -11545.055    109.36165   -179.46425   -638.57862   -1114.8489   -59.771445    107.59515    75.685502      46.7237      46.7237      46.7237           90           90           90     102002.7   -644.29727 
  989000       988491   -6654.0058    570.63634   -7224.6421    4303.8012   -11528.443    110.72103   -837.36579   -491.74676   -865.46902    100.87275    26.802949     99.49462      46.7237      46.7237      46.7237           90           90           90     102002.7   -731.52719 
  990000       989491   -6685.8672    561.83428   -7247.7015    4285.9403   -11533.642    109.01316   -664.06108   -636.88332   -332.36933   -338.07457    201.22697   -46.088388      46.7237      46.7237      46.7237           90           90           90     102002.7   -544.43791 
  991000       990491   -6665.7726    569.01909   -7234.7917     4313.972   -11548.764    110.40724   -1037.4003   -1120.5165    -719.0456   -210.49958    231.45611    284.41649      46.7237      46.7237      46.7237           90           90           90     102002.7   -958.98745 
  992000       991491   -6636.1257    588.61949   -7224.7452    4310.6498   -11535.395    114.21032   -952.14738   -894.15926   -335.43536    -86.40903   -175.72038   -57.925371      46.7237      46.7237      46.7237           90           90           90     102002.7   -727.24733 
  993000       992491   -6646.9789    573.27959   -7220.2585    4317.6589   -11537.917    111.23391   -846.36659   -567.38563   -690.44492   -32.754932   -4.8078669   -51.405335      46.7237      46.7237      46.7237           90           90           90     102002.7   -701.39905 
  994000       993491   -6686.0419    557.91579   -7243.9577    4298.4155   -11542.373    108.25285   -799.53897   -524.74564   -1183.4832    29.696873    -14.86331    11.446483      46.7237      46.7237      46.7237           90           90           90     102002.7   -835.92259 
  995000       994491   -6657.3111    568.49112   -7225.8022    4320.2828   -11546.085    110.30479   -329.12563   -833.15286   -917.29103   -73.963449   -24.655845    40.765834      46.7237      46.7237      46.7237           90           90           90     102002.7   -693.18984 
  996000       995491   -6645.3371    588.00945   -7233.3466    4310.2714   -11543.618    114.09195   -575.66382   -659.49697   -1157.5074    77.979043   -125.04653     153.5255      46.7237      46.7237      46.7237           90           90           90     102002.7   -797.55606 
  997000       996491    -6665.794    555.63518   -7221.4292    4310.0762   -11531.505    107.81035   -938.23181   -702.66473   -712.94464   -67.944234    -82.30498    90.316935      46.7237      46.7237      46.7237           90           90           90     102002.7   -784.61373 
  998000       997491   -6653.3331    561.32409   -7214.6572    4319.9821   -11534.639    108.91417   -1016.2549   -897.07053   -703.25874   -68.257575   -87.376385    261.20043      46.7237      46.7237      46.7237           90           90           90     102002.7   -872.19473 
  999000       998491   -6637.8967    588.70525    -7226.602    4310.4087   -11537.011    114.22696   -930.76168   -928.49189   -1177.2559    45.103619   -105.50252    172.01295      46.7237      46.7237      46.7237           90           90           90     102002.7   -1012.1698 
 1000000       999491   -6672.3389    552.99304   -7225.3319     4314.648    -11539.98    107.29769   -1197.7014   -857.73355   -541.98461    69.566392      46.6505    60.411723      46.7237      46.7237      46.7237           90           90           90     102002.7   -865.80654 
 1000509      1000000   -6670.5779    562.63942   -7233.2173     4304.537   -11537.754    109.16938   -640.45947    -439.9693   -1005.3858   -1.1316479    121.09523    3.4608372      46.7237      46.7237      46.7237           90           90           90     102002.7   -695.27153 
Loop time of 621.839 on 24 procs for 500000 steps with 1730 atoms

Performance: 69.471 ns/day, 0.345 hours/ns, 804.067 timesteps/s
99.9% CPU use with 24 MPI tasks x no OpenMP threads

MPI task timing breakdown:
Section |  min time  |  avg time  |  max time  |%varavg| %total
---------------------------------------------------------------
Pair    | 226.45     | 306.06     | 405.49     | 311.8 | 49.22
Bond    | 75.165     | 82.755     | 89.967     |  39.0 | 13.31
Neigh   | 1.4671     | 1.4849     | 1.4978     |   0.9 |  0.24
Comm    | 112.66     | 216.27     | 289.19     | 372.6 | 34.78
Output  | 0.36947    | 0.40149    | 0.40301    |   1.1 |  0.06
Modify  | 11.558     | 11.881     | 12.123     |   4.3 |  1.91
Other   |            | 2.983      |            |       |  0.48

Nlocal:    72.0833 ave 98 max 39 min
Histogram: 1 0 3 2 5 1 4 4 3 1
Nghost:    1973.92 ave 2146 max 1865 min
Histogram: 9 6 1 0 0 0 0 0 1 7
Neighs:    7633.38 ave 11281 max 2687 min
Histogram: 1 0 4 2 2 2 6 1 2 4

Total # of neighbors = 183201
Ave neighs/atom = 105.897
Ave special neighs/atom = 6.65896
Neighbor list builds = 2839
Dangerous builds = 0
Total wall time: 0:19:48
