LAMMPS (30 Mar 2018)
Reading data file ...
  orthogonal box = (0 0 0) to (46.7237 46.7237 46.7237)
  2 by 2 by 4 MPI processor grid
  reading atoms ...
  3188 atoms
  scanning bonds ...
  5 = max bonds/atom
  scanning angles ...
  10 = max angles/atom
  scanning dihedrals ...
  32 = max dihedrals/atom
  scanning impropers ...
  3 = max impropers/atom
  reading bonds ...
  2064 bonds
  reading angles ...
  3696 angles
  reading dihedrals ...
  6240 dihedrals
  reading impropers ...
  1008 impropers
Finding 1-2 1-3 1-4 neighbors ...
  special bond factors lj:   0          0          0         
  special bond factors coul: 0          0          0         
  5 = max # of 1-2 neighbors
  8 = max # of 1-3 neighbors
  20 = max # of 1-4 neighbors
  19 = max # of special neighbors
Finding 1-2 1-3 1-4 neighbors ...
  special bond factors lj:   0          0          1         
  special bond factors coul: 1          1          1         
  5 = max # of 1-2 neighbors
  8 = max # of 1-3 neighbors
  19 = max # of special neighbors
WARNING: Using 'neigh_modify every 1 delay 0 check yes' setting during minimization (../min.cpp:168)
Neighbor list info ...
  update every 1 steps, delay 0 steps, check yes
  max neighbors/atom: 2000, page size: 100000
  master list distance cutoff = 16
  ghost atom cutoff = 16
  binsize = 8, bins = 6 6 6
  3 neighbor lists, perpetual/occasional/extra = 3 0 0
  (1) pair buck6d/coul/gauss/dsf, perpetual, skip from (3)
      attributes: half, newton on
      pair build: skip
      stencil: none
      bin: none
  (2) pair lj/cut, perpetual, skip from (3)
      attributes: half, newton on
      pair build: skip
      stencil: none
      bin: none
  (3) neighbor class addition, perpetual
      attributes: half, newton on
      pair build: half/bin/newton
      stencil: half/bin/3d/newton
      bin: standard
Setting up cg style minimization ...
  Unit style    : real
  Current step  : 0
WARNING: Inconsistent image flags (../domain.cpp:786)
Per MPI rank memory allocation (min/avg/max) = 23.01 | 23.47 | 23.91 Mbytes
Step Temp E_pair E_mol TotEng Press 
       0            0   -15542.661    6482.8914   -9059.7699    5767.7573 
     500            0   -15884.925    3771.8044    -12113.12   -2048.6063 
Loop time of 6.47324 on 16 procs for 500 steps with 3188 atoms

99.9% CPU use with 16 MPI tasks x no OpenMP threads

Minimization stats:
  Stopping criterion = max force evaluations
  Energy initial, next-to-last, final = 
        -9059.76987168     -12113.0676081     -12113.1204666
  Force two-norm initial, final = 2575.22 10.2796
  Force max component initial, final = 152.078 1.22902
  Final line search alpha, max atom move = 0.0111713 0.0137297
  Iterations, force evaluations = 500 1000

MPI task timing breakdown:
Section |  min time  |  avg time  |  max time  |%varavg| %total
---------------------------------------------------------------
Pair    | 2.3787     | 3.332      | 5.393      |  45.4 | 51.47
Bond    | 0.29223    | 0.37806    | 0.46535    |   8.5 |  5.84
Neigh   | 0.045668   | 0.046347   | 0.046976   |   0.2 |  0.72
Comm    | 0.52915    | 2.6668     | 3.6719     |  52.3 | 41.20
Output  | 0          | 0          | 0          |   0.0 |  0.00
Modify  | 0          | 0          | 0          |   0.0 |  0.00
Other   |            | 0.05004    |            |       |  0.77

Nlocal:    199.25 ave 230 max 173 min
Histogram: 2 1 1 2 2 2 3 2 0 1
Nghost:    3979.5 ave 4021 max 3942 min
Histogram: 1 0 3 2 3 3 2 0 1 1
Neighs:    11476.4 ave 19413 max 6246 min
Histogram: 1 2 3 3 2 3 0 1 0 1

Total # of neighbors = 183622
Ave neighs/atom = 57.5979
Ave special neighs/atom = 3.61355
Neighbor list builds = 9
Dangerous builds = 0
Neighbor list info ...
  update every 1 steps, delay 10 steps, check yes
  max neighbors/atom: 2000, page size: 100000
  master list distance cutoff = 16
  ghost atom cutoff = 16
  binsize = 8, bins = 6 6 6
  3 neighbor lists, perpetual/occasional/extra = 3 0 0
  (1) pair buck6d/coul/gauss/dsf, perpetual, skip from (3)
      attributes: half, newton on
      pair build: skip
      stencil: none
      bin: none
  (2) pair lj/cut, perpetual, skip from (3)
      attributes: half, newton on
      pair build: skip
      stencil: none
      bin: none
  (3) neighbor class addition, perpetual
      attributes: half, newton on
      pair build: half/bin/newton
      stencil: half/bin/3d/newton
      bin: standard
Setting up Verlet run ...
  Unit style    : real
  Current step  : 500
  Time step     : 1
WARNING: Inconsistent image flags (../domain.cpp:786)
Per MPI rank memory allocation (min/avg/max) = 22.66 | 22.74 | 22.98 Mbytes
Step Temp PotEng TotEng Press Volume Lx Ly Lz 
     500           91    -12113.12   -11248.635    -1661.189     102002.7      46.7237      46.7237      46.7237 
    1000    76.378603   -11392.994    -10667.41   -609.14553     102002.7      46.7237      46.7237      46.7237 
    2000    91.455402   -11273.073   -10404.261   -531.74225     102002.7      46.7237      46.7237      46.7237 
    3000    90.589718   -11299.269   -10438.681   -335.07681     102002.7      46.7237      46.7237      46.7237 
    4000    91.670249   -11279.958   -10409.105    -163.1148     102002.7      46.7237      46.7237      46.7237 
    5000    89.584888   -11276.743     -10425.7   -497.17565     102002.7      46.7237      46.7237      46.7237 
    6000    90.660446   -11289.643   -10428.383   -338.58296     102002.7      46.7237      46.7237      46.7237 
    7000    93.577531   -11298.639   -10409.667   -362.10752     102002.7      46.7237      46.7237      46.7237 
    8000    90.958592   -11294.719   -10430.627   -504.09694     102002.7      46.7237      46.7237      46.7237 
    9000    87.338962   -11282.001   -10452.295   -590.66087     102002.7      46.7237      46.7237      46.7237 
   10000    92.335239   -11299.129   -10421.959   -375.30085     102002.7      46.7237      46.7237      46.7237 
   11000    90.080267   -11310.306   -10454.558    -628.2732     102002.7      46.7237      46.7237      46.7237 
   12000    92.327596   -11294.978    -10417.88    -570.0187     102002.7      46.7237      46.7237      46.7237 
   13000    91.705556   -11303.419   -10432.231   -617.62828     102002.7      46.7237      46.7237      46.7237 
   14000    89.342974   -11306.577   -10457.833   -721.18449     102002.7      46.7237      46.7237      46.7237 
   15000    91.057155   -11300.903   -10435.874   -549.89894     102002.7      46.7237      46.7237      46.7237 
   16000    92.919193   -11315.647   -10432.929   -761.97076     102002.7      46.7237      46.7237      46.7237 
   17000     92.95014    -11297.61   -10414.599   -653.25339     102002.7      46.7237      46.7237      46.7237 
   18000    90.314576   -11300.011   -10442.036   -259.00617     102002.7      46.7237      46.7237      46.7237 
   19000    88.903063   -11307.219   -10462.654   -824.53677     102002.7      46.7237      46.7237      46.7237 
   20000    91.478394   -11307.355   -10438.325   -603.51549     102002.7      46.7237      46.7237      46.7237 
   21000    91.676791   -11316.876   -10445.961   -717.43584     102002.7      46.7237      46.7237      46.7237 
   22000    91.708076   -11295.467   -10424.254   -363.59897     102002.7      46.7237      46.7237      46.7237 
   23000    94.311832   -11305.636   -10409.688   -538.69699     102002.7      46.7237      46.7237      46.7237 
   24000    91.212645   -11301.776   -10435.271   -603.41879     102002.7      46.7237      46.7237      46.7237 
   25000    91.989878   -11288.195   -10414.306   -839.29397     102002.7      46.7237      46.7237      46.7237 
   26000    89.131698   -11315.299   -10468.562   -463.41882     102002.7      46.7237      46.7237      46.7237 
   27000    89.179792   -11279.143   -10431.949   -662.80138     102002.7      46.7237      46.7237      46.7237 
   28000    92.188999   -11288.958   -10413.177    -550.6503     102002.7      46.7237      46.7237      46.7237 
   29000    92.041992   -11301.881   -10427.497   -931.56652     102002.7      46.7237      46.7237      46.7237 
   30000    91.252352   -11300.556   -10433.673   -763.57499     102002.7      46.7237      46.7237      46.7237 
   31000    89.599982   -11319.851   -10468.665   -676.69842     102002.7      46.7237      46.7237      46.7237 
   32000    88.862683   -11290.002   -10445.821   -622.65572     102002.7      46.7237      46.7237      46.7237 
   33000    89.329021   -11311.063   -10462.452   -550.90675     102002.7      46.7237      46.7237      46.7237 
   34000    90.725499    -11302.41   -10440.532   -497.68078     102002.7      46.7237      46.7237      46.7237 
   35000    90.643231   -11313.216   -10452.119   -478.30782     102002.7      46.7237      46.7237      46.7237 
   36000    90.874561    -11289.48   -10426.186   -315.04811     102002.7      46.7237      46.7237      46.7237 
   37000    91.112954   -11316.287   -10450.729   -398.33568     102002.7      46.7237      46.7237      46.7237 
   38000     89.57741   -11313.742   -10462.771   -285.40337     102002.7      46.7237      46.7237      46.7237 
   39000     91.74359   -11305.178   -10433.628    -589.8872     102002.7      46.7237      46.7237      46.7237 
   40000    89.010152   -11293.129   -10447.547   -291.86916     102002.7      46.7237      46.7237      46.7237 
   41000    89.439541   -11309.233   -10459.571   -572.12478     102002.7      46.7237      46.7237      46.7237 
   42000     91.08043   -11314.961   -10449.711   -505.34827     102002.7      46.7237      46.7237      46.7237 
   43000    91.410078   -11315.853   -10447.472   -717.48806     102002.7      46.7237      46.7237      46.7237 
   44000    91.959887   -11299.208   -10425.604   -746.31556     102002.7      46.7237      46.7237      46.7237 
   45000    90.474508    -11308.08   -10448.587   -537.34033     102002.7      46.7237      46.7237      46.7237 
   46000    90.291477   -11297.673   -10439.918   -741.43128     102002.7      46.7237      46.7237      46.7237 
   47000    92.157743   -11302.487   -10427.003   -570.49345     102002.7      46.7237      46.7237      46.7237 
   48000    89.957541   -11298.117   -10443.535   -591.94185     102002.7      46.7237      46.7237      46.7237 
   49000    89.529111   -11328.269   -10477.757   -657.10766     102002.7      46.7237      46.7237      46.7237 
   50000    91.200166    -11280.86   -10414.473   -552.97537     102002.7      46.7237      46.7237      46.7237 
   51000    93.524126   -11329.545   -10441.081   -678.58321     102002.7      46.7237      46.7237      46.7237 
   52000    90.567711   -11321.094   -10460.715   -739.16857     102002.7      46.7237      46.7237      46.7237 
   53000    90.217465   -11308.949   -10451.897   -440.18124     102002.7      46.7237      46.7237      46.7237 
   54000    92.050931   -11312.669     -10438.2   -676.16968     102002.7      46.7237      46.7237      46.7237 
   55000    91.327998   -11311.866   -10444.265   -600.08541     102002.7      46.7237      46.7237      46.7237 
   56000    90.013314   -11326.203   -10471.091   -530.76971     102002.7      46.7237      46.7237      46.7237 
   57000    91.914389   -11310.928   -10437.756   -878.53312     102002.7      46.7237      46.7237      46.7237 
   58000    91.072341   -11287.421   -10422.248   -408.34152     102002.7      46.7237      46.7237      46.7237 
   59000    89.553955    -11294.47   -10443.722   -534.11442     102002.7      46.7237      46.7237      46.7237 
   60000    94.196549   -11298.621   -10403.769   -554.18336     102002.7      46.7237      46.7237      46.7237 
   61000    93.481354   -11310.602   -10422.544   -638.70527     102002.7      46.7237      46.7237      46.7237 
   62000    92.440899   -11289.911   -10411.737   -444.58628     102002.7      46.7237      46.7237      46.7237 
   63000    91.741044   -11329.359   -10457.833   -646.90942     102002.7      46.7237      46.7237      46.7237 
   64000    93.373429   -11327.679   -10440.647   -697.65467     102002.7      46.7237      46.7237      46.7237 
   65000    93.035349   -11305.685   -10421.864   -521.07306     102002.7      46.7237      46.7237      46.7237 
   66000     89.00985   -11281.764   -10436.185   -690.29697     102002.7      46.7237      46.7237      46.7237 
   67000    91.117847   -11299.517   -10433.912   -644.60391     102002.7      46.7237      46.7237      46.7237 
   68000     89.94317   -11306.881   -10452.435   -447.94259     102002.7      46.7237      46.7237      46.7237 
   69000    91.088966   -11301.933   -10436.603   -689.12207     102002.7      46.7237      46.7237      46.7237 
   70000     90.45024   -11310.813    -10451.55   -558.69324     102002.7      46.7237      46.7237      46.7237 
   71000    92.162281   -11306.849   -10431.322    -573.5328     102002.7      46.7237      46.7237      46.7237 
   72000    90.428434   -11288.635   -10429.579   -710.58723     102002.7      46.7237      46.7237      46.7237 
   73000    90.068707   -11318.624   -10462.985   -696.97965     102002.7      46.7237      46.7237      46.7237 
   74000    91.551986   -11311.765   -10442.035   -513.78242     102002.7      46.7237      46.7237      46.7237 
   75000    89.674412   -11307.544   -10455.651    -359.4121     102002.7      46.7237      46.7237      46.7237 
   76000    91.029072   -11296.655   -10431.894   -731.18038     102002.7      46.7237      46.7237      46.7237 
   77000    91.003576   -11332.944   -10468.424   -633.13587     102002.7      46.7237      46.7237      46.7237 
   78000     90.53062   -11297.223   -10437.196    -622.4672     102002.7      46.7237      46.7237      46.7237 
   79000    89.594553   -11309.886   -10458.751    -621.1016     102002.7      46.7237      46.7237      46.7237 
   80000     93.41889   -11298.041   -10410.576   -543.71575     102002.7      46.7237      46.7237      46.7237 
   81000    89.728623   -11308.711   -10456.303    -620.2336     102002.7      46.7237      46.7237      46.7237 
   82000    90.580103    -11288.58   -10428.083   -413.58095     102002.7      46.7237      46.7237      46.7237 
   83000    91.487411   -11315.588   -10446.472   -514.71536     102002.7      46.7237      46.7237      46.7237 
   84000    94.045416   -11342.715   -10449.298   -621.70868     102002.7      46.7237      46.7237      46.7237 
   85000    91.776253   -11303.621   -10431.761   -549.47658     102002.7      46.7237      46.7237      46.7237 
   86000      92.3309   -11304.359    -10427.23   -576.32744     102002.7      46.7237      46.7237      46.7237 
   87000    91.181567   -11315.117   -10448.906   -613.61805     102002.7      46.7237      46.7237      46.7237 
   88000    90.685136   -11298.718   -10437.224   -558.54517     102002.7      46.7237      46.7237      46.7237 
   89000    90.057029   -11302.557    -10447.03   -623.09725     102002.7      46.7237      46.7237      46.7237 
   90000    90.471336   -11294.132   -10434.669   -697.30347     102002.7      46.7237      46.7237      46.7237 
   91000    91.734131   -11319.302   -10447.842   -667.95232     102002.7      46.7237      46.7237      46.7237 
   92000    92.396843   -11304.192   -10426.437   -715.68708     102002.7      46.7237      46.7237      46.7237 
   93000    92.277209   -11319.629   -10443.011   -605.00809     102002.7      46.7237      46.7237      46.7237 
   94000    93.336301   -11301.318   -10414.638   -471.34393     102002.7      46.7237      46.7237      46.7237 
   95000     91.11667   -11308.997   -10443.403   -652.94204     102002.7      46.7237      46.7237      46.7237 
   96000    91.700612   -11308.551    -10437.41   -964.76022     102002.7      46.7237      46.7237      46.7237 
   97000    90.743081   -11273.487   -10411.442   -803.30421     102002.7      46.7237      46.7237      46.7237 
   98000     88.79884   -11329.044   -10485.469   -653.92527     102002.7      46.7237      46.7237      46.7237 
   99000    90.871031   -11305.941    -10442.68   -495.26712     102002.7      46.7237      46.7237      46.7237 
  100000    88.824746   -11303.984   -10460.163   -751.29322     102002.7      46.7237      46.7237      46.7237 
  101000    89.965124   -11296.653   -10441.998   -713.21849     102002.7      46.7237      46.7237      46.7237 
  102000    90.163869   -11296.213   -10439.671     -440.575     102002.7      46.7237      46.7237      46.7237 
  103000    90.616313   -11325.364   -10464.524   -617.00342     102002.7      46.7237      46.7237      46.7237 
  104000    89.451581   -11303.323   -10453.547   -341.97231     102002.7      46.7237      46.7237      46.7237 
  105000    91.185385   -11311.195   -10444.949   -681.44797     102002.7      46.7237      46.7237      46.7237 
  106000    89.354487     -11312.7   -10463.846     -722.672     102002.7      46.7237      46.7237      46.7237 
  107000    93.345317   -11317.829   -10431.063   -678.30643     102002.7      46.7237      46.7237      46.7237 
  108000    92.506083    -11309.53   -10430.737   -432.32112     102002.7      46.7237      46.7237      46.7237 
  109000    91.049174   -11307.654   -10442.702   -505.07815     102002.7      46.7237      46.7237      46.7237 
  110000    92.236694   -11320.607   -10444.373   -784.11358     102002.7      46.7237      46.7237      46.7237 
  111000    90.695964    -11316.72   -10455.123   -637.37703     102002.7      46.7237      46.7237      46.7237 
  112000    94.134491   -11305.662   -10411.399   -671.97407     102002.7      46.7237      46.7237      46.7237 
  113000    90.417517   -11306.772    -10447.82   -762.26202     102002.7      46.7237      46.7237      46.7237 
  114000    94.205052   -11308.998   -10414.065   -736.10435     102002.7      46.7237      46.7237      46.7237 
  115000    91.831933   -11311.034   -10438.646    -208.4762     102002.7      46.7237      46.7237      46.7237 
  116000    92.638171   -11301.493   -10421.446   -500.30227     102002.7      46.7237      46.7237      46.7237 
  117000    93.970134   -11298.498   -10405.796   -235.32734     102002.7      46.7237      46.7237      46.7237 
  118000    92.609301   -11319.678   -10439.905   -236.34563     102002.7      46.7237      46.7237      46.7237 
  119000    91.045091   -11299.301   -10434.387   -431.52339     102002.7      46.7237      46.7237      46.7237 
  120000    91.655822   -11321.784   -10451.068   -481.94538     102002.7      46.7237      46.7237      46.7237 
  121000    92.187833   -11312.369   -10436.599   -654.61107     102002.7      46.7237      46.7237      46.7237 
  122000    91.636977   -11304.935   -10434.398   -868.15208     102002.7      46.7237      46.7237      46.7237 
  123000    89.269928   -11321.353   -10473.303   -727.13408     102002.7      46.7237      46.7237      46.7237 
  124000    90.211089   -11329.847   -10472.856   -547.59076     102002.7      46.7237      46.7237      46.7237 
  125000    93.832864   -11304.018   -10412.621   -618.16043     102002.7      46.7237      46.7237      46.7237 
  126000    90.002121   -11304.902   -10449.896   -573.46033     102002.7      46.7237      46.7237      46.7237 
  127000    89.376607   -11311.671   -10462.608   -789.26701     102002.7      46.7237      46.7237      46.7237 
  128000      92.3623    -11306.93   -10429.503   -656.90814     102002.7      46.7237      46.7237      46.7237 
  129000    90.273643   -11298.245    -10440.66   -683.24793     102002.7      46.7237      46.7237      46.7237 
  130000    89.294068   -11313.645   -10465.365   -676.59709     102002.7      46.7237      46.7237      46.7237 
  131000    90.717679    -11304.37   -10442.566   -454.64193     102002.7      46.7237      46.7237      46.7237 
  132000    93.066634   -11306.462   -10422.344   -531.84425     102002.7      46.7237      46.7237      46.7237 
  133000    90.096142   -11282.545   -10426.646   -706.82955     102002.7      46.7237      46.7237      46.7237 
  134000    90.883781   -11309.257   -10445.875   -388.29461     102002.7      46.7237      46.7237      46.7237 
  135000    89.828367   -11307.463   -10454.107   -486.37285     102002.7      46.7237      46.7237      46.7237 
  136000    90.446541   -11284.861   -10425.633   -645.65888     102002.7      46.7237      46.7237      46.7237 
  137000    90.162596   -11317.624   -10461.093   -452.60771     102002.7      46.7237      46.7237      46.7237 
  138000    91.151191   -11298.736   -10432.815   -675.52131     102002.7      46.7237      46.7237      46.7237 
  139000    89.451509   -11307.354   -10457.579   -683.58803     102002.7      46.7237      46.7237      46.7237 
  140000    91.104943   -11278.775   -10413.292   -639.36755     102002.7      46.7237      46.7237      46.7237 
  141000    90.398875    -11314.94   -10456.165   -836.41006     102002.7      46.7237      46.7237      46.7237 
  142000    93.312439   -11287.124    -10400.67   -745.94823     102002.7      46.7237      46.7237      46.7237 
  143000    91.171647   -11302.827   -10436.711   -748.07846     102002.7      46.7237      46.7237      46.7237 
  144000    92.323051   -11292.723   -10415.669   -672.69005     102002.7      46.7237      46.7237      46.7237 
  145000    89.371855    -11312.81   -10463.792   -286.43331     102002.7      46.7237      46.7237      46.7237 
  146000    90.586938   -11316.585   -10456.023   -632.95512     102002.7      46.7237      46.7237      46.7237 
  147000     90.90085   -11280.074   -10416.531   -456.01294     102002.7      46.7237      46.7237      46.7237 
  148000    92.907516    -11291.96   -10409.354   -636.84336     102002.7      46.7237      46.7237      46.7237 
  149000    93.018418   -11323.775   -10440.114   -726.37825     102002.7      46.7237      46.7237      46.7237 
  150000    94.089481   -11304.966   -10411.131   -733.92975     102002.7      46.7237      46.7237      46.7237 
  151000    88.794996   -11327.427   -10483.888   -547.38857     102002.7      46.7237      46.7237      46.7237 
  152000    90.981045    -11294.82   -10430.515   -496.52073     102002.7      46.7237      46.7237      46.7237 
  153000     93.09553   -11302.167   -10417.774   -487.20445     102002.7      46.7237      46.7237      46.7237 
  154000    91.351043   -11309.505   -10441.685   -647.42725     102002.7      46.7237      46.7237      46.7237 
  155000    89.464319   -11292.252   -10442.355   -622.19111     102002.7      46.7237      46.7237      46.7237 
  156000    91.696719   -11323.187   -10452.083   -560.95746     102002.7      46.7237      46.7237      46.7237 
  157000    92.033127   -11295.871    -10421.57   -518.28096     102002.7      46.7237      46.7237      46.7237 
  158000    89.237771   -11309.559   -10461.814    -726.6995     102002.7      46.7237      46.7237      46.7237 
  159000    88.477288   -11299.975   -10459.455   -526.67579     102002.7      46.7237      46.7237      46.7237 
  160000    91.777137   -11311.108    -10439.24   -500.44294     102002.7      46.7237      46.7237      46.7237 
  161000     90.60998   -11296.817   -10436.036   -462.13708     102002.7      46.7237      46.7237      46.7237 
  162000    91.210193   -11316.703   -10450.221   -530.78713     102002.7      46.7237      46.7237      46.7237 
  163000    91.609999   -11309.355   -10439.074   -606.49601     102002.7      46.7237      46.7237      46.7237 
  164000    91.121391   -11313.534   -10447.895   -591.01085     102002.7      46.7237      46.7237      46.7237 
  165000    90.031001     -11310.3    -10455.02   -543.77144     102002.7      46.7237      46.7237      46.7237 
  166000    89.036464   -11311.248   -10465.415   -581.38444     102002.7      46.7237      46.7237      46.7237 
  167000    90.833037   -11294.724   -10431.825   -420.92204     102002.7      46.7237      46.7237      46.7237 
  168000    90.821352   -11324.129   -10461.341   -998.07905     102002.7      46.7237      46.7237      46.7237 
  169000    90.261091    -11285.83   -10428.364   -331.77151     102002.7      46.7237      46.7237      46.7237 
  170000    92.771519   -11328.129   -10446.814   -613.01224     102002.7      46.7237      46.7237      46.7237 
  171000    91.342521   -11305.469   -10437.729   -482.08367     102002.7      46.7237      46.7237      46.7237 
  172000    92.131697   -11311.413   -10436.176   -258.09067     102002.7      46.7237      46.7237      46.7237 
  173000    92.501998   -11296.017   -10417.262   -563.30315     102002.7      46.7237      46.7237      46.7237 
  174000    88.572772   -11312.832   -10471.405   -539.45498     102002.7      46.7237      46.7237      46.7237 
  175000    90.379251    -11314.81   -10456.221   -789.84425     102002.7      46.7237      46.7237      46.7237 
  176000    90.097537   -11303.566   -10447.654   -697.72673     102002.7      46.7237      46.7237      46.7237 
  177000    92.850561     -11315.2   -10433.135    -649.6731     102002.7      46.7237      46.7237      46.7237 
  178000    92.349253   -11317.512   -10440.208   -852.55306     102002.7      46.7237      46.7237      46.7237 
  179000    91.426399   -11315.298   -10446.762   -932.24163     102002.7      46.7237      46.7237      46.7237 
  180000    91.056757   -11305.677   -10440.652   -934.09961     102002.7      46.7237      46.7237      46.7237 
  181000    89.103037   -11318.005   -10471.541   -836.70954     102002.7      46.7237      46.7237      46.7237 
  182000    89.930952   -11312.992   -10458.662   -787.95599     102002.7      46.7237      46.7237      46.7237 
  183000    91.397046   -11301.631   -10433.373   -722.45334     102002.7      46.7237      46.7237      46.7237 
  184000    90.232701   -11317.663   -10460.466   -733.41305     102002.7      46.7237      46.7237      46.7237 
  185000    89.834215   -11312.585   -10459.174   -663.19685     102002.7      46.7237      46.7237      46.7237 
  186000    90.112139   -11319.799   -10463.748   -477.32657     102002.7      46.7237      46.7237      46.7237 
  187000    90.139261   -11296.727   -10440.418   -594.54111     102002.7      46.7237      46.7237      46.7237 
  188000    91.468432   -11309.185    -10440.25   -551.70546     102002.7      46.7237      46.7237      46.7237 
  189000      88.7943   -11313.422    -10469.89    -624.8449     102002.7      46.7237      46.7237      46.7237 
  190000    89.814906   -11308.616   -10455.389   -669.83593     102002.7      46.7237      46.7237      46.7237 
  191000    91.430916    -11322.89   -10454.311   -749.91412     102002.7      46.7237      46.7237      46.7237 
  192000    92.094847   -11310.871   -10435.985   -642.47251     102002.7      46.7237      46.7237      46.7237 
  193000    90.156086   -11313.667   -10457.198   -614.27417     102002.7      46.7237      46.7237      46.7237 
  194000    89.237604   -11311.369   -10463.626   -833.41608     102002.7      46.7237      46.7237      46.7237 
  195000    92.509257   -11314.641   -10435.818    -669.7058     102002.7      46.7237      46.7237      46.7237 
  196000    91.230245   -11340.159   -10473.486   -691.11569     102002.7      46.7237      46.7237      46.7237 
  197000    89.817792   -11314.008   -10460.754   -416.98939     102002.7      46.7237      46.7237      46.7237 
  198000    93.172897   -11329.036   -10443.908   -508.44564     102002.7      46.7237      46.7237      46.7237 
  199000    89.366942   -11302.957   -10453.985   -576.74467     102002.7      46.7237      46.7237      46.7237 
  200000    90.220166   -11304.862   -10447.785    -746.1247     102002.7      46.7237      46.7237      46.7237 
  201000     89.93567   -11308.019   -10453.644    -649.2383     102002.7      46.7237      46.7237      46.7237 
  202000    93.684572   -11289.358    -10399.37   -437.68196     102002.7      46.7237      46.7237      46.7237 
  203000    90.903398   -11289.837   -10426.269   -486.92093     102002.7      46.7237      46.7237      46.7237 
  204000    92.431229   -11327.552    -10449.47   -596.21578     102002.7      46.7237      46.7237      46.7237 
  205000    91.307639   -11323.846   -10456.438   -890.10521     102002.7      46.7237      46.7237      46.7237 
  206000      93.4491   -11297.286   -10409.534   -744.80583     102002.7      46.7237      46.7237      46.7237 
  207000     91.91218   -11285.579   -10412.428   -893.87561     102002.7      46.7237      46.7237      46.7237 
  208000    91.158168   -11297.495   -10431.507   -271.03929     102002.7      46.7237      46.7237      46.7237 
  209000    93.694871   -11306.673   -10416.586   -607.20376     102002.7      46.7237      46.7237      46.7237 
  210000    90.292498   -11303.145    -10445.38   -662.44417     102002.7      46.7237      46.7237      46.7237 
  211000     91.14041   -11288.292   -10422.473   -321.53751     102002.7      46.7237      46.7237      46.7237 
  212000    92.876127   -11311.139    -10428.83   -563.88877     102002.7      46.7237      46.7237      46.7237 
  213000      92.0952   -11316.797   -10441.907   -514.65807     102002.7      46.7237      46.7237      46.7237 
  214000    90.144294   -11322.387    -10466.03   -550.00132     102002.7      46.7237      46.7237      46.7237 
  215000    91.277031   -11308.589   -10441.472   -945.88888     102002.7      46.7237      46.7237      46.7237 
  216000     90.65416   -11288.509   -10427.309   -672.66084     102002.7      46.7237      46.7237      46.7237 
  217000    89.812437    -11296.55   -10443.346   -600.67682     102002.7      46.7237      46.7237      46.7237 
  218000    89.523828   -11273.651   -10423.189   -341.63023     102002.7      46.7237      46.7237      46.7237 
  219000    91.060216   -11323.761   -10458.703   -346.66805     102002.7      46.7237      46.7237      46.7237 
  220000    91.442745   -11313.606   -10444.914   -565.34748     102002.7      46.7237      46.7237      46.7237 
  221000    90.690704   -11329.601   -10468.054     -717.763     102002.7      46.7237      46.7237      46.7237 
  222000    91.386367   -11323.171   -10455.015   -687.15271     102002.7      46.7237      46.7237      46.7237 
  223000    90.635674    -11308.65   -10447.626   -668.16658     102002.7      46.7237      46.7237      46.7237 
  224000    91.208711   -11307.323   -10440.855    -431.7516     102002.7      46.7237      46.7237      46.7237 
  225000    88.578933   -11299.122   -10457.636   -550.51001     102002.7      46.7237      46.7237      46.7237 
  226000    90.324889   -11330.709   -10472.636   -567.73408     102002.7      46.7237      46.7237      46.7237 
  227000    91.696163   -11309.952   -10438.853   -603.50885     102002.7      46.7237      46.7237      46.7237 
  228000    89.460974   -11313.722   -10463.857   -594.59578     102002.7      46.7237      46.7237      46.7237 
  229000    91.901177   -11322.561   -10449.515   -782.99191     102002.7      46.7237      46.7237      46.7237 
  230000    91.390542    -11308.57   -10440.375   -724.00282     102002.7      46.7237      46.7237      46.7237 
  231000    89.732317   -11305.801   -10453.358    -728.5024     102002.7      46.7237      46.7237      46.7237 
  232000    90.593508    -11330.86   -10470.236    -842.3848     102002.7      46.7237      46.7237      46.7237 
  233000    91.835357   -11309.315   -10436.894   -609.80195     102002.7      46.7237      46.7237      46.7237 
  234000    90.263023    -11306.19   -10448.705   -858.17219     102002.7      46.7237      46.7237      46.7237 
  235000    91.023366   -11299.104   -10434.397    -615.8058     102002.7      46.7237      46.7237      46.7237 
  236000    91.308459   -11309.929   -10442.513   -596.90504     102002.7      46.7237      46.7237      46.7237 
  237000    92.107021   -11321.297   -10446.295    -340.3946     102002.7      46.7237      46.7237      46.7237 
  238000     90.51877   -11295.048   -10435.134   -333.53667     102002.7      46.7237      46.7237      46.7237 
  239000    91.606533   -11305.814   -10435.566   -559.05588     102002.7      46.7237      46.7237      46.7237 
  240000    90.663221   -11294.331   -10433.045   -309.48869     102002.7      46.7237      46.7237      46.7237 
  241000    93.525712   -11322.509   -10434.029   -366.66864     102002.7      46.7237      46.7237      46.7237 
  242000    89.519738   -11329.577   -10479.154   -612.85029     102002.7      46.7237      46.7237      46.7237 
  243000    92.958095   -11308.027    -10424.94    -332.8287     102002.7      46.7237      46.7237      46.7237 
  244000    91.807345   -11318.425    -10446.27   -444.62335     102002.7      46.7237      46.7237      46.7237 
  245000     91.27027   -11342.219   -10475.166    -413.2026     102002.7      46.7237      46.7237      46.7237 
  246000    90.248417   -11315.523   -10458.177   -696.35048     102002.7      46.7237      46.7237      46.7237 
  247000    90.298323   -11304.857   -10447.037   -728.76804     102002.7      46.7237      46.7237      46.7237 
  248000     91.34182   -11315.535   -10447.802   -646.85961     102002.7      46.7237      46.7237      46.7237 
  249000     91.76534   -11316.831   -10445.075    -799.1793     102002.7      46.7237      46.7237      46.7237 
  250000    91.589756   -11312.836   -10442.748   -697.08718     102002.7      46.7237      46.7237      46.7237 
  251000    90.229741   -11309.754   -10452.585   -900.85282     102002.7      46.7237      46.7237      46.7237 
  252000    90.239912   -11294.573   -10437.309   -522.15708     102002.7      46.7237      46.7237      46.7237 
  253000    92.237687   -11274.126   -10397.882   -586.23241     102002.7      46.7237      46.7237      46.7237 
  254000    91.284952   -11313.556   -10446.364   -631.65933     102002.7      46.7237      46.7237      46.7237 
  255000    90.749835   -11292.012   -10429.903   -576.69823     102002.7      46.7237      46.7237      46.7237 
  256000    91.322433   -11324.404   -10456.856   -552.66305     102002.7      46.7237      46.7237      46.7237 
  257000    90.159457   -11308.527   -10452.027   -709.69708     102002.7      46.7237      46.7237      46.7237 
  258000    89.383033   -11298.878   -10449.754   -646.23579     102002.7      46.7237      46.7237      46.7237 
  259000    91.047279    -11325.49   -10460.555   -860.70674     102002.7      46.7237      46.7237      46.7237 
  260000    88.143386   -11306.236   -10468.888   -912.48874     102002.7      46.7237      46.7237      46.7237 
  261000    92.566175   -11312.497   -10433.133   -887.07757     102002.7      46.7237      46.7237      46.7237 
  262000    91.550697   -11314.419   -10444.702   -628.75636     102002.7      46.7237      46.7237      46.7237 
  263000    92.149002   -11297.556   -10422.155    -619.3985     102002.7      46.7237      46.7237      46.7237 
  264000    91.799428   -11308.208   -10436.128   -552.36042     102002.7      46.7237      46.7237      46.7237 
  265000    90.723745     -11314.1   -10452.238   -556.67445     102002.7      46.7237      46.7237      46.7237 
  266000    91.766118   -11326.861   -10455.097   -586.48349     102002.7      46.7237      46.7237      46.7237 
  267000    88.588993   -11310.158   -10468.577   -556.41553     102002.7      46.7237      46.7237      46.7237 
  268000    89.809509   -11336.355   -10483.179   -628.82799     102002.7      46.7237      46.7237      46.7237 
  269000    90.602482   -11320.506   -10459.797   -674.49941     102002.7      46.7237      46.7237      46.7237 
  270000    92.163156   -11314.866   -10439.331   -692.11774     102002.7      46.7237      46.7237      46.7237 
  271000    93.600124   -11322.379   -10433.192   -469.00542     102002.7      46.7237      46.7237      46.7237 
  272000    90.305452   -11288.826   -10430.938   -658.65654     102002.7      46.7237      46.7237      46.7237 
  273000     91.80883   -11340.748   -10468.579   -806.68557     102002.7      46.7237      46.7237      46.7237 
  274000    90.232414   -11313.009   -10455.815   -968.17072     102002.7      46.7237      46.7237      46.7237 
  275000    91.368078   -11318.369   -10450.386   -729.32224     102002.7      46.7237      46.7237      46.7237 
  276000    91.196805   -11308.181   -10441.826   -717.96014     102002.7      46.7237      46.7237      46.7237 
  277000    90.601829   -11318.989   -10458.286   -593.29368     102002.7      46.7237      46.7237      46.7237 
  278000    88.350228   -11307.288   -10467.975   -548.63308     102002.7      46.7237      46.7237      46.7237 
  279000    92.307235   -11292.374    -10415.47   -419.14912     102002.7      46.7237      46.7237      46.7237 
  280000    91.705612   -11284.961   -10413.772   -456.61312     102002.7      46.7237      46.7237      46.7237 
  281000    90.408057   -11339.013   -10480.151   -562.45151     102002.7      46.7237      46.7237      46.7237 
  282000    92.046115   -11309.103   -10434.679   -661.77085     102002.7      46.7237      46.7237      46.7237 
  283000    91.606914   -11306.661    -10436.41    -483.1992     102002.7      46.7237      46.7237      46.7237 
  284000    91.761027   -11322.928   -10451.213   -722.51768     102002.7      46.7237      46.7237      46.7237 
  285000    91.112346   -11308.213    -10442.66   -445.36554     102002.7      46.7237      46.7237      46.7237 
  286000     90.93632   -11305.776   -10441.896   -625.39007     102002.7      46.7237      46.7237      46.7237 
  287000    94.607639   -11311.057   -10412.299   -943.14043     102002.7      46.7237      46.7237      46.7237 
  288000     90.68249    -11321.47       -10460    -416.9384     102002.7      46.7237      46.7237      46.7237 
  289000    91.791956   -11307.467   -10435.458   -853.60469     102002.7      46.7237      46.7237      46.7237 
  290000    90.623092   -11328.585    -10467.68   -613.80176     102002.7      46.7237      46.7237      46.7237 
  291000    90.050153   -11297.588   -10442.125   -529.62559     102002.7      46.7237      46.7237      46.7237 
  292000    90.936419    -11314.44   -10450.559   -750.31114     102002.7      46.7237      46.7237      46.7237 
  293000    88.919281   -11337.042   -10492.323   -621.48371     102002.7      46.7237      46.7237      46.7237 
  294000    90.915141   -11309.492   -10445.812   -740.14084     102002.7      46.7237      46.7237      46.7237 
  295000     93.39952   -11311.401    -10424.12    -735.4033     102002.7      46.7237      46.7237      46.7237 
  296000    92.830878   -11283.605   -10401.727   -504.29679     102002.7      46.7237      46.7237      46.7237 
  297000     91.26375   -11313.499   -10446.508   -647.35688     102002.7      46.7237      46.7237      46.7237 
  298000    92.507857   -11298.712   -10419.902   -755.54078     102002.7      46.7237      46.7237      46.7237 
  299000     91.04893   -11306.633   -10441.682   -861.96066     102002.7      46.7237      46.7237      46.7237 
  300000    92.256212   -11338.586   -10462.166   -755.88856     102002.7      46.7237      46.7237      46.7237 
  301000    90.730719   -11326.513   -10464.585   -497.77526     102002.7      46.7237      46.7237      46.7237 
  302000    91.788169   -11308.791   -10436.818   -425.43244     102002.7      46.7237      46.7237      46.7237 
  303000    92.906442   -11287.439   -10404.843   -665.09388     102002.7      46.7237      46.7237      46.7237 
  304000    89.520755   -11304.606   -10454.173   -549.92139     102002.7      46.7237      46.7237      46.7237 
  305000    93.350138   -11298.648   -10411.836   -441.28401     102002.7      46.7237      46.7237      46.7237 
  306000    92.094514   -11297.329   -10422.445   -645.10224     102002.7      46.7237      46.7237      46.7237 
  307000    92.212408   -11309.457   -10433.454   -680.37363     102002.7      46.7237      46.7237      46.7237 
  308000    89.968829    -11305.24    -10450.55   -559.11899     102002.7      46.7237      46.7237      46.7237 
  309000    89.089583   -11315.692   -10469.355   -725.25226     102002.7      46.7237      46.7237      46.7237 
  310000    91.725308   -11298.431   -10427.055   -416.31364     102002.7      46.7237      46.7237      46.7237 
  311000    89.973571   -11302.159   -10447.425   -821.69475     102002.7      46.7237      46.7237      46.7237 
  312000    89.402957   -11306.708   -10457.394   -636.60566     102002.7      46.7237      46.7237      46.7237 
  313000    90.773129   -11318.114   -10455.784   -719.41944     102002.7      46.7237      46.7237      46.7237 
  314000    91.965983   -11301.456   -10427.794   -593.41074     102002.7      46.7237      46.7237      46.7237 
  315000    91.529458   -11291.201   -10421.685   -644.64687     102002.7      46.7237      46.7237      46.7237 
  316000    91.212855   -11291.005   -10424.497   -704.74134     102002.7      46.7237      46.7237      46.7237 
  317000    91.507675   -11305.317   -10436.008   -889.38895     102002.7      46.7237      46.7237      46.7237 
  318000    92.244907   -11311.782    -10435.47   -1030.4234     102002.7      46.7237      46.7237      46.7237 
  319000    91.835615   -11303.832   -10431.408   -469.80674     102002.7      46.7237      46.7237      46.7237 
  320000    90.948541   -11271.696   -10407.699   -308.90067     102002.7      46.7237      46.7237      46.7237 
  321000    91.080093   -11308.881   -10443.635   -681.25662     102002.7      46.7237      46.7237      46.7237 
  322000    91.291131   -11305.293   -10438.042   -780.79494     102002.7      46.7237      46.7237      46.7237 
  323000    92.008316   -11310.248   -10436.183   -894.67118     102002.7      46.7237      46.7237      46.7237 
  324000    91.133525   -11300.773   -10435.019   -662.24773     102002.7      46.7237      46.7237      46.7237 
  325000    91.680118   -11316.034   -10445.087   -611.04995     102002.7      46.7237      46.7237      46.7237 
  326000    91.939868   -11304.771   -10431.357   -724.88173     102002.7      46.7237      46.7237      46.7237 
  327000    90.270596   -11311.858   -10454.301   -863.51618     102002.7      46.7237      46.7237      46.7237 
  328000    89.453061   -11312.392   -10462.602   -743.67003     102002.7      46.7237      46.7237      46.7237 
  329000    94.020113   -11295.821   -10402.644   -461.62768     102002.7      46.7237      46.7237      46.7237 
  330000    90.718226   -11321.591   -10459.783   -691.75358     102002.7      46.7237      46.7237      46.7237 
  331000    92.196162   -11322.139    -10446.29   -627.75974     102002.7      46.7237      46.7237      46.7237 
  332000    92.843346   -11328.846   -10446.849   -714.62604     102002.7      46.7237      46.7237      46.7237 
  333000    90.909035   -11314.376   -10450.755   -414.21136     102002.7      46.7237      46.7237      46.7237 
  334000    93.138475   -11327.647   -10442.846   -759.95015     102002.7      46.7237      46.7237      46.7237 
  335000    89.117971   -11304.122   -10457.515   -663.34101     102002.7      46.7237      46.7237      46.7237 
  336000    90.839837   -11307.718   -10444.754   -874.76086     102002.7      46.7237      46.7237      46.7237 
  337000    91.486938   -11290.111   -10420.999   -579.25968     102002.7      46.7237      46.7237      46.7237 
  338000    92.353329   -11318.671   -10441.329   -620.23957     102002.7      46.7237      46.7237      46.7237 
  339000    90.562777   -11306.775   -10446.443   -478.58346     102002.7      46.7237      46.7237      46.7237 
  340000    90.683536   -11326.279   -10464.799   -781.33269     102002.7      46.7237      46.7237      46.7237 
  341000    91.680533   -11318.054   -10447.104   -1136.9182     102002.7      46.7237      46.7237      46.7237 
  342000    90.310031   -11310.091    -10452.16   -879.24978     102002.7      46.7237      46.7237      46.7237 
  343000    91.240985   -11307.563   -10440.788    -695.2215     102002.7      46.7237      46.7237      46.7237 
  344000    92.087841   -11304.442   -10429.622   -1023.6316     102002.7      46.7237      46.7237      46.7237 
  345000    91.268891   -11326.061   -10459.021   -817.88466     102002.7      46.7237      46.7237      46.7237 
  346000    90.883776   -11308.556   -10445.175   -817.60274     102002.7      46.7237      46.7237      46.7237 
  347000     91.54538   -11309.083   -10439.416    -449.3987     102002.7      46.7237      46.7237      46.7237 
  348000    88.672713   -11317.168   -10474.791   -534.46255     102002.7      46.7237      46.7237      46.7237 
  349000    92.459535   -11318.738   -10440.387    -586.4755     102002.7      46.7237      46.7237      46.7237 
  350000    89.474008   -11311.589     -10461.6   -422.70538     102002.7      46.7237      46.7237      46.7237 
  351000    90.880097   -11319.198   -10455.852   -642.69132     102002.7      46.7237      46.7237      46.7237 
  352000    92.166233   -11314.392   -10438.828    -719.1081     102002.7      46.7237      46.7237      46.7237 
  353000    89.313641   -11323.237   -10474.771   -625.38431     102002.7      46.7237      46.7237      46.7237 
  354000    92.149968   -11295.604   -10420.194   -544.16102     102002.7      46.7237      46.7237      46.7237 
  355000    91.514581   -11325.072   -10455.698   -732.66811     102002.7      46.7237      46.7237      46.7237 
  356000    91.139042   -11288.136    -10422.33   -790.73376     102002.7      46.7237      46.7237      46.7237 
  357000    93.326612   -11335.175   -10448.587   -549.76162     102002.7      46.7237      46.7237      46.7237 
  358000    90.482808   -11307.972     -10448.4   -550.35302     102002.7      46.7237      46.7237      46.7237 
  359000    89.450468   -11294.442   -10444.676   -566.94863     102002.7      46.7237      46.7237      46.7237 
  360000    91.078628   -11319.005   -10453.773    -515.6226     102002.7      46.7237      46.7237      46.7237 
  361000    89.929214   -11307.384   -10453.071   -488.03662     102002.7      46.7237      46.7237      46.7237 
  362000    89.073809   -11317.545   -10471.358   -749.52456     102002.7      46.7237      46.7237      46.7237 
  363000    92.377176    -11303.56   -10425.992   -823.87134     102002.7      46.7237      46.7237      46.7237 
  364000    91.565001   -11303.523    -10433.67    -399.5089     102002.7      46.7237      46.7237      46.7237 
  365000     90.97037   -11288.539   -10424.335     -504.197     102002.7      46.7237      46.7237      46.7237 
  366000     90.50509   -11302.645   -10442.861   -444.42694     102002.7      46.7237      46.7237      46.7237 
  367000    89.129526   -11310.994   -10464.278    -740.9786     102002.7      46.7237      46.7237      46.7237 
  368000    90.665146   -11319.876   -10458.572   -683.64181     102002.7      46.7237      46.7237      46.7237 
  369000    89.535676   -11335.498   -10484.923   -792.54507     102002.7      46.7237      46.7237      46.7237 
  370000    90.108293   -11302.965   -10446.951   -618.41687     102002.7      46.7237      46.7237      46.7237 
  371000    91.186428   -11307.336   -10441.079   -743.91958     102002.7      46.7237      46.7237      46.7237 
  372000    93.360597   -11305.502   -10418.591   -824.87159     102002.7      46.7237      46.7237      46.7237 
  373000    91.132459   -11313.955   -10448.211   -682.73339     102002.7      46.7237      46.7237      46.7237 
  374000    91.722923   -11311.067   -10439.714   -834.58296     102002.7      46.7237      46.7237      46.7237 
  375000    92.623679   -11303.001   -10423.091   -690.50319     102002.7      46.7237      46.7237      46.7237 
  376000    90.703854   -11327.184   -10465.512   -846.69821     102002.7      46.7237      46.7237      46.7237 
  377000    91.893751    -11322.18   -10449.204   -543.70448     102002.7      46.7237      46.7237      46.7237 
  378000    89.886491   -11314.421   -10460.514   -808.85557     102002.7      46.7237      46.7237      46.7237 
  379000    91.327773   -11315.829    -10448.23   -842.87088     102002.7      46.7237      46.7237      46.7237 
  380000    92.332654   -11291.156    -10414.01   -704.94273     102002.7      46.7237      46.7237      46.7237 
  381000    91.575576   -11326.573   -10456.619   -429.15717     102002.7      46.7237      46.7237      46.7237 
  382000    88.930071   -11307.083   -10462.261   -810.36326     102002.7      46.7237      46.7237      46.7237 
  383000    89.652888   -11303.741   -10452.053   -866.16067     102002.7      46.7237      46.7237      46.7237 
  384000    92.647948   -11304.996   -10424.855    -626.3863     102002.7      46.7237      46.7237      46.7237 
  385000    91.033931   -11305.215   -10440.407   -749.65716     102002.7      46.7237      46.7237      46.7237 
  386000    91.795684   -11318.013   -10445.968   -990.22824     102002.7      46.7237      46.7237      46.7237 
  387000    90.734566   -11320.367   -10458.403   -781.78378     102002.7      46.7237      46.7237      46.7237 
  388000    91.890199   -11294.222    -10421.28   -807.26607     102002.7      46.7237      46.7237      46.7237 
  389000    89.737711   -11297.103   -10444.609   -638.95275     102002.7      46.7237      46.7237      46.7237 
  390000    90.112371   -11296.023   -10439.969   -619.20963     102002.7      46.7237      46.7237      46.7237 
  391000    91.481249   -11301.982   -10432.924   -676.30149     102002.7      46.7237      46.7237      46.7237 
  392000    91.388029   -11297.328   -10429.156   -324.41169     102002.7      46.7237      46.7237      46.7237 
  393000    90.513366   -11300.586   -10440.723   -695.96315     102002.7      46.7237      46.7237      46.7237 
  394000    91.210083   -11342.327   -10475.845   -553.91265     102002.7      46.7237      46.7237      46.7237 
  395000    89.016583   -11312.543   -10466.899   -644.55783     102002.7      46.7237      46.7237      46.7237 
  396000     92.81402   -11319.876   -10438.157   -575.08655     102002.7      46.7237      46.7237      46.7237 
  397000    91.319442   -11329.202   -10461.682   -541.75805     102002.7      46.7237      46.7237      46.7237 
  398000    89.683926    -11321.59   -10469.607     -595.787     102002.7      46.7237      46.7237      46.7237 
  399000    92.285261   -11319.423   -10442.728   -515.34451     102002.7      46.7237      46.7237      46.7237 
  400000    90.376156   -11317.598   -10459.039    -724.1192     102002.7      46.7237      46.7237      46.7237 
  401000    92.424295   -11317.226    -10439.21   -717.85042     102002.7      46.7237      46.7237      46.7237 
  402000    90.261534   -11315.071     -10457.6   -783.81147     102002.7      46.7237      46.7237      46.7237 
  403000    94.439129   -11319.927    -10422.77   -872.82169     102002.7      46.7237      46.7237      46.7237 
  404000    92.183529   -11315.837   -10440.108   -843.23259     102002.7      46.7237      46.7237      46.7237 
  405000    90.451107    -11326.89   -10467.619   -541.87289     102002.7      46.7237      46.7237      46.7237 
  406000    89.545709   -11308.684   -10458.014   -396.32343     102002.7      46.7237      46.7237      46.7237 
  407000    89.974484   -11320.036   -10465.292   -730.32505     102002.7      46.7237      46.7237      46.7237 
  408000    91.047275       -11313   -10448.066   -401.82632     102002.7      46.7237      46.7237      46.7237 
  409000    90.604536   -11296.665   -10435.937   -522.61849     102002.7      46.7237      46.7237      46.7237 
  410000    90.994511   -11325.016   -10460.583   -440.79365     102002.7      46.7237      46.7237      46.7237 
  411000    93.135063   -11286.235   -10401.467   -363.81676     102002.7      46.7237      46.7237      46.7237 
  412000    90.347389   -11297.589   -10439.303   -769.69283     102002.7      46.7237      46.7237      46.7237 
  413000    92.598762   -11311.904   -10432.231   -588.79829     102002.7      46.7237      46.7237      46.7237 
  414000    89.780945   -11305.987   -10453.083   -790.01857     102002.7      46.7237      46.7237      46.7237 
  415000    92.820562   -11292.228   -10410.447    -829.1926     102002.7      46.7237      46.7237      46.7237 
  416000    89.623547   -11309.197   -10457.788   -756.20532     102002.7      46.7237      46.7237      46.7237 
  417000    90.864753    -11305.13   -10441.929   -958.31205     102002.7      46.7237      46.7237      46.7237 
  418000     91.91529   -11310.218   -10437.037   -374.32281     102002.7      46.7237      46.7237      46.7237 
  419000    94.035816   -11320.537   -10427.212   -684.71682     102002.7      46.7237      46.7237      46.7237 
  420000    90.906038   -11315.655   -10452.062   -655.38491     102002.7      46.7237      46.7237      46.7237 
  421000    90.094902   -11320.252   -10464.365   -751.75029     102002.7      46.7237      46.7237      46.7237 
  422000    89.990832    -11286.76   -10431.861   -655.24948     102002.7      46.7237      46.7237      46.7237 
  423000    90.637363    -11324.39   -10463.349   -572.90858     102002.7      46.7237      46.7237      46.7237 
  424000    93.724519   -11320.784   -10430.416   -555.58298     102002.7      46.7237      46.7237      46.7237 
  425000    92.566704   -11329.029    -10449.66   -569.16004     102002.7      46.7237      46.7237      46.7237 
  426000    90.902617   -11316.266   -10452.705   -573.54794     102002.7      46.7237      46.7237      46.7237 
  427000    93.072038   -11319.237   -10435.068   -734.92005     102002.7      46.7237      46.7237      46.7237 
  428000    89.969974   -11317.353   -10462.652    -814.2929     102002.7      46.7237      46.7237      46.7237 
  429000    90.637405   -11318.314   -10457.273   -453.58694     102002.7      46.7237      46.7237      46.7237 
  430000    91.881945   -11308.081   -10435.217    -582.3482     102002.7      46.7237      46.7237      46.7237 
  431000    90.439747   -11306.531   -10447.368   -667.08667     102002.7      46.7237      46.7237      46.7237 
  432000    89.839576   -11308.927   -10455.465   -767.56856     102002.7      46.7237      46.7237      46.7237 
  433000    91.460349   -11323.817   -10454.958   -717.99673     102002.7      46.7237      46.7237      46.7237 
  434000    93.912317    -11323.15   -10430.997   -651.27637     102002.7      46.7237      46.7237      46.7237 
  435000    90.422051   -11287.897   -10428.902   -606.61379     102002.7      46.7237      46.7237      46.7237 
  436000    89.749475   -11310.874   -10458.268   -689.65006     102002.7      46.7237      46.7237      46.7237 
  437000    93.704938   -11314.302    -10424.12   -430.49194     102002.7      46.7237      46.7237      46.7237 
  438000    89.353203   -11309.708   -10460.866   -430.16875     102002.7      46.7237      46.7237      46.7237 
  439000    93.029923   -11304.972   -10421.203   -434.44364     102002.7      46.7237      46.7237      46.7237 
  440000    91.130285   -11313.957   -10448.234   -734.38073     102002.7      46.7237      46.7237      46.7237 
  441000    90.207288    -11323.47   -10466.515   -788.95071     102002.7      46.7237      46.7237      46.7237 
  442000    91.954291   -11307.083   -10433.531   -856.54058     102002.7      46.7237      46.7237      46.7237 
  443000    90.285759   -11310.574   -10452.874   -637.08644     102002.7      46.7237      46.7237      46.7237 
  444000    90.400328   -11321.034   -10462.245   -404.54761     102002.7      46.7237      46.7237      46.7237 
  445000     90.61233   -11308.465   -10447.663   -590.68395     102002.7      46.7237      46.7237      46.7237 
  446000    91.838483   -11320.505   -10448.054   -795.64573     102002.7      46.7237      46.7237      46.7237 
  447000    91.640219   -11332.968     -10462.4   -517.54189     102002.7      46.7237      46.7237      46.7237 
  448000    90.883851   -11301.459   -10438.077   -424.89434     102002.7      46.7237      46.7237      46.7237 
  449000    89.822901   -11312.549   -10459.246    -600.4194     102002.7      46.7237      46.7237      46.7237 
  450000    90.442325   -11295.491   -10436.303   -659.73778     102002.7      46.7237      46.7237      46.7237 
  451000    92.618835   -11283.204    -10403.34   -571.77328     102002.7      46.7237      46.7237      46.7237 
  452000    91.684315    -11300.31   -10429.324   -551.59146     102002.7      46.7237      46.7237      46.7237 
  453000    90.146716   -11301.402   -10445.022   -355.46557     102002.7      46.7237      46.7237      46.7237 
  454000    92.775782   -11305.216   -10423.861   -622.71804     102002.7      46.7237      46.7237      46.7237 
  455000    91.967579   -11308.582   -10434.904   -700.50886     102002.7      46.7237      46.7237      46.7237 
  456000    90.287807   -11322.387   -10464.667   -577.71202     102002.7      46.7237      46.7237      46.7237 
  457000    91.073755   -11310.121   -10444.935   -769.15118     102002.7      46.7237      46.7237      46.7237 
  458000    91.180457   -11325.448   -10459.248   -851.66211     102002.7      46.7237      46.7237      46.7237 
  459000    90.009319   -11315.223   -10460.149   -587.10198     102002.7      46.7237      46.7237      46.7237 
  460000    91.381553   -11317.012   -10448.901   -764.13932     102002.7      46.7237      46.7237      46.7237 
  461000    91.648986   -11299.366   -10428.715   -809.21541     102002.7      46.7237      46.7237      46.7237 
  462000    91.283648   -11291.045   -10423.864   -594.35695     102002.7      46.7237      46.7237      46.7237 
  463000    90.906639   -11315.564   -10451.966   -752.58904     102002.7      46.7237      46.7237      46.7237 
  464000    91.425186   -11308.063   -10439.538   -712.00162     102002.7      46.7237      46.7237      46.7237 
  465000    94.269994   -11300.771   -10405.221    -484.3972     102002.7      46.7237      46.7237      46.7237 
  466000     89.41844   -11299.888   -10450.427   -785.01335     102002.7      46.7237      46.7237      46.7237 
  467000    89.576596     -11301.3   -10450.337   -687.35495     102002.7      46.7237      46.7237      46.7237 
  468000    90.408642   -11304.521   -10445.653   -412.02135     102002.7      46.7237      46.7237      46.7237 
  469000    91.000941   -11297.841   -10433.346   -641.80207     102002.7      46.7237      46.7237      46.7237 
  470000    92.979403   -11322.408   -10439.118   -636.14258     102002.7      46.7237      46.7237      46.7237 
  471000    91.789728   -11325.654   -10453.666   -642.06651     102002.7      46.7237      46.7237      46.7237 
  472000    91.469039   -11318.251    -10449.31   -796.09513     102002.7      46.7237      46.7237      46.7237 
  473000    90.941503   -11301.632   -10437.702   -574.81637     102002.7      46.7237      46.7237      46.7237 
  474000     91.58526   -11292.777   -10422.731   -676.01174     102002.7      46.7237      46.7237      46.7237 
  475000    89.229059   -11284.842    -10437.18   -443.41482     102002.7      46.7237      46.7237      46.7237 
  476000    91.701829   -11313.239   -10442.087   -522.15316     102002.7      46.7237      46.7237      46.7237 
  477000    93.279434   -11321.723   -10435.584   -399.88622     102002.7      46.7237      46.7237      46.7237 
  478000    89.017254   -11289.219   -10443.569   -424.51195     102002.7      46.7237      46.7237      46.7237 
  479000    92.410789   -11330.105   -10452.217   -459.21234     102002.7      46.7237      46.7237      46.7237 
  480000    92.612617   -11316.851   -10437.046   -646.56739     102002.7      46.7237      46.7237      46.7237 
  481000    90.317223   -11309.556   -10451.556   -819.98481     102002.7      46.7237      46.7237      46.7237 
  482000    91.777686   -11303.191   -10431.318   -780.38806     102002.7      46.7237      46.7237      46.7237 
  483000    90.409287   -11312.791   -10453.917    -463.6784     102002.7      46.7237      46.7237      46.7237 
  484000    90.943562   -11311.981   -10448.031   -400.60586     102002.7      46.7237      46.7237      46.7237 
  485000     88.68816   -11293.327   -10450.804   -589.08119     102002.7      46.7237      46.7237      46.7237 
  486000    89.665439   -11297.883   -10446.076    -291.9336     102002.7      46.7237      46.7237      46.7237 
  487000    92.153022   -11296.386   -10420.946   -614.65574     102002.7      46.7237      46.7237      46.7237 
  488000    92.023527   -11330.042   -10455.833   -606.58216     102002.7      46.7237      46.7237      46.7237 
  489000    90.866452   -11299.379   -10436.162    -459.2245     102002.7      46.7237      46.7237      46.7237 
  490000    91.049278   -11325.923   -10460.969    -509.6803     102002.7      46.7237      46.7237      46.7237 
  491000    88.938307     -11322.1     -10477.2   -545.24825     102002.7      46.7237      46.7237      46.7237 
  492000    90.724416   -11293.455   -10431.587   -643.53095     102002.7      46.7237      46.7237      46.7237 
  493000    90.706067   -11309.754   -10448.061    -676.3874     102002.7      46.7237      46.7237      46.7237 
  494000    90.610085   -11322.699   -10461.917   -447.20251     102002.7      46.7237      46.7237      46.7237 
  495000    92.489764   -11309.912   -10431.274   -664.50801     102002.7      46.7237      46.7237      46.7237 
  496000    92.028339   -11306.255       -10432   -600.02042     102002.7      46.7237      46.7237      46.7237 
  497000    87.481165   -11332.197    -10501.14   -630.61185     102002.7      46.7237      46.7237      46.7237 
  498000    92.618518   -11305.823   -10425.962   -530.01609     102002.7      46.7237      46.7237      46.7237 
  499000    90.261256   -11301.278    -10443.81   -819.51798     102002.7      46.7237      46.7237      46.7237 
  500000    90.295729   -11319.848   -10462.053   -380.81167     102002.7      46.7237      46.7237      46.7237 
  500500    89.738777   -11326.798   -10474.294   -747.17721     102002.7      46.7237      46.7237      46.7237 
Loop time of 1911.8 on 16 procs for 500000 steps with 3188 atoms

Performance: 22.596 ns/day, 1.062 hours/ns, 261.533 timesteps/s
99.9% CPU use with 16 MPI tasks x no OpenMP threads

MPI task timing breakdown:
Section |  min time  |  avg time  |  max time  |%varavg| %total
---------------------------------------------------------------
Pair    | 822.4      | 1157.2     | 1452       | 574.2 | 60.53
Bond    | 132.48     | 174.85     | 220.53     | 166.3 |  9.15
Neigh   | 14.752     | 14.803     | 14.856     |   0.7 |  0.77
Comm    | 208.31     | 547.78     | 918.06     | 910.4 | 28.65
Output  | 0.021549   | 0.022202   | 0.026603   |   0.8 |  0.00
Modify  | 8.988      | 10.316     | 12.253     |  33.4 |  0.54
Other   |            | 6.792      |            |       |  0.36

Nlocal:    199.25 ave 232 max 160 min
Histogram: 2 0 1 3 0 3 2 2 0 3
Nghost:    4009.88 ave 4061 max 3950 min
Histogram: 1 0 1 2 3 3 1 3 1 1
Neighs:    11460.6 ave 16406 max 6630 min
Histogram: 4 0 1 1 2 1 1 3 1 2

Total # of neighbors = 183370
Ave neighs/atom = 57.5188
Ave special neighs/atom = 3.61355
Neighbor list builds = 4203
Dangerous builds = 0
Neighbor list info ...
  update every 1 steps, delay 10 steps, check yes
  max neighbors/atom: 2000, page size: 100000
  master list distance cutoff = 16
  ghost atom cutoff = 16
  binsize = 8, bins = 6 6 6
  3 neighbor lists, perpetual/occasional/extra = 3 0 0
  (1) pair buck6d/coul/gauss/dsf, perpetual, skip from (3)
      attributes: half, newton on
      pair build: skip
      stencil: none
      bin: none
  (2) pair lj/cut, perpetual, skip from (3)
      attributes: half, newton on
      pair build: skip
      stencil: none
      bin: none
  (3) neighbor class addition, perpetual
      attributes: half, newton on
      pair build: half/bin/newton
      stencil: half/bin/3d/newton
      bin: standard
Setting up Verlet run ...
  Unit style    : real
  Current step  : 500500
  Time step     : 1
WARNING: Inconsistent image flags (../domain.cpp:786)
Per MPI rank memory allocation (min/avg/max) = 22.79 | 23.24 | 23.44 Mbytes
Step Time TotEng KinEng PotEng E_mol E_pair Temp Pxx Pyy Pzz Pxy Pxz Pyz Cella Cellb Cellc CellAlpha CellBeta CellGamma Volume Press 
  500500       500000   -10474.294    852.50417   -11326.798    4157.0645   -15483.863    89.738777   -691.82248   -984.99967   -564.70946     110.2925    89.337973    67.615351      46.7237      46.7237      46.7237           90           90           90     102002.7   -747.17721 
  501000       500500   -10455.336    862.59863   -11317.934    4195.1337   -15513.068    90.801369   -509.38884   -930.91086   -912.95965   -107.60649   -40.185075    -175.9885      46.7237      46.7237      46.7237           90           90           90     102002.7   -784.41978 
  502000       501500   -10452.556    861.43915   -11313.995    4173.8648    -15487.86    90.679317   -749.03266   -899.04132   -262.26726   -18.406649    55.191729   -20.477032      46.7237      46.7237      46.7237           90           90           90     102002.7   -636.78041 
  503000       502500   -10473.469    854.63003   -11328.099    4180.2503   -15508.349    89.962555   -403.82269   -461.59016   -385.81122   -23.568081    89.733577   -82.416475      46.7237      46.7237      46.7237           90           90           90     102002.7   -417.07469 
  504000       503500   -10483.441    847.92969   -11331.371    4193.4457   -15524.817    89.257245   -999.13794   -850.29846   -624.00083   -44.664799   -106.97766   -5.4994558      46.7237      46.7237      46.7237           90           90           90     102002.7   -824.47908 
  505000       504500   -10438.433    863.98451   -11302.418      4212.01   -15514.428    90.947254   -998.10539   -596.23005   -205.10186   -125.02264   -40.330687    61.097591      46.7237      46.7237      46.7237           90           90           90     102002.7   -599.81244 
  506000       505500   -10461.523    847.15526   -11308.678    4191.2688   -15499.947    89.175724   -355.33782   -862.60434   -800.31403   -119.27814    183.87057   -66.259583      46.7237      46.7237      46.7237           90           90           90     102002.7   -672.75206 
  507000       506500   -10451.111    855.79573   -11306.907     4208.534   -15515.441    90.085263   -1372.6095   -1155.1667   -849.40646   -83.880356    3.1439526   -6.1730008      46.7237      46.7237      46.7237           90           90           90     102002.7   -1125.7276 
  508000       507500   -10451.182    861.76087   -11312.942    4197.7033   -15510.646    90.713183   -429.96963   -114.99422   -714.91776    101.92332    -5.371985   -10.761658      46.7237      46.7237      46.7237           90           90           90     102002.7   -419.96054 
  509000       508500   -10441.908     870.7057   -11312.614    4199.5477   -15512.161    91.654759     -950.491   -775.44049   -786.51607   -327.31161    -69.96476   -97.026639      46.7237      46.7237      46.7237           90           90           90     102002.7   -837.48252 
  510000       509500   -10470.372      877.318    -11347.69    4162.9207   -15510.611    92.350802   -964.30147   -434.07168    -429.1512     189.2691   -31.416812    65.434697      46.7237      46.7237      46.7237           90           90           90     102002.7   -609.17478 
  511000       510500   -10467.253    859.30607   -11326.559    4179.7624   -15506.321    90.454778   -473.27078    -429.6708   -257.05013   -150.25768    -8.744342    34.874424      46.7237      46.7237      46.7237           90           90           90     102002.7    -386.6639 
  512000       511500   -10416.474    877.55586   -11294.029    4211.1468   -15505.176    92.375841   -1133.6993    -1027.875   -665.56722     211.1778    109.21666     -178.558      46.7237      46.7237      46.7237           90           90           90     102002.7    -942.3805 
  513000       512500   -10452.689    858.26394   -11310.953    4213.4396   -15524.392    90.345078   -1071.7881   -748.37352   -955.94532   -33.634821    89.272019    63.591602      46.7237      46.7237      46.7237           90           90           90     102002.7   -925.36896 
  514000       513500   -10466.994    855.12532   -11322.119    4191.7161   -15513.835    90.014692   -803.94671   -26.156073   -662.99411   -225.23271   -52.931219    159.00602      46.7237      46.7237      46.7237           90           90           90     102002.7   -497.69896 
  515000       514500   -10441.568    862.59799   -11304.166    4202.7991   -15506.965    90.801302    -377.5276   -633.79558   -804.58334    26.001189    11.301879     175.1068      46.7237      46.7237      46.7237           90           90           90     102002.7   -605.30218 
  516000       515500   -10454.682    849.88532   -11304.568    4189.2163   -15493.784    89.463104   -572.10782   -397.77258   -392.27812   -154.85379    34.098869    27.583308      46.7237      46.7237      46.7237           90           90           90     102002.7   -454.05284 
  517000       516500   -10466.476    856.11151   -11322.588    4183.5248   -15506.113    90.118503   -716.08493   -250.34501   -589.88463   -227.84983     22.19835   -6.7015026      46.7237      46.7237      46.7237           90           90           90     102002.7   -518.77153 
  518000       517500   -10434.392    880.75468   -11315.146    4189.6429   -15504.789    92.712564   -915.23461   -698.10753   -586.50708    8.6931024   -42.579002    75.804902      46.7237      46.7237      46.7237           90           90           90     102002.7   -733.28307 
  519000       518500   -10410.521    877.91238   -11288.434    4209.7701   -15498.204    92.413371    -1085.432   -335.34791   -338.37864    114.48055    -2.981111   -126.53002      46.7237      46.7237      46.7237           90           90           90     102002.7   -586.38617 
  520000       519500   -10419.337    875.95045   -11295.288     4197.351   -15492.639    92.206848   -627.99373   -1118.3677   -269.12958   -160.13407    54.310923   -152.89454      46.7237      46.7237      46.7237           90           90           90     102002.7   -671.83033 
  521000       520500   -10435.735     869.4055   -11305.141    4190.2954   -15495.436    91.517894   -835.70058   -429.03696   -947.12577    56.926051    79.900089   -96.385059      46.7237      46.7237      46.7237           90           90           90     102002.7   -737.28777 
  522000       521500   -10427.251    885.01093   -11312.262    4186.8798   -15499.141    93.160598   -761.36555    -741.6677   -514.07223    17.343353    228.40087    76.180624      46.7237      46.7237      46.7237           90           90           90     102002.7   -672.36849 
  523000       522500   -10445.089    868.48145    -11313.57    4176.8822   -15490.452    91.420624   -747.28195   -565.72849   -848.21459     11.77712   -5.0267197    105.90151      46.7237      46.7237      46.7237           90           90           90     102002.7   -720.40834 
  524000       523500   -10448.401    865.71873    -11314.12    4175.4076   -15489.527    91.129806   -480.76219   -1068.0477   -1177.5507   -84.456433    126.94227   -132.39544      46.7237      46.7237      46.7237           90           90           90     102002.7   -908.78689 
  525000       524500     -10464.7    843.89265   -11308.592     4182.577   -15491.169    88.832287    -331.7045   -552.28679   -766.79969   -182.01772   -69.136088    101.03797      46.7237      46.7237      46.7237           90           90           90     102002.7   -550.26366 
  526000       525500   -10444.152    860.80299   -11304.955    4180.0055   -15484.961    90.612352   -485.17933   -412.25587   -633.11441    15.587437   -101.61499   -275.43002      46.7237      46.7237      46.7237           90           90           90     102002.7    -510.1832 
  527000       526500   -10461.004    841.36693   -11302.371    4192.6927   -15495.064    88.566416    163.39787   -760.48531   -787.35243   -265.89471    284.36964   -64.078341      46.7237      46.7237      46.7237           90           90           90     102002.7   -461.47995 
  528000       527500   -10472.826    839.32957   -11312.155    4201.3485   -15513.504    88.351954   -599.63086   -516.74981    47.587606   -82.231294   -58.107315     16.98255      46.7237      46.7237      46.7237           90           90           90     102002.7   -356.26435 
  529000       528500   -10451.503    859.37306   -11310.876    4176.5481   -15487.424     90.46183   -346.15421   -464.92218   -514.50001    9.8774481   -120.75869     14.32303      46.7237      46.7237      46.7237           90           90           90     102002.7    -441.8588 
  530000       529500    -10445.04    866.92374   -11311.964     4195.497   -15507.461    91.256652    132.97972   -769.86087   -530.14201   -94.197178    14.704931   -82.380606      46.7237      46.7237      46.7237           90           90           90     102002.7   -389.00772 
  531000       530500   -10459.868    864.94146   -11324.809    4177.1379   -15501.947    91.047988   -431.07473   -565.95362   -561.83298   -225.60811    4.1346734    68.587463      46.7237      46.7237      46.7237           90           90           90     102002.7   -519.62045 
  532000       531500   -10439.377    862.55386   -11301.931    4210.1548   -15512.086    90.796657     -801.076   -571.49246   -887.85398     34.89506    -58.03862   -111.23019      46.7237      46.7237      46.7237           90           90           90     102002.7   -753.47415 
  533000       532500   -10452.133    870.31297   -11322.446    4182.2286   -15504.675    91.613419   -75.552025    -417.2869  -0.77082768     -4.64073    65.299054    -81.89835      46.7237      46.7237      46.7237           90           90           90     102002.7   -164.53659 
  534000       533500   -10453.359    862.49675   -11315.856    4195.2049    -15511.06    90.790645   -610.69652   -603.54306   -406.57443    7.2554287   -16.496184    1.8306227      46.7237      46.7237      46.7237           90           90           90     102002.7   -540.27134 
  535000       534500   -10460.738    857.01382   -11317.752    4192.6486   -15510.401    90.213485   -617.47667   -530.19393   -664.38483   -44.946589    173.15719    122.57482      46.7237      46.7237      46.7237           90           90           90     102002.7   -604.01848 
  536000       535500   -10443.624    880.06187   -11323.686    4194.2084   -15517.894    92.639636     -362.665   -645.84756   -685.63755   -128.46883   -9.0134876    -258.4144      46.7237      46.7237      46.7237           90           90           90     102002.7   -564.71671 
  537000       536500    -10451.79    867.46444   -11319.254    4194.3322   -15513.586    91.313569   -1161.7761   -1027.4015    -743.9605    13.779367    132.15864   -193.62969      46.7237      46.7237      46.7237           90           90           90     102002.7   -977.71271 
  538000       537500   -10486.619    835.99564   -11322.614    4194.0665   -15516.681    88.001008   -793.81694   -776.13795   -329.29896   -121.67289   -21.820208   -154.35153      46.7237      46.7237      46.7237           90           90           90     102002.7   -633.08462 
  539000       538500   -10504.946    826.82372   -11331.769    4194.3883   -15526.158    87.035527    -416.4724   -1020.1452   -725.16053    115.33842   -140.65405   -384.56592      46.7237      46.7237      46.7237           90           90           90     102002.7   -720.59271 
  540000       539500   -10431.666     866.7629   -11298.429    4199.7368   -15498.166    91.239721   -674.03603   -1293.4137   -636.81261   -166.80843   -263.07142   -57.098782      46.7237      46.7237      46.7237           90           90           90     102002.7   -868.08744 
  541000       540500   -10435.066    877.78234   -11312.849    4194.9038   -15507.753    92.399682   -1051.5698   -587.26704   -600.63045   -91.397168    51.501087    11.756217      46.7237      46.7237      46.7237           90           90           90     102002.7    -746.4891 
  542000       541500   -10430.992    866.64566   -11297.638     4210.179   -15507.817     91.22738   -397.60283   -654.02641   -477.09113   -222.55449    13.848208   -138.14212      46.7237      46.7237      46.7237           90           90           90     102002.7   -509.57346 
  543000       542500   -10447.045    875.82758   -11322.873    4173.9395   -15496.812    92.193914   -660.85276   -934.03846    -360.4955    36.362935    211.47268    129.71103      46.7237      46.7237      46.7237           90           90           90     102002.7   -651.79558 
  544000       543500   -10419.667    866.68245    -11286.35    4189.2281   -15475.578    91.231252   -29.566037   -726.42812   -382.50059    66.615977    103.57723    57.673695      46.7237      46.7237      46.7237           90           90           90     102002.7   -379.49825 
  545000       544500   -10420.485    865.30818   -11285.793    4208.1423   -15493.936     91.08659   -721.71966   -475.03364   -820.08004    48.524289    91.083623    39.643139      46.7237      46.7237      46.7237           90           90           90     102002.7   -672.27778 
  546000       545500    -10457.67    858.03951    -11315.71     4179.255   -15494.965    90.321454   -759.99861   -832.73987   -580.36117    192.58127    186.56274   -45.675372      46.7237      46.7237      46.7237           90           90           90     102002.7   -724.36655 
  547000       546500   -10444.835    880.82095   -11325.656    4190.3207   -15515.977    92.719541   -1033.3417   -907.04269   -131.83422    18.231489   -147.95894   -131.17972      46.7237      46.7237      46.7237           90           90           90     102002.7   -690.73953 
  548000       547500   -10423.974     880.6196   -11304.594    4183.0962    -15487.69    92.698345   -1050.3022   -565.30262   -699.11368    118.35466    53.256977   -88.832672      46.7237      46.7237      46.7237           90           90           90     102002.7   -771.57282 
  549000       548500   -10404.329    889.44906   -11293.778    4189.6726    -15483.45    93.627778   -852.58966    -1017.735   -183.71873     68.66338    243.92279    -142.0369      46.7237      46.7237      46.7237           90           90           90     102002.7   -684.68113 
  550000       549500   -10442.607    871.95397   -11314.561    4167.8099   -15482.371    91.786159   -355.36297   -710.23035    -472.2726   -104.82027    11.085171    -194.3102      46.7237      46.7237      46.7237           90           90           90     102002.7   -512.62197 
  551000       550500   -10452.646    863.35773   -11316.004    4187.3927   -15503.397    90.881276    -499.2457   -319.81421   -752.72485   -47.904146    135.32552   -40.623781      46.7237      46.7237      46.7237           90           90           90     102002.7   -523.92826 
  552000       551500   -10436.223     868.4165    -11304.64    4185.5601     -15490.2    91.413787    -448.0953   -518.71586   -713.36825     58.83578    215.64766     176.6863      46.7237      46.7237      46.7237           90           90           90     102002.7    -560.0598 
  553000       552500   -10459.626    842.85168   -11302.477    4199.1926    -15501.67    88.722709   -299.00261   -652.04209    -180.4287    164.34565    32.751648     27.75275      46.7237      46.7237      46.7237           90           90           90     102002.7    -377.1578 
  554000       553500   -10414.105    878.02499    -11292.13    4201.8481   -15493.978    92.425224   -650.70233   -380.58969   -802.87931    73.017746   -30.359481   -230.71002      46.7237      46.7237      46.7237           90           90           90     102002.7   -611.39044 
  555000       554500   -10421.543    869.97862   -11291.522    4199.3064   -15490.828    91.578223    -489.3333   -378.00188   -496.79058   -181.72802    168.04207   -89.989729      46.7237      46.7237      46.7237           90           90           90     102002.7   -454.70859 
[...]
  936000       935500   -10439.932    864.04008   -11303.972     4192.438    -15496.41    90.953103    -413.6315   -775.77998   -470.68157   -297.35518   -118.35557   -16.309099      46.7237      46.7237      46.7237           90           90           90     102002.7   -553.36435 
  937000       936500   -10460.803     852.8852   -11313.689    4183.2655   -15496.954    89.778886   -1095.3854   -560.33613   -676.09238    117.95241   -99.280144   -20.335021      46.7237      46.7237      46.7237           90           90           90     102002.7   -777.27129 
  938000       937500   -10489.843    829.47135   -11319.314    4183.1363   -15502.451    87.314229   -940.85099   -286.06206   -842.24478    245.07919    104.52857    12.718622      46.7237      46.7237      46.7237           90           90           90     102002.7   -689.71928 
  939000       938500   -10436.433    881.83128   -11318.264    4176.9438   -15495.208    92.825893   -902.81358   -700.35254   -1089.3576    3.6079771   -63.459305   -213.60958      46.7237      46.7237      46.7237           90           90           90     102002.7   -897.50792 
  940000       939500   -10456.541    865.99447   -11322.535     4192.484   -15515.019    91.158832    -1002.368   -539.61176   -914.63751    -115.9613   -49.718613   -79.234903      46.7237      46.7237      46.7237           90           90           90     102002.7   -818.87243 
  941000       940500   -10441.047    865.10141   -11306.148    4186.7854   -15492.934    91.064825   -719.11082    -520.8351   -739.91869    -56.67453   -6.6276069    17.263059      46.7237      46.7237      46.7237           90           90           90     102002.7   -659.95487 
  942000       941500   -10451.182    854.69389   -11305.876    4192.3725   -15498.248    89.969278   -472.64095   -865.54418   -518.63753    161.56011    218.58893   -38.751196      46.7237      46.7237      46.7237           90           90           90     102002.7   -618.94089 
  943000       942500    -10453.96     867.9352   -11321.895    4195.2353   -15517.131    91.363123   -891.88638   -359.53152   -783.30818   -28.153827    10.332202   -77.004051      46.7237      46.7237      46.7237           90           90           90     102002.7   -678.24203 
  944000       943500   -10413.983    906.46944   -11320.452    4199.8873   -15520.339    95.419427   -1161.9218   -852.73482    -524.0901    124.14342    22.573239    16.469506      46.7237      46.7237      46.7237           90           90           90     102002.7    -846.2489 
  945000       944500   -10471.532    848.96434   -11320.496    4196.4162   -15516.912    89.366158   -1023.5435   -1032.4772    -731.5078    198.50727   -235.29207    -71.28299      46.7237      46.7237      46.7237           90           90           90     102002.7   -929.17617 
  946000       945500   -10435.212    869.48743     -11304.7    4194.4546   -15499.154    91.526518    -422.8525   -1040.1548   -653.41099    5.7554052    179.96937   -91.509875      46.7237      46.7237      46.7237           90           90           90     102002.7   -705.47277 
  947000       946500   -10456.731    870.97483   -11327.706    4186.4927   -15514.199     91.68309   -622.90411    -649.5355   -695.59485    20.435287    8.1629215    133.68756      46.7237      46.7237      46.7237           90           90           90     102002.7   -656.01149 
  948000       947500   -10471.748    853.77956   -11325.528     4184.776   -15510.304    89.873031   -682.08924   -526.03467   -704.08217    165.45278    57.870648   -16.675577      46.7237      46.7237      46.7237           90           90           90     102002.7   -637.40202 
  949000       948500   -10453.163     873.4783   -11326.641    4176.6293   -15503.271    91.946617   -439.99536   -965.65773   -525.25517    101.77315    217.15453   -223.30834      46.7237      46.7237      46.7237           90           90           90     102002.7   -643.63609 
  950000       949500   -10435.251    853.95987   -11289.211    4204.8951   -15494.106    89.892011   -587.62774   -736.60472   -914.62998    84.179016    -229.1453    12.166742      46.7237      46.7237      46.7237           90           90           90     102002.7   -746.28748 
  951000       950500   -10455.567    875.38174   -11330.949    4189.7625   -15520.712    92.146983   -446.65677   -1061.5575   -123.37834    111.44792    43.673481   -147.49023      46.7237      46.7237      46.7237           90           90           90     102002.7   -543.86421 
  952000       951500   -10450.593    877.29856   -11327.892    4176.3009   -15504.193    92.348757   -539.89809   -584.26027     -753.781    150.52955   -3.9222311    225.35285      46.7237      46.7237      46.7237           90           90           90     102002.7   -625.97979 
  953000       952500   -10414.745    882.28376   -11297.028    4179.6694   -15476.698    92.873523   -824.71295   -735.55587   -729.96357   0.88139809    13.605441    28.887199      46.7237      46.7237      46.7237           90           90           90     102002.7    -763.4108 
  954000       953500   -10444.391    863.78268   -11308.173    4186.2255   -15494.399    90.926009   -732.42594   -971.48638   -248.29554     66.14924   -146.75245   -107.81566      46.7237      46.7237      46.7237           90           90           90     102002.7   -650.73596 
  955000       954500   -10429.718    874.72773   -11304.445    4189.6771   -15494.122    92.078138   -700.14849   -846.27337   -654.27019   -106.91265    143.60244    -225.8062      46.7237      46.7237      46.7237           90           90           90     102002.7   -733.56402 
  956000       955500   -10470.952     854.7214   -11325.673    4179.4046   -15505.078    89.972173   -466.33826   -596.02484   -602.75972    173.64397   -220.66461   -102.76147      46.7237      46.7237      46.7237           90           90           90     102002.7   -555.04094 
  957000       956500   -10438.408    877.32176   -11315.729    4183.8228   -15499.552    92.351198   -536.85882   -727.73971   -606.05686   -273.51332   -57.430333     15.62053      46.7237      46.7237      46.7237           90           90           90     102002.7   -623.55179 
  958000       957500   -10491.603    844.45983   -11336.062    4180.4414   -15516.504     88.89199   -456.74836   -997.39088   -796.10145    87.678077    274.98013   -58.919345      46.7237      46.7237      46.7237           90           90           90     102002.7   -750.08023 
  959000       958500   -10463.575    865.02858   -11328.604    4183.9434   -15512.547    91.057158   -498.70179   -872.69121    -1002.316    2.6063107    128.21858   -94.650598      46.7237      46.7237      46.7237           90           90           90     102002.7   -791.23634 
  960000       959500   -10457.285    854.13063   -11311.415    4186.9217   -15498.337    89.909986   -394.70165   -586.80544   -872.28963   -75.562695    38.551837   -126.63232      46.7237      46.7237      46.7237           90           90           90     102002.7   -617.93224 
  961000       960500   -10433.883    876.15083   -11310.033    4199.4059   -15509.439     92.22794   -427.80396   -644.62375   -631.78934    14.937213   -191.47553   -113.25893      46.7237      46.7237      46.7237           90           90           90     102002.7   -568.07235 
  962000       961500   -10457.394    862.60499   -11319.999    4188.2759   -15508.275    90.802039   -868.95185   -789.29991    -473.3036   -166.91966   -95.384773    207.63546      46.7237      46.7237      46.7237           90           90           90     102002.7   -710.51845 
  963000       962500    -10463.48    870.12199   -11333.602    4186.8499   -15520.452    91.593315    -341.8681   -926.61011   -869.89097    13.902909    194.12041    234.10303      46.7237      46.7237      46.7237           90           90           90     102002.7   -712.78973 
  964000       963500   -10486.424    845.48243   -11331.906    4178.1083   -15510.015    88.999634   -450.49393   -919.55209   -903.11277    -129.7891    53.781552   -93.202902      46.7237      46.7237      46.7237           90           90           90     102002.7    -757.7196 
  965000       964500   -10466.396    873.82257   -11340.219    4179.2606   -15519.479    91.982857   -617.56605   -880.46692   -1098.9817   -92.160055    19.573438   -1.6289435      46.7237      46.7237      46.7237           90           90           90     102002.7   -865.67155 
  966000       965500     -10427.6    893.98506   -11321.585    4181.7291   -15503.314    94.105259   -855.45785   -760.64565    -1143.621    74.031926   -71.693588    52.312202      46.7237      46.7237      46.7237           90           90           90     102002.7   -919.90816 
  967000       966500   -10427.748    888.90126    -11316.65    4196.7012   -15513.351    93.570113   -445.16535   -696.51906   -457.06117    192.28469    86.757089   -8.3505504      46.7237      46.7237      46.7237           90           90           90     102002.7   -532.91519 
  968000       967500    -10418.23    888.13226   -11306.363    4198.9573    -15505.32    93.489165    -655.7377    -1044.792   -363.66043    185.25203   -110.06153      180.692      46.7237      46.7237      46.7237           90           90           90     102002.7   -688.06338 
  969000       968500   -10466.411    853.01563   -11319.427     4186.872   -15506.299    89.792616   -810.22626   -787.52708   -746.84255   -68.920902    81.363922   -215.96264      46.7237      46.7237      46.7237           90           90           90     102002.7   -781.53197 
  970000       969500   -10482.406    858.38646   -11340.792    4175.5021   -15516.294    90.357975   -1015.4988   -921.36993   -1033.3816   -76.302004   -290.33374    126.85478      46.7237      46.7237      46.7237           90           90           90     102002.7   -990.08344 
  971000       970500   -10437.858    875.65979   -11313.518    4201.2096   -15514.728    92.176251   -908.75695   -784.34843   -1142.7952   -74.039464    -192.8237    84.514148      46.7237      46.7237      46.7237           90           90           90     102002.7   -945.30021 
  972000       971500       -10459    863.16254   -11322.163       4179.5   -15501.663     90.86073   -602.74907   -514.28411   -512.85792    76.710329   -118.84143   -58.904001      46.7237      46.7237      46.7237           90           90           90     102002.7   -543.29703 
  973000       972500   -10454.789    852.20101    -11306.99    4202.0004    -15508.99    89.706865    -924.3796   -758.01824   -385.68824    35.612964   -86.660789   -56.470365      46.7237      46.7237      46.7237           90           90           90     102002.7   -689.36203 
  974000       973500    -10446.52    872.93453   -11319.454    4201.6607   -15521.115    91.889377    -740.6756   -844.56668   -1017.7439   -239.25531    104.27408    241.73413      46.7237      46.7237      46.7237           90           90           90     102002.7   -867.66207 
  975000       974500   -10452.325    869.63566   -11321.961    4190.2172   -15512.178    91.542122    -1134.093   -578.32251   -1166.0365    156.57279    83.160268   -107.77143      46.7237      46.7237      46.7237           90           90           90     102002.7   -959.48399 
  976000       975500   -10475.333      858.066   -11333.399    4187.4331   -15520.833    90.324242   -1224.4816   -1050.1745   -906.82229   -15.410117   -19.909695    12.353008      46.7237      46.7237      46.7237           90           90           90     102002.7   -1060.4928 
  977000       976500   -10454.715    879.95534    -11334.67    4186.6249   -15521.295    92.628422   -791.54526   -861.99787    -1144.828    65.420339    130.35708    -42.57182      46.7237      46.7237      46.7237           90           90           90     102002.7   -932.79036 
  978000       977500   -10473.992    845.90051   -11319.893    4183.0307   -15502.923    89.043644   -932.39022   -921.95444   -587.49944   -252.17537   -136.95045   -27.410425      46.7237      46.7237      46.7237           90           90           90     102002.7   -813.94803 
  979000       978500   -10434.463    878.90487   -11313.367    4177.6795   -15491.047    92.517844   -588.17236   -500.57173    -807.8841    57.388117   -45.516038   -135.05758      46.7237      46.7237      46.7237           90           90           90     102002.7    -632.2094 
  980000       979500   -10468.037    855.83957   -11323.876    4198.4863   -15522.363    90.089878   -896.01948   -735.79002   -536.05681   -86.813505   -136.68766    194.89756      46.7237      46.7237      46.7237           90           90           90     102002.7    -722.6221 
  981000       980500    -10446.33    868.24419   -11314.574    4207.0291   -15521.603    91.395649   -361.73054    -725.5835   -472.74687    54.734214   -143.21389   -126.10874      46.7237      46.7237      46.7237           90           90           90     102002.7   -520.02031 
  982000       981500   -10436.811    875.14583   -11311.957    4218.4834   -15530.441     92.12215   -685.26067   -790.61264   -457.17883   -17.356966   -178.31093     47.59474      46.7237      46.7237      46.7237           90           90           90     102002.7   -644.35071 
  983000       982500   -10476.355    857.91119   -11334.266    4166.9254   -15501.191    90.307946   -388.77461    -555.8157    -537.1733    13.538973   -74.378762    92.477278      46.7237      46.7237      46.7237           90           90           90     102002.7    -493.9212 
  984000       983500   -10436.007    873.84782   -11309.854    4199.4244   -15509.279    91.985515   -687.51447    -598.9824   -523.59211   -16.975143    23.783412    185.61114      46.7237      46.7237      46.7237           90           90           90     102002.7   -603.36299 
  985000       984500   -10420.376    886.92009   -11307.296    4205.9384   -15513.235    93.361566   -728.26565   -496.06413   -355.85392    47.184388   -14.581858    60.738782      46.7237      46.7237      46.7237           90           90           90     102002.7    -526.7279 
  986000       985500   -10447.017    870.88461   -11317.901    4181.7693   -15499.671    91.673592   -914.66768   -908.50498   -563.28985   -93.779114  -0.46348449    -89.99979      46.7237      46.7237      46.7237           90           90           90     102002.7    -795.4875 
  987000       986500   -10447.643    869.58116   -11317.224    4184.0985   -15501.322    91.536385   -806.27121   -716.30587   -577.55805   -180.90665    84.754524    214.85894      46.7237      46.7237      46.7237           90           90           90     102002.7   -700.04504 
  988000       987500    -10463.18    856.53301   -11319.713      4191.93   -15511.643    90.162873   -841.83356   -926.08857   -807.44769    74.193318     57.41829    123.98036      46.7237      46.7237      46.7237           90           90           90     102002.7   -858.45661 
  989000       988500    -10459.42    864.78942   -11324.209    4185.2971   -15509.506    91.031982   -685.85367   -574.52429   -885.63442   -40.844361   -231.86444   -32.098989      46.7237      46.7237      46.7237           90           90           90     102002.7   -715.33746 
  990000       989500   -10436.878    881.73473   -11318.613    4185.3936   -15504.007     92.81573   -561.07363   -457.35727   -371.95812    -115.9164   -40.130303    -88.40508      46.7237      46.7237      46.7237           90           90           90     102002.7   -463.46301 
  991000       990500   -10471.607    859.96943   -11331.576    4174.6818   -15506.258    90.524607    -754.3901   -932.40545    -1080.722   -301.21905   -111.18718   -295.60754      46.7237      46.7237      46.7237           90           90           90     102002.7   -922.50583 
  992000       991500   -10460.755    871.38356   -11332.138    4200.6182   -15532.756    91.726115   -950.55996    -477.1869   -890.00895   -251.23167   -108.11746    123.23982      46.7237      46.7237      46.7237           90           90           90     102002.7   -772.58527 
  993000       992500   -10414.768    883.28822   -11298.056    4204.3603   -15502.417    92.979257   -885.43437   -717.76698    -1056.891    46.377139   -29.073057   -71.539469      46.7237      46.7237      46.7237           90           90           90     102002.7   -886.69744 
  994000       993500   -10453.777    872.14077   -11325.917    4177.7349   -15503.652    91.805822   -773.62941   -768.57278   -885.40403    92.089693   -145.59311    5.2921818      46.7237      46.7237      46.7237           90           90           90     102002.7   -809.20207 
  995000       994500   -10412.102    895.00697   -11307.109    4195.9977   -15503.107     94.21283   -322.40563   -605.78104    -827.1711   -156.86907    44.977255   -13.346199      46.7237      46.7237      46.7237           90           90           90     102002.7   -585.11926 
  996000       995500   -10443.351    867.87099   -11311.222    4176.4933   -15487.715    91.356364   -835.64204   -672.52521   -890.49136   -136.69146    176.00499   -50.049578      46.7237      46.7237      46.7237           90           90           90     102002.7   -799.55287 
  997000       996500    -10445.76    875.68634   -11321.447    4194.2706   -15515.717    92.179046     -350.225    -817.9957    -771.2486    126.88947    159.33277    -69.83735      46.7237      46.7237      46.7237           90           90           90     102002.7   -646.48976 
  998000       997500   -10446.075    866.95871   -11313.034    4203.9859    -15517.02    91.260333   -568.26144   -820.97465   -1141.1769   -4.0469713   -77.482632    71.869021      46.7237      46.7237      46.7237           90           90           90     102002.7   -843.47098 
  999000       998500   -10445.879    878.34617   -11324.225    4195.8699   -15520.095    92.459033   -378.74295   -623.78036   -485.84063    -88.11628   -168.10982    155.19287      46.7237      46.7237      46.7237           90           90           90     102002.7   -496.12132 
 1000000       999500   -10486.731    850.92567   -11337.657    4161.9361   -15499.593    89.572617   -645.02601   -682.77539   -669.17359     -45.4064    53.801761     97.29957      46.7237      46.7237      46.7237           90           90           90     102002.7   -665.65833 
 1000500      1000000   -10467.739    846.37628   -11314.116    4192.8353   -15506.951    89.093725    -630.6094   -246.91148   -357.32115   -112.47633    1.6334048   -56.045275      46.7237      46.7237      46.7237           90           90           90     102002.7   -411.61401 
Loop time of 2324.03 on 16 procs for 500000 steps with 3188 atoms

Performance: 18.588 ns/day, 1.291 hours/ns, 215.143 timesteps/s
99.9% CPU use with 16 MPI tasks x no OpenMP threads

MPI task timing breakdown:
Section |  min time  |  avg time  |  max time  |%varavg| %total
---------------------------------------------------------------
Pair    | 1109.3     | 1460.2     | 1808.6     | 651.6 | 62.83
Bond    | 136.06     | 184.1      | 230.51     | 203.5 |  7.92
Neigh   | 14.691     | 14.748     | 14.808     |   0.8 |  0.63
Comm    | 260.64     | 633.07     | 1003.5     |1089.4 | 27.24
Output  | 0.13349    | 0.14107    | 0.14166    |   0.5 |  0.01
Modify  | 23.084     | 24.883     | 27.082     |  27.8 |  1.07
Other   |            | 6.853      |            |       |  0.29

Nlocal:    199.25 ave 223 max 167 min
Histogram: 1 1 2 0 2 2 1 2 3 2
Nghost:    4044.88 ave 4075 max 4019 min
Histogram: 2 3 0 4 1 1 0 2 0 3
Neighs:    11442.3 ave 16092 max 6266 min
Histogram: 3 2 1 2 0 0 1 1 2 4

Total # of neighbors = 183077
Ave neighs/atom = 57.4269
Ave special neighs/atom = 3.61355
Neighbor list builds = 4207
Dangerous builds = 0
Total wall time: 1:10:42
