LAMMPS (30 Mar 2018)
Reading data file ...
  orthogonal box = (0 0 0) to (46.7237 46.7237 46.7237)
  2 by 3 by 4 MPI processor grid
  reading atoms ...
  1728 atoms
  scanning bonds ...
  5 = max bonds/atom
  scanning angles ...
  10 = max angles/atom
  scanning dihedrals ...
  32 = max dihedrals/atom
  scanning impropers ...
  3 = max impropers/atom
  reading bonds ...
  2064 bonds
  reading angles ...
  3696 angles
  reading dihedrals ...
  6240 dihedrals
  reading impropers ...
  1008 impropers
Finding 1-2 1-3 1-4 neighbors ...
  special bond factors lj:   0          0          0         
  special bond factors coul: 0          0          0         
  5 = max # of 1-2 neighbors
  8 = max # of 1-3 neighbors
  20 = max # of 1-4 neighbors
  19 = max # of special neighbors
Finding 1-2 1-3 1-4 neighbors ...
  special bond factors lj:   0          0          1         
  special bond factors coul: 1          1          1         
  5 = max # of 1-2 neighbors
  8 = max # of 1-3 neighbors
  19 = max # of special neighbors
WARNING: Using 'neigh_modify every 1 delay 0 check yes' setting during minimization (../min.cpp:168)
Neighbor list info ...
  update every 1 steps, delay 0 steps, check yes
  max neighbors/atom: 2000, page size: 100000
  master list distance cutoff = 16
  ghost atom cutoff = 16
  binsize = 8, bins = 6 6 6
  3 neighbor lists, perpetual/occasional/extra = 3 0 0
  (1) pair buck6d/coul/gauss/dsf, perpetual, skip from (3)
      attributes: half, newton on
      pair build: skip
      stencil: none
      bin: none
  (2) pair lj/cut, perpetual, skip from (3)
      attributes: half, newton on
      pair build: skip
      stencil: none
      bin: none
  (3) neighbor class addition, perpetual
      attributes: half, newton on
      pair build: half/bin/newton
      stencil: half/bin/3d/newton
      bin: standard
Setting up cg style minimization ...
  Unit style    : real
  Current step  : 0
WARNING: Inconsistent image flags (../domain.cpp:786)
Per MPI rank memory allocation (min/avg/max) = 22.87 | 23.28 | 24.42 Mbytes
Step Temp E_pair E_mol TotEng Press 
       0            0   -11513.385    6482.8914   -5030.4933    6292.7899 
      96            0   -11677.332    4313.0533   -7364.2788   -944.96955 
Loop time of 0.264184 on 24 procs for 96 steps with 1728 atoms

99.8% CPU use with 24 MPI tasks x no OpenMP threads

Minimization stats:
  Stopping criterion = energy tolerance
  Energy initial, next-to-last, final = 
        -5030.49330467     -7364.27875534     -7364.27880511
  Force two-norm initial, final = 2577 0.25852
  Force max component initial, final = 151.958 0.0112603
  Final line search alpha, max atom move = 1 0.0112603
  Iterations, force evaluations = 96 206

MPI task timing breakdown:
Section |  min time  |  avg time  |  max time  |%varavg| %total
---------------------------------------------------------------
Pair    | 0.045723   | 0.12511    | 0.17427    |  10.0 | 47.36
Bond    | 0.01222    | 0.036746   | 0.068689   |   8.8 | 13.91
Neigh   | 0          | 0          | 0          |   0.0 |  0.00
Comm    | 0.017473   | 0.097386   | 0.20066    |  16.3 | 36.86
Output  | 0          | 0          | 0          |   0.0 |  0.00
Modify  | 0          | 0          | 0          |   0.0 |  0.00
Other   |            | 0.004943   |            |       |  1.87

Nlocal:    72 ave 118 max 31 min
Histogram: 4 2 0 2 6 2 2 2 2 2
Nghost:    1965 ave 2164 max 1838 min
Histogram: 6 6 4 0 0 0 0 2 4 2
Neighs:    7848 ave 10429 max 3039 min
Histogram: 1 1 2 0 2 5 1 1 5 6

Total # of neighbors = 188352
Ave neighs/atom = 109
Ave special neighs/atom = 6.66667
Neighbor list builds = 0
Dangerous builds = 0
Neighbor list info ...
  update every 1 steps, delay 10 steps, check yes
  max neighbors/atom: 2000, page size: 100000
  master list distance cutoff = 16
  ghost atom cutoff = 16
  binsize = 8, bins = 6 6 6
  3 neighbor lists, perpetual/occasional/extra = 3 0 0
  (1) pair buck6d/coul/gauss/dsf, perpetual, skip from (3)
      attributes: half, newton on
      pair build: skip
      stencil: none
      bin: none
  (2) pair lj/cut, perpetual, skip from (3)
      attributes: half, newton on
      pair build: skip
      stencil: none
      bin: none
  (3) neighbor class addition, perpetual
      attributes: half, newton on
      pair build: half/bin/newton
      stencil: half/bin/3d/newton
      bin: standard
Setting up Verlet run ...
  Unit style    : real
  Current step  : 96
  Time step     : 1
WARNING: Inconsistent image flags (../domain.cpp:786)
Per MPI rank memory allocation (min/avg/max) = 22.49 | 22.66 | 23.29 Mbytes
Step Temp PotEng TotEng Press Volume Lx Ly Lz 
      96          110   -7364.2788   -6798.0143   -691.19943     102002.7      46.7237      46.7237      46.7237 
    1000    115.96096   -7232.9228   -6635.9721   -885.60512     102002.7      46.7237      46.7237      46.7237 
    2000    109.30941   -7230.2547   -6667.5453   -762.64558     102002.7      46.7237      46.7237      46.7237 
    3000    110.58545   -7207.6341   -6638.3558   -1065.9338     102002.7      46.7237      46.7237      46.7237 
    4000    108.55568   -7218.0582   -6659.2289   -852.18982     102002.7      46.7237      46.7237      46.7237 
    5000    107.97097   -7222.2051   -6666.3858   -1081.9151     102002.7      46.7237      46.7237      46.7237 
    6000    107.92532   -7221.9382   -6666.3539   -713.86116     102002.7      46.7237      46.7237      46.7237 
    7000    108.62138    -7222.149   -6662.9815   -583.49333     102002.7      46.7237      46.7237      46.7237 
    8000    108.12113   -7211.0224   -6654.4301   -708.32241     102002.7      46.7237      46.7237      46.7237 
    9000    111.46267   -7241.3338   -6667.5397   -812.58285     102002.7      46.7237      46.7237      46.7237 
   10000    112.83426   -7230.7084   -6649.8536   -469.85444     102002.7      46.7237      46.7237      46.7237 
   11000    109.66078   -7219.0805   -6654.5623   -791.50965     102002.7      46.7237      46.7237      46.7237 
   12000    113.44368   -7215.1618   -6631.1697   -920.53573     102002.7      46.7237      46.7237      46.7237 
   13000    109.48505   -7191.5096    -6627.896    -835.6475     102002.7      46.7237      46.7237      46.7237 
   14000    109.55642   -7230.2141   -6666.2331   -724.73773     102002.7      46.7237      46.7237      46.7237 
   15000    112.47178   -7237.0522   -6658.0634   -616.82576     102002.7      46.7237      46.7237      46.7237 
   16000    110.30183   -7223.0369   -6655.2186   -553.01731     102002.7      46.7237      46.7237      46.7237 
   17000    109.61967   -7205.5375   -6641.2309   -842.72087     102002.7      46.7237      46.7237      46.7237 
   18000    111.96076   -7222.8762    -6646.518   -625.05088     102002.7      46.7237      46.7237      46.7237 
   19000    106.84635   -7230.7058   -6680.6759   -568.84556     102002.7      46.7237      46.7237      46.7237 
   20000    109.08329     -7211.66   -6650.1146    -766.7435     102002.7      46.7237      46.7237      46.7237 
   21000    108.88517   -7229.6713   -6669.1458   -901.82982     102002.7      46.7237      46.7237      46.7237 
   22000    110.72639   -7234.7378   -6664.7339   -709.46376     102002.7      46.7237      46.7237      46.7237 
   23000    110.48458   -7215.1337   -6646.3747   -708.98691     102002.7      46.7237      46.7237      46.7237 
   24000    109.45921   -7213.5795   -6650.0989   -516.72724     102002.7      46.7237      46.7237      46.7237 
   25000    107.75182   -7219.2038   -6664.5126   -620.73414     102002.7      46.7237      46.7237      46.7237 
   26000    108.31095   -7228.4588   -6670.8894   -370.58834     102002.7      46.7237      46.7237      46.7237 
   27000    109.45803   -7238.4267   -6674.9522   -424.60752     102002.7      46.7237      46.7237      46.7237 
   28000    113.61973   -7221.8985   -6637.0002   -552.46847     102002.7      46.7237      46.7237      46.7237 
   29000     112.3043   -7244.5075   -6666.3807    -772.0456     102002.7      46.7237      46.7237      46.7237 
   30000    108.22283   -7208.7002   -6651.5843   -691.41808     102002.7      46.7237      46.7237      46.7237 
   31000    110.59443    -7222.612   -6653.2874   -768.96666     102002.7      46.7237      46.7237      46.7237 
   32000    111.28225   -7203.3135   -6630.4482   -722.55526     102002.7      46.7237      46.7237      46.7237 
   33000    111.64127   -7225.8312   -6651.1177   -750.83573     102002.7      46.7237      46.7237      46.7237 
   34000     110.4502   -7212.0557   -6643.4736   -280.87248     102002.7      46.7237      46.7237      46.7237 
   35000    113.43797   -7247.2968   -6663.3341   -735.44994     102002.7      46.7237      46.7237      46.7237 
   36000     109.8501   -7221.0422   -6655.5494   -897.05799     102002.7      46.7237      46.7237      46.7237 
   37000     107.8831   -7211.8374   -6656.4704   -765.73629     102002.7      46.7237      46.7237      46.7237 
   38000    112.10854   -7224.0436   -6646.9247   -990.34249     102002.7      46.7237      46.7237      46.7237 
   39000    110.79328   -7223.6491   -6653.3009   -877.83942     102002.7      46.7237      46.7237      46.7237 
   40000    114.34979   -7218.0411   -6629.3845   -850.93642     102002.7      46.7237      46.7237      46.7237 
   41000    110.42282   -7225.7297   -6657.2886   -320.33549     102002.7      46.7237      46.7237      46.7237 
   42000     111.3637   -7219.2482   -6645.9636   -589.72304     102002.7      46.7237      46.7237      46.7237 
   43000    112.38417   -7218.2281   -6639.6902   -649.37892     102002.7      46.7237      46.7237      46.7237 
   44000    107.39258   -7218.5646   -6665.7228   -597.17909     102002.7      46.7237      46.7237      46.7237 
   45000    109.35352   -7227.9075    -6664.971   -861.18273     102002.7      46.7237      46.7237      46.7237 
   46000    111.43741   -7202.7657   -6629.1017   -825.40313     102002.7      46.7237      46.7237      46.7237 
   47000    111.39608   -7227.5973    -6654.146    -719.3653     102002.7      46.7237      46.7237      46.7237 
   48000    110.30476    -7232.823   -6664.9896   -445.73618     102002.7      46.7237      46.7237      46.7237 
   49000    109.37488   -7208.6564     -6645.61   -764.12365     102002.7      46.7237      46.7237      46.7237 
   50000    109.66309   -7224.7918   -6660.2617   -382.43548     102002.7      46.7237      46.7237      46.7237 
   51000    114.43002   -7198.8218   -6609.7522   -413.34477     102002.7      46.7237      46.7237      46.7237 
   52000     108.9455    -7229.807   -6668.9709   -460.12471     102002.7      46.7237      46.7237      46.7237 
   53000    106.94188   -7214.7861   -6664.2644   -330.54943     102002.7      46.7237      46.7237      46.7237 
   54000    106.80403   -7225.2751    -6675.463   -640.33101     102002.7      46.7237      46.7237      46.7237 
   55000    106.76646   -7217.1205   -6667.5019   -605.04773     102002.7      46.7237      46.7237      46.7237 
   56000    108.93818   -7215.2357   -6654.4373   -268.29614     102002.7      46.7237      46.7237      46.7237 
   57000    116.37177   -7229.4421   -6630.3766   -689.62136     102002.7      46.7237      46.7237      46.7237 
   58000    108.60934   -7225.8175   -6666.7119   -327.74193     102002.7      46.7237      46.7237      46.7237 
   59000    108.56871   -7221.8528   -6662.9564   -648.50787     102002.7      46.7237      46.7237      46.7237 
   60000    109.99705   -7194.0832   -6627.8339   -264.48439     102002.7      46.7237      46.7237      46.7237 
   61000    108.35793   -7205.8932   -6648.0818   -564.31832     102002.7      46.7237      46.7237      46.7237 
   62000    111.99054    -7219.797   -6643.2855   -606.38075     102002.7      46.7237      46.7237      46.7237 
   63000    110.89429    -7247.297   -6676.4288   -286.19137     102002.7      46.7237      46.7237      46.7237 
   64000       110.02   -7214.1842   -6647.8167    -569.6331     102002.7      46.7237      46.7237      46.7237 
   65000     108.5319   -7228.8212   -6670.1143   -676.67558     102002.7      46.7237      46.7237      46.7237 
   66000    107.76081   -7228.8642   -6674.1268   -543.38622     102002.7      46.7237      46.7237      46.7237 
   67000    113.87706   -7227.9405   -6641.7175   -679.11341     102002.7      46.7237      46.7237      46.7237 
   68000     113.3023   -7223.0842     -6639.82   -662.42105     102002.7      46.7237      46.7237      46.7237 
   69000    108.33926   -7238.8613    -6681.146   -475.20792     102002.7      46.7237      46.7237      46.7237 
   70000    110.50853   -7223.4229   -6654.5406   -585.47613     102002.7      46.7237      46.7237      46.7237 
   71000    111.35125   -7218.5273   -6645.3068   -697.83865     102002.7      46.7237      46.7237      46.7237 
   72000    110.31441   -7226.7196   -6658.8365   -230.72762     102002.7      46.7237      46.7237      46.7237 
   73000    105.43881   -7224.1347   -6681.3506   -310.55203     102002.7      46.7237      46.7237      46.7237 
   74000    111.08872   -7226.5283   -6654.6592   -411.36676     102002.7      46.7237      46.7237      46.7237 
   75000    110.26229   -7227.5658   -6659.9511   -783.46154     102002.7      46.7237      46.7237      46.7237 
   76000    106.98766   -7220.9029   -6670.1455   -513.68183     102002.7      46.7237      46.7237      46.7237 
   77000    112.16992   -7224.0612   -6646.6263   -688.46297     102002.7      46.7237      46.7237      46.7237 
   78000    112.12495   -7229.6962   -6652.4927   -402.40226     102002.7      46.7237      46.7237      46.7237 
   79000    107.86667   -7225.4012   -6670.1188   -759.62783     102002.7      46.7237      46.7237      46.7237 
   80000    112.11853    -7222.286   -6645.1157   -409.67498     102002.7      46.7237      46.7237      46.7237 
   81000    109.48153   -7223.1265    -6659.531   -604.37068     102002.7      46.7237      46.7237      46.7237 
   82000    105.42209   -7227.1171   -6684.4191   -953.98359     102002.7      46.7237      46.7237      46.7237 
   83000    110.11723   -7213.9545   -6647.0865   -381.08184     102002.7      46.7237      46.7237      46.7237 
   84000    104.94032   -7231.2297   -6691.0118   -473.37332     102002.7      46.7237      46.7237      46.7237 
   85000    107.59567   -7206.9793   -6653.0919   -561.45098     102002.7      46.7237      46.7237      46.7237 
   86000    107.23678   -7212.9371   -6660.8973   -521.65035     102002.7      46.7237      46.7237      46.7237 
   87000     109.2136   -7240.9063   -6678.6901   -456.56466     102002.7      46.7237      46.7237      46.7237 
   88000    107.53935   -7224.7132   -6671.1158   -296.87711     102002.7      46.7237      46.7237      46.7237 
   89000    109.75506   -7205.7662   -6640.7626   -430.20334     102002.7      46.7237      46.7237      46.7237 
   90000    110.50132   -7230.7815   -6661.9363   -774.17137     102002.7      46.7237      46.7237      46.7237 
   91000    116.32043   -7223.7091   -6624.9079   -445.08666     102002.7      46.7237      46.7237      46.7237 
   92000    110.35076   -7213.5293   -6645.4592   -346.82711     102002.7      46.7237      46.7237      46.7237 
   93000    112.15851   -7227.8162     -6650.44   -460.08283     102002.7      46.7237      46.7237      46.7237 
   94000     108.2993   -7219.9167   -6662.4072   -174.44828     102002.7      46.7237      46.7237      46.7237 
   95000    110.51161   -7229.0026   -6660.1045   -408.80255     102002.7      46.7237      46.7237      46.7237 
   96000    109.03778   -7219.2684   -6657.9573   -297.95539     102002.7      46.7237      46.7237      46.7237 
   97000    107.31199   -7238.4899   -6686.0629   -465.79463     102002.7      46.7237      46.7237      46.7237 
   98000    112.66582    -7229.842   -6649.8543   -556.49442     102002.7      46.7237      46.7237      46.7237 
   99000    107.89614   -7228.6777   -6673.2436   -553.54949     102002.7      46.7237      46.7237      46.7237 
  100000    110.31713    -7213.398    -6645.501   -1184.7313     102002.7      46.7237      46.7237      46.7237 
  101000    109.93758   -7243.9453   -6678.0022   -480.64926     102002.7      46.7237      46.7237      46.7237 
  102000    111.61967   -7227.6735   -6653.0712   -589.03772     102002.7      46.7237      46.7237      46.7237 
  103000    111.11891   -7229.1059   -6657.0814   -727.96394     102002.7      46.7237      46.7237      46.7237 
  104000    108.26951   -7219.3844   -6662.0283   -671.78714     102002.7      46.7237      46.7237      46.7237 
  105000    106.89087    -7229.693   -6679.4338   -755.93452     102002.7      46.7237      46.7237      46.7237 
  106000    108.47031   -7223.1777   -6664.7879   -777.82402     102002.7      46.7237      46.7237      46.7237 
  107000    113.53143   -7215.4648    -6631.021   -854.44904     102002.7      46.7237      46.7237      46.7237 
  108000     110.8295    -7222.444   -6651.9094   -794.97869     102002.7      46.7237      46.7237      46.7237 
  109000    109.21581   -7221.6885    -6659.461   -608.88771     102002.7      46.7237      46.7237      46.7237 
  110000    114.92657   -7222.2009   -6630.5751   -469.61888     102002.7      46.7237      46.7237      46.7237 
  111000    108.43411   -7225.9903   -6667.7868     -886.655     102002.7      46.7237      46.7237      46.7237 
  112000    106.19209   -7215.0842   -6668.4223   -945.03238     102002.7      46.7237      46.7237      46.7237 
  113000     108.9503   -7199.9019   -6639.0411   -857.85104     102002.7      46.7237      46.7237      46.7237 
  114000    105.23479   -7222.4971   -6680.7633   -787.94966     102002.7      46.7237      46.7237      46.7237 
  115000    110.85523   -7209.3086   -6638.6415   -842.24178     102002.7      46.7237      46.7237      46.7237 
  116000    110.39636   -7232.0639    -6663.759   -459.86138     102002.7      46.7237      46.7237      46.7237 
  117000    110.41728   -7223.3175   -6654.9049   -558.06977     102002.7      46.7237      46.7237      46.7237 
  118000    110.52015   -7225.4425   -6656.5004   -630.80323     102002.7      46.7237      46.7237      46.7237 
  119000    110.39584   -7209.0455   -6640.7433   -534.71667     102002.7      46.7237      46.7237      46.7237 
  120000     111.6682   -7228.3075   -6653.4553     -734.816     102002.7      46.7237      46.7237      46.7237 
  121000    109.96346   -7213.9177   -6647.8413   -592.88097     102002.7      46.7237      46.7237      46.7237 
  122000    110.50658   -7236.8133    -6667.941   -763.60451     102002.7      46.7237      46.7237      46.7237 
  123000    112.10559   -7231.9132   -6654.8095   -534.17807     102002.7      46.7237      46.7237      46.7237 
  124000    107.27554   -7230.6918   -6678.4524   -735.82365     102002.7      46.7237      46.7237      46.7237 
  125000    111.50475   -7221.6781   -6647.6674   -437.19722     102002.7      46.7237      46.7237      46.7237 
  126000    116.30367   -7220.5455   -6621.8306    -736.0483     102002.7      46.7237      46.7237      46.7237 
  127000    109.20513   -7219.5536    -6657.381   -489.63312     102002.7      46.7237      46.7237      46.7237 
  128000    109.94934   -7196.3261   -6630.3224   -347.60802     102002.7      46.7237      46.7237      46.7237 
  129000    108.75833   -7216.1417   -6656.2691   -854.01225     102002.7      46.7237      46.7237      46.7237 
  130000    109.84546   -7200.3125   -6634.8436   -533.85489     102002.7      46.7237      46.7237      46.7237 
  131000    109.82184   -7226.0922   -6660.7448   -285.10361     102002.7      46.7237      46.7237      46.7237 
  132000    111.35927   -7213.2836   -6640.0218    -606.9305     102002.7      46.7237      46.7237      46.7237 
  133000    109.36532   -7228.8183   -6665.8211   -536.81611     102002.7      46.7237      46.7237      46.7237 
  134000    111.77449   -7221.9784   -6646.5791   -666.41055     102002.7      46.7237      46.7237      46.7237 
  135000    111.86368   -7221.5084     -6645.65   -841.09436     102002.7      46.7237      46.7237      46.7237 
  136000    108.48987   -7228.7219   -6670.2313   -783.81601     102002.7      46.7237      46.7237      46.7237 
  137000     111.9298   -7213.4529   -6637.2541   -662.32182     102002.7      46.7237      46.7237      46.7237 
  138000    107.37257   -7224.0569   -6671.3181   -437.30792     102002.7      46.7237      46.7237      46.7237 
  139000    108.00537   -7221.5107   -6665.5143   -395.95922     102002.7      46.7237      46.7237      46.7237 
  140000    113.04741   -7230.7711    -6648.819   -903.60216     102002.7      46.7237      46.7237      46.7237 
  141000      111.041   -7232.3974    -6660.774   -703.43787     102002.7      46.7237      46.7237      46.7237 
  142000     109.0707   -7222.7566    -6661.276   -675.90157     102002.7      46.7237      46.7237      46.7237 
  143000    111.59309   -7220.7406   -6646.2751   -851.98571     102002.7      46.7237      46.7237      46.7237 
  144000    112.58935   -7217.5018   -6637.9077   -331.22644     102002.7      46.7237      46.7237      46.7237 
  145000    111.15775   -7240.4151   -6668.1907   -884.99087     102002.7      46.7237      46.7237      46.7237 
  146000    110.01531   -7215.5847   -6649.2414   -290.98317     102002.7      46.7237      46.7237      46.7237 
  147000    109.93672   -7212.1799   -6646.2412   -450.10945     102002.7      46.7237      46.7237      46.7237 
  148000    110.59994   -7215.3504   -6645.9975   -672.18331     102002.7      46.7237      46.7237      46.7237 
  149000    109.54808   -7234.3046   -6670.3665   -660.32795     102002.7      46.7237      46.7237      46.7237 
  150000    110.32243   -7210.2825   -6642.3582   -767.45675     102002.7      46.7237      46.7237      46.7237 
  151000    112.14542    -7210.067   -6632.7582   -565.35587     102002.7      46.7237      46.7237      46.7237 
  152000    110.93521   -7233.2713   -6662.1925   -500.84025     102002.7      46.7237      46.7237      46.7237 
  153000    111.32664   -7214.8015   -6641.7077   -465.98025     102002.7      46.7237      46.7237      46.7237 
  154000    108.21228   -7212.0449   -6654.9834   -558.12029     102002.7      46.7237      46.7237      46.7237 
  155000    111.37497   -7224.8792   -6651.5366   -538.99248     102002.7      46.7237      46.7237      46.7237 
  156000    112.98708   -7213.8703   -6632.2288   -609.13888     102002.7      46.7237      46.7237      46.7237 
  157000    110.07612   -7228.6069   -6661.9505   -768.67828     102002.7      46.7237      46.7237      46.7237 
  158000    108.12977   -7201.3925   -6644.7557   -483.36992     102002.7      46.7237      46.7237      46.7237 
  159000    106.62583   -7225.8149   -6676.9202   -533.50551     102002.7      46.7237      46.7237      46.7237 
  160000    110.16634   -7215.9307   -6648.8099   -563.82761     102002.7      46.7237      46.7237      46.7237 
  161000    109.06164   -7200.4462   -6639.0123   -425.66732     102002.7      46.7237      46.7237      46.7237 
  162000    107.72198   -7227.5002   -6672.9626    -585.6614     102002.7      46.7237      46.7237      46.7237 
  163000    109.94294     -7215.37   -6649.3993   -977.49376     102002.7      46.7237      46.7237      46.7237 
  164000    108.30204   -7219.8571   -6662.3335   -869.50688     102002.7      46.7237      46.7237      46.7237 
  165000    112.23379   -7209.3593   -6631.5955   -740.47081     102002.7      46.7237      46.7237      46.7237 
  166000    111.44546   -7227.7664   -6654.0609   -647.27149     102002.7      46.7237      46.7237      46.7237 
  167000    112.40843   -7215.1718   -6636.5091   -556.38363     102002.7      46.7237      46.7237      46.7237 
  168000    112.08919   -7231.3225   -6654.3031   -655.33959     102002.7      46.7237      46.7237      46.7237 
  169000    110.34436   -7220.0688   -6652.0316   -792.43187     102002.7      46.7237      46.7237      46.7237 
  170000    109.27237   -7232.3465   -6669.8277   -640.51629     102002.7      46.7237      46.7237      46.7237 
  171000    110.89293   -7227.4961   -6656.6349   -472.05189     102002.7      46.7237      46.7237      46.7237 
  172000    109.93599   -7221.4842   -6655.5492   -531.17867     102002.7      46.7237      46.7237      46.7237 
  173000    114.29348   -7213.2251   -6624.8584   -377.31049     102002.7      46.7237      46.7237      46.7237 
  174000    112.19501   -7237.1087   -6659.5446   -377.31086     102002.7      46.7237      46.7237      46.7237 
  175000    112.50022   -7207.9124   -6628.7772   -504.35642     102002.7      46.7237      46.7237      46.7237 
  176000    109.76556   -7221.1006   -6656.0429   -589.54335     102002.7      46.7237      46.7237      46.7237 
  177000    112.39848   -7222.7289   -6644.1174   -519.68124     102002.7      46.7237      46.7237      46.7237 
  178000    111.57296   -7214.2383   -6639.8764   -490.22139     102002.7      46.7237      46.7237      46.7237 
  179000    109.48012   -7224.6925   -6661.1043   -611.77721     102002.7      46.7237      46.7237      46.7237 
  180000    108.81855   -7224.3927   -6664.2102   -565.15848     102002.7      46.7237      46.7237      46.7237 
  181000    109.98836   -7217.0979   -6650.8934   -765.03606     102002.7      46.7237      46.7237      46.7237 
  182000    110.33288   -7247.7813   -6679.8032   -629.67212     102002.7      46.7237      46.7237      46.7237 
  183000    107.09771   -7209.2427   -6657.9188   -938.63779     102002.7      46.7237      46.7237      46.7237 
  184000    112.13084   -7223.8026   -6646.5689   -859.18351     102002.7      46.7237      46.7237      46.7237 
  185000    109.27201   -7237.9335   -6675.4166   -550.90397     102002.7      46.7237      46.7237      46.7237 
  186000     113.9719   -7216.5687   -6629.8575   -867.41497     102002.7      46.7237      46.7237      46.7237 
  187000    110.42936   -7222.2687   -6653.7939   -443.65732     102002.7      46.7237      46.7237      46.7237 
  188000    110.35905   -7217.6356   -6649.5227   -811.01985     102002.7      46.7237      46.7237      46.7237 
  189000    110.92446   -7212.3525    -6641.329   -1011.0479     102002.7      46.7237      46.7237      46.7237 
  190000    108.48735   -7230.3178   -6671.8402    -595.2685     102002.7      46.7237      46.7237      46.7237 
  191000    110.65769   -7208.7646   -6639.1144    -659.0121     102002.7      46.7237      46.7237      46.7237 
  192000    108.03424   -7203.7519   -6647.6069   -662.06985     102002.7      46.7237      46.7237      46.7237 
  193000    109.30931   -7220.9777   -6658.2688   -445.88988     102002.7      46.7237      46.7237      46.7237 
  194000    110.04428   -7238.9399   -6672.4475   -598.04925     102002.7      46.7237      46.7237      46.7237 
  195000    108.20977   -7209.4867   -6652.4381   -696.97069     102002.7      46.7237      46.7237      46.7237 
  196000    109.50528   -7243.6484   -6679.9307   -701.69975     102002.7      46.7237      46.7237      46.7237 
  197000     115.3707   -7245.4129   -6651.5008   -684.28065     102002.7      46.7237      46.7237      46.7237 
  198000    108.88993   -7234.4632   -6673.9132   -508.16859     102002.7      46.7237      46.7237      46.7237 
  199000    111.00602   -7222.7119   -6651.2685   -186.86503     102002.7      46.7237      46.7237      46.7237 
  200000    108.49045   -7213.9363   -6655.4427   -800.84793     102002.7      46.7237      46.7237      46.7237 
  201000    110.13464   -7236.0334   -6669.0758   -566.80778     102002.7      46.7237      46.7237      46.7237 
  202000    108.56401   -7233.2084   -6674.3362   -1007.2696     102002.7      46.7237      46.7237      46.7237 
  203000    110.01761    -7227.604   -6661.2489   -470.14925     102002.7      46.7237      46.7237      46.7237 
  204000    108.97193   -7222.0665   -6661.0944    -880.9945     102002.7      46.7237      46.7237      46.7237 
  205000    111.02675   -7215.8555   -6644.3055   -1002.1422     102002.7      46.7237      46.7237      46.7237 
  206000    112.34017   -7204.4976   -6626.1862   -333.58121     102002.7      46.7237      46.7237      46.7237 
  207000    109.46811   -7223.6824    -6660.156   -407.84134     102002.7      46.7237      46.7237      46.7237 
  208000    113.58615    -7226.663   -6641.9376   -455.65704     102002.7      46.7237      46.7237      46.7237 
  209000     113.3201   -7215.0513   -6631.6954   -761.78685     102002.7      46.7237      46.7237      46.7237 
  210000    105.43884   -7230.1649   -6687.3806   -479.56687     102002.7      46.7237      46.7237      46.7237 
  211000     110.7227   -7232.6569    -6662.672   -511.61397     102002.7      46.7237      46.7237      46.7237 
  212000    113.86861   -7215.6455   -6629.4659   -322.09092     102002.7      46.7237      46.7237      46.7237 
  213000    109.71854   -7211.2258   -6646.4102   -758.92639     102002.7      46.7237      46.7237      46.7237 
  214000    108.63901   -7232.4453    -6673.187   -294.39999     102002.7      46.7237      46.7237      46.7237 
  215000    110.73487   -7223.9554   -6653.9079   -515.57738     102002.7      46.7237      46.7237      46.7237 
  216000    111.58995   -7198.7741   -6624.3248   -930.82744     102002.7      46.7237      46.7237      46.7237 
  217000    107.93127   -7216.2545   -6660.6395   -596.97385     102002.7      46.7237      46.7237      46.7237 
  218000    111.61131   -7219.6911   -6645.1319   -829.66983     102002.7      46.7237      46.7237      46.7237 
  219000    112.00845   -7215.2488   -6638.6451   -506.97324     102002.7      46.7237      46.7237      46.7237 
  220000    110.01445   -7217.2647   -6650.9259   -717.27881     102002.7      46.7237      46.7237      46.7237 
  221000    110.30211   -7228.8979   -6661.0782   -784.84638     102002.7      46.7237      46.7237      46.7237 
  222000    111.19973   -7191.0085    -6618.568   -743.83971     102002.7      46.7237      46.7237      46.7237 
  223000    111.95937     -7218.44    -6642.089   -609.01907     102002.7      46.7237      46.7237      46.7237 
  224000    106.72036    -7237.953   -6688.5717   -529.16395     102002.7      46.7237      46.7237      46.7237 
  225000    108.22108   -7206.3285   -6649.2216   -428.99402     102002.7      46.7237      46.7237      46.7237 
  226000    108.11242   -7237.1671   -6680.6196   -516.59445     102002.7      46.7237      46.7237      46.7237 
  227000     108.3735   -7224.9813   -6667.0898    -636.2505     102002.7      46.7237      46.7237      46.7237 
  228000    106.11202   -7223.7685   -6677.5188   -637.86986     102002.7      46.7237      46.7237      46.7237 
  229000    109.91875   -7215.5866   -6649.7403   -644.77916     102002.7      46.7237      46.7237      46.7237 
  230000    107.65562   -7227.8696   -6673.6737   -795.54574     102002.7      46.7237      46.7237      46.7237 
  231000    109.47755   -7211.2697   -6647.6947   -576.88157     102002.7      46.7237      46.7237      46.7237 
  232000    110.61401   -7201.1064   -6631.6811     -409.382     102002.7      46.7237      46.7237      46.7237 
  233000    108.76476   -7225.9394   -6666.0338   -649.61039     102002.7      46.7237      46.7237      46.7237 
  234000    109.84748    -7238.184   -6672.7047   -439.85521     102002.7      46.7237      46.7237      46.7237 
  235000    113.10651   -7219.8961   -6637.6397   -327.67396     102002.7      46.7237      46.7237      46.7237 
  236000    108.88478    -7186.328   -6625.8045   -426.72956     102002.7      46.7237      46.7237      46.7237 
  237000    106.36792   -7211.1999   -6663.6329   -575.35648     102002.7      46.7237      46.7237      46.7237 
  238000    108.66671   -7212.7165   -6653.3156   -489.28096     102002.7      46.7237      46.7237      46.7237 
  239000    107.27212   -7216.9069   -6664.6852   -384.10232     102002.7      46.7237      46.7237      46.7237 
  240000    111.75038   -7229.3468   -6654.0716   -798.03683     102002.7      46.7237      46.7237      46.7237 
  241000    111.41034   -7222.7715   -6649.2468   -738.25946     102002.7      46.7237      46.7237      46.7237 
  242000    111.31267   -7218.1331   -6645.1112   -633.16873     102002.7      46.7237      46.7237      46.7237 
  243000    113.70623   -7213.3096   -6627.9659   -327.34642     102002.7      46.7237      46.7237      46.7237 
  244000    107.66014   -7207.4125   -6653.1933   -451.51575     102002.7      46.7237      46.7237      46.7237 
  245000    111.35671   -7235.1359   -6661.8872   -605.54577     102002.7      46.7237      46.7237      46.7237 
  246000    111.32886   -7207.1595   -6634.0543   -837.89044     102002.7      46.7237      46.7237      46.7237 
  247000    104.38571   -7217.9011   -6680.5382   -552.52131     102002.7      46.7237      46.7237      46.7237 
  248000    113.50778   -7231.3841   -6647.0621   -463.84817     102002.7      46.7237      46.7237      46.7237 
  249000    112.13543   -7211.0377   -6633.7803   -515.59346     102002.7      46.7237      46.7237      46.7237 
  250000    110.30121   -7215.0139   -6647.1988   -643.35629     102002.7      46.7237      46.7237      46.7237 
  251000    111.78908   -7220.5123   -6645.0379    -490.3241     102002.7      46.7237      46.7237      46.7237 
  252000    113.94557   -7216.7122   -6630.1365   -565.39223     102002.7      46.7237      46.7237      46.7237 
  253000    108.03637   -7230.8309   -6674.6749   -642.53823     102002.7      46.7237      46.7237      46.7237 
  254000    112.52166   -7213.0703   -6633.8247   -657.11202     102002.7      46.7237      46.7237      46.7237 
  255000     108.2634   -7221.0952   -6663.7705   -697.49485     102002.7      46.7237      46.7237      46.7237 
  256000    113.15484    -7211.217   -6628.7118   -585.38301     102002.7      46.7237      46.7237      46.7237 
  257000    106.99488   -7214.6437   -6663.8491   -767.54676     102002.7      46.7237      46.7237      46.7237 
  258000    113.25388   -7209.8631   -6626.8481    -497.6839     102002.7      46.7237      46.7237      46.7237 
  259000    109.80339   -7208.1325   -6642.8801   -440.30963     102002.7      46.7237      46.7237      46.7237 
  260000    110.59802   -7237.0442   -6667.7012   -602.11367     102002.7      46.7237      46.7237      46.7237 
  261000    109.23488   -7209.3146   -6646.9888   -445.77103     102002.7      46.7237      46.7237      46.7237 
  262000    108.03038   -7223.8331    -6667.708    -575.4605     102002.7      46.7237      46.7237      46.7237 
  263000    109.61708   -7203.8059   -6639.5127   -402.85506     102002.7      46.7237      46.7237      46.7237 
  264000    107.54896   -7231.4925   -6677.8456   -551.79674     102002.7      46.7237      46.7237      46.7237 
  265000    108.92896   -7195.9396   -6635.1886   -784.79279     102002.7      46.7237      46.7237      46.7237 
  266000    109.93183   -7211.1023   -6645.1888   -425.95132     102002.7      46.7237      46.7237      46.7237 
  267000    106.20345   -7239.7463   -6693.0259   -498.19789     102002.7      46.7237      46.7237      46.7237 
  268000    111.31103   -7207.1193   -6634.1058   -747.03189     102002.7      46.7237      46.7237      46.7237 
  269000    110.89553   -7224.7443   -6653.8698   -758.28623     102002.7      46.7237      46.7237      46.7237 
  270000    109.67392   -7218.4342   -6653.8483   -343.15119     102002.7      46.7237      46.7237      46.7237 
  271000    109.78009   -7225.1189   -6659.9865   -600.90493     102002.7      46.7237      46.7237      46.7237 
  272000    114.14192   -7236.9741   -6649.3876   -667.69246     102002.7      46.7237      46.7237      46.7237 
  273000    107.01712   -7229.3077   -6678.3986   -573.52274     102002.7      46.7237      46.7237      46.7237 
  274000    110.77278   -7220.7612   -6650.5185   -755.93435     102002.7      46.7237      46.7237      46.7237 
  275000    110.39283   -7237.1821   -6668.8954   -520.16765     102002.7      46.7237      46.7237      46.7237 
  276000    111.79203   -7226.3057   -6650.8161   -699.18767     102002.7      46.7237      46.7237      46.7237 
  277000    111.37578   -7207.0273   -6633.6805   -616.96382     102002.7      46.7237      46.7237      46.7237 
  278000    110.32792   -7226.8915   -6658.9389    -724.4517     102002.7      46.7237      46.7237      46.7237 
  279000    107.96019   -7232.8183   -6677.0544   -675.65671     102002.7      46.7237      46.7237      46.7237 
  280000    108.45657   -7221.9219   -6663.6027   -500.35045     102002.7      46.7237      46.7237      46.7237 
  281000    108.74864   -7230.9033   -6671.0806   -371.21556     102002.7      46.7237      46.7237      46.7237 
  282000    110.70875   -7215.1563   -6645.2433   -476.85329     102002.7      46.7237      46.7237      46.7237 
  283000    107.85574   -7235.9949   -6680.7687   -202.12227     102002.7      46.7237      46.7237      46.7237 
  284000    108.50974   -7228.0602   -6669.4673   -763.49832     102002.7      46.7237      46.7237      46.7237 
  285000    111.18169   -7209.1214   -6636.7737   -415.80191     102002.7      46.7237      46.7237      46.7237 
  286000    107.76847   -7221.8383   -6667.0614   -745.62361     102002.7      46.7237      46.7237      46.7237 
  287000    115.63008   -7222.3152   -6627.0679   -527.78614     102002.7      46.7237      46.7237      46.7237 
  288000    108.37041   -7209.2765   -6651.4009    -686.4166     102002.7      46.7237      46.7237      46.7237 
  289000    109.83986   -7236.0044   -6670.5643   -473.85094     102002.7      46.7237      46.7237      46.7237 
  290000    112.10704   -7225.5667   -6648.4554   -721.13667     102002.7      46.7237      46.7237      46.7237 
  291000    110.34056   -7204.4848   -6636.4672   -458.97463     102002.7      46.7237      46.7237      46.7237 
  292000    110.61015   -7228.2161   -6658.8107   -595.09655     102002.7      46.7237      46.7237      46.7237 
  293000    112.46802   -7209.4917   -6630.5222   -1023.4894     102002.7      46.7237      46.7237      46.7237 
  294000    111.59359   -7215.3993   -6640.9312   -719.50511     102002.7      46.7237      46.7237      46.7237 
  295000    107.19135   -7239.3497   -6687.5437    -739.0981     102002.7      46.7237      46.7237      46.7237 
  296000    110.34841    -7228.133   -6660.0749   -712.45727     102002.7      46.7237      46.7237      46.7237 
  297000    111.70162   -7213.2538   -6638.2296   -344.70451     102002.7      46.7237      46.7237      46.7237 
  298000    110.49996   -7212.4748   -6643.6366   -772.44203     102002.7      46.7237      46.7237      46.7237 
  299000    109.24086   -7239.4325   -6677.0759   -480.75642     102002.7      46.7237      46.7237      46.7237 
  300000    110.97753   -7231.6428   -6660.3461   -683.81809     102002.7      46.7237      46.7237      46.7237 
  301000    112.22825   -7230.5795   -6652.8443   -293.61399     102002.7      46.7237      46.7237      46.7237 
  302000    111.40527   -7230.9169   -6657.4183   -366.88582     102002.7      46.7237      46.7237      46.7237 
  303000     113.0816   -7221.4974   -6639.3693   -637.92173     102002.7      46.7237      46.7237      46.7237 
  304000    110.26504   -7213.2354   -6645.6065   -461.39747     102002.7      46.7237      46.7237      46.7237 
  305000    107.10821   -7208.6504   -6657.2725   -914.30269     102002.7      46.7237      46.7237      46.7237 
  306000    106.10421   -7216.9809   -6670.7714   -705.31506     102002.7      46.7237      46.7237      46.7237 
  307000     109.8879   -7210.3593   -6644.6719   -637.00319     102002.7      46.7237      46.7237      46.7237 
  308000    110.22714   -7219.9252   -6652.4915   -769.38901     102002.7      46.7237      46.7237      46.7237 
  309000    109.63921   -7234.7331   -6670.3259   -284.07083     102002.7      46.7237      46.7237      46.7237 
  310000    106.96888   -7212.8184   -6662.1577   -807.83706     102002.7      46.7237      46.7237      46.7237 
  311000    113.27927   -7213.0024   -6629.8567   -588.94563     102002.7      46.7237      46.7237      46.7237 
  312000    107.53153   -7219.4164   -6665.8593   -527.52961     102002.7      46.7237      46.7237      46.7237 
  313000    109.21194   -7211.3534   -6649.1458   -745.20572     102002.7      46.7237      46.7237      46.7237 
  314000    105.73548   -7227.4804    -6683.169   -569.64546     102002.7      46.7237      46.7237      46.7237 
  315000    109.17707   -7209.5525   -6647.5243    -670.7921     102002.7      46.7237      46.7237      46.7237 
  316000    110.94671   -7228.3762   -6657.2382    -513.7216     102002.7      46.7237      46.7237      46.7237 
  317000    109.58402   -7239.0638   -6674.9407   -814.88164     102002.7      46.7237      46.7237      46.7237 
  318000    111.40589   -7214.1649   -6640.6631   -619.92571     102002.7      46.7237      46.7237      46.7237 
  319000    108.78065   -7219.9874   -6659.9999   -501.86345     102002.7      46.7237      46.7237      46.7237 
  320000    112.43705   -7222.5215   -6643.7115   -738.55055     102002.7      46.7237      46.7237      46.7237 
  321000    111.31382   -7231.6558    -6658.628   -366.56229     102002.7      46.7237      46.7237      46.7237 
  322000     108.7093   -7237.2313   -6677.6111   -570.38967     102002.7      46.7237      46.7237      46.7237 
  323000    109.77844   -7224.3679   -6659.2439   -538.52998     102002.7      46.7237      46.7237      46.7237 
  324000    115.25307   -7208.9459   -6615.6394   -823.57524     102002.7      46.7237      46.7237      46.7237 
  325000    108.65021    -7219.544    -6660.228   -358.70047     102002.7      46.7237      46.7237      46.7237 
  326000    110.09089   -7214.3525   -6647.6201   -462.12805     102002.7      46.7237      46.7237      46.7237 
  327000    111.05267    -7205.927   -6634.2435   -527.62855     102002.7      46.7237      46.7237      46.7237 
  328000    110.52086   -7217.9722   -6649.0264   -425.82336     102002.7      46.7237      46.7237      46.7237 
  329000    109.07759   -7235.9252   -6674.4092   -201.53144     102002.7      46.7237      46.7237      46.7237 
  330000    110.73905   -7216.3507   -6646.2817   -400.99455     102002.7      46.7237      46.7237      46.7237 
  331000    110.62661   -7214.8106   -6645.3204   -710.02103     102002.7      46.7237      46.7237      46.7237 
  332000    108.11961   -7214.0131   -6657.4285   -422.47151     102002.7      46.7237      46.7237      46.7237 
  333000    109.60588   -7207.0317   -6642.7961   -643.20086     102002.7      46.7237      46.7237      46.7237 
  334000    106.52242    -7210.787   -6662.4246   -612.94112     102002.7      46.7237      46.7237      46.7237 
  335000    110.32387   -7224.2359   -6656.3042    -1077.515     102002.7      46.7237      46.7237      46.7237 
  336000    111.19784    -7227.896   -6655.4652   -952.65526     102002.7      46.7237      46.7237      46.7237 
  337000    112.40734    -7232.096   -6653.4389   -862.64202     102002.7      46.7237      46.7237      46.7237 
  338000    109.43927   -7213.9126   -6650.5347   -639.91979     102002.7      46.7237      46.7237      46.7237 
  339000    111.79714   -7232.2095   -6656.6936   -867.22596     102002.7      46.7237      46.7237      46.7237 
  340000    109.47928   -7206.0343   -6642.4504   -702.11464     102002.7      46.7237      46.7237      46.7237 
  341000    107.15764   -7217.8893   -6666.2569   -729.03466     102002.7      46.7237      46.7237      46.7237 
  342000     108.7291   -7217.1334   -6657.4113   -702.34646     102002.7      46.7237      46.7237      46.7237 
  343000     110.5581   -7216.0227   -6646.8852   -770.90786     102002.7      46.7237      46.7237      46.7237 
  344000    111.90912   -7193.7333   -6617.6409   -793.70347     102002.7      46.7237      46.7237      46.7237 
  345000    110.78765   -7231.8108   -6661.4916   -673.84797     102002.7      46.7237      46.7237      46.7237 
  346000    108.65854   -7232.7056   -6673.3467   -742.75315     102002.7      46.7237      46.7237      46.7237 
  347000     109.6706   -7211.7622   -6647.1934    -620.0287     102002.7      46.7237      46.7237      46.7237 
  348000    110.01603   -7219.2562   -6652.9092   -899.88582     102002.7      46.7237      46.7237      46.7237 
  349000    109.83971   -7210.3541   -6644.9148    -592.8539     102002.7      46.7237      46.7237      46.7237 
  350000    110.56095   -7205.2777   -6636.1256   -435.71416     102002.7      46.7237      46.7237      46.7237 
  351000     105.2424    -7198.309    -6656.536   -297.17081     102002.7      46.7237      46.7237      46.7237 
  352000    111.96513     -7215.42   -6639.0393   -557.09403     102002.7      46.7237      46.7237      46.7237 
  353000    108.52703   -7228.0752   -6669.3933   -877.94955     102002.7      46.7237      46.7237      46.7237 
  354000    111.30591   -7218.2095   -6645.2224   -651.55577     102002.7      46.7237      46.7237      46.7237 
  355000    109.62351   -7211.4226   -6647.0963   -455.52955     102002.7      46.7237      46.7237      46.7237 
  356000    111.50381   -7232.0844   -6658.0785   -658.72915     102002.7      46.7237      46.7237      46.7237 
  357000    109.87926   -7218.8972   -6653.2543   -437.35473     102002.7      46.7237      46.7237      46.7237 
  358000    110.18798   -7221.9915   -6654.7593   -576.04709     102002.7      46.7237      46.7237      46.7237 
  359000    108.21036   -7231.3885   -6674.3369   -796.71757     102002.7      46.7237      46.7237      46.7237 
  360000    113.43274   -7224.0878    -6640.152   -937.38836     102002.7      46.7237      46.7237      46.7237 
  361000     106.4005   -7223.3087    -6675.574    -947.5262     102002.7      46.7237      46.7237      46.7237 
  362000    111.69523   -7222.5359   -6647.5446   -623.16287     102002.7      46.7237      46.7237      46.7237 
  363000    108.78675   -7221.3544   -6661.3355   -634.97922     102002.7      46.7237      46.7237      46.7237 
  364000    112.66455   -7212.0221   -6632.0409    -692.6417     102002.7      46.7237      46.7237      46.7237 
  365000    107.54101   -7214.7247   -6661.1187   -699.06279     102002.7      46.7237      46.7237      46.7237 
  366000    109.07038   -7226.4682   -6664.9893   -579.87393     102002.7      46.7237      46.7237      46.7237 
  367000    111.38663   -7218.3603   -6644.9577   -632.15374     102002.7      46.7237      46.7237      46.7237 
  368000    108.75527   -7231.5155   -6671.6587   -465.98943     102002.7      46.7237      46.7237      46.7237 
  369000    108.39251   -7219.7111   -6661.7217   -553.43066     102002.7      46.7237      46.7237      46.7237 
  370000    104.65708   -7226.8418   -6688.0819   -514.88574     102002.7      46.7237      46.7237      46.7237 
  371000    110.76522     -7219.74   -6649.5363   -759.73689     102002.7      46.7237      46.7237      46.7237 
  372000    109.83606   -7248.6102   -6683.1896   -737.91831     102002.7      46.7237      46.7237      46.7237 
  373000    108.88472   -7224.5121   -6663.9889   -670.93271     102002.7      46.7237      46.7237      46.7237 
  374000    111.97035   -7208.5789   -6632.1713   -518.95201     102002.7      46.7237      46.7237      46.7237 
  375000    111.70766   -7220.2641   -6645.2088   -486.61965     102002.7      46.7237      46.7237      46.7237 
  376000    104.12626   -7241.2917   -6705.2643   -685.64209     102002.7      46.7237      46.7237      46.7237 
  377000    111.69915   -7224.1541   -6649.1427   -516.51139     102002.7      46.7237      46.7237      46.7237 
  378000    107.55194   -7237.1759   -6683.5137   -496.43892     102002.7      46.7237      46.7237      46.7237 
  379000    110.87098   -7224.7653   -6654.0171   -548.33401     102002.7      46.7237      46.7237      46.7237 
  380000    112.13835   -7211.3603   -6634.0878   -670.22245     102002.7      46.7237      46.7237      46.7237 
  381000    112.76105   -7242.1339   -6661.6559   -523.63824     102002.7      46.7237      46.7237      46.7237 
  382000    111.57841   -7206.5821   -6632.1922   -728.97953     102002.7      46.7237      46.7237      46.7237 
  383000    109.68414   -7204.8329   -6640.1944   -293.63743     102002.7      46.7237      46.7237      46.7237 
  384000    109.54085    -7211.325   -6647.4242    -762.9768     102002.7      46.7237      46.7237      46.7237 
  385000    112.15591   -7220.9978    -6643.635    -645.9857     102002.7      46.7237      46.7237      46.7237 
  386000    109.98873   -7233.2244   -6667.0179   -618.59489     102002.7      46.7237      46.7237      46.7237 
  387000    111.80045   -7227.2737   -6651.7407   -607.86543     102002.7      46.7237      46.7237      46.7237 
  388000    108.29757   -7223.1731   -6665.6724   -723.86479     102002.7      46.7237      46.7237      46.7237 
  389000    111.40513   -7223.3934   -6649.8955   -764.39797     102002.7      46.7237      46.7237      46.7237 
  390000    111.29615    -7225.372   -6652.4351   -822.13723     102002.7      46.7237      46.7237      46.7237 
  391000    109.54758   -7238.8784   -6674.9429   -489.62502     102002.7      46.7237      46.7237      46.7237 
  392000    113.88147   -7231.9693   -6645.7235    -479.8374     102002.7      46.7237      46.7237      46.7237 
  393000     104.7495   -7219.1519   -6679.9162   -933.87382     102002.7      46.7237      46.7237      46.7237 
  394000     113.4786   -7230.5384   -6646.3665   -608.00255     102002.7      46.7237      46.7237      46.7237 
  395000    109.90651    -7225.239   -6659.4558   -670.11013     102002.7      46.7237      46.7237      46.7237 
  396000    112.44836   -7221.3004   -6642.4321   -521.43777     102002.7      46.7237      46.7237      46.7237 
  397000    106.53346   -7226.0869   -6677.6677   -635.81438     102002.7      46.7237      46.7237      46.7237 
  398000    113.88196    -7213.771   -6627.5227   -888.70802     102002.7      46.7237      46.7237      46.7237 
  399000    110.10891    -7233.232   -6666.4069   -593.10196     102002.7      46.7237      46.7237      46.7237 
  400000    112.67778   -7226.9673    -6646.918   -609.65676     102002.7      46.7237      46.7237      46.7237 
  401000    108.63435   -7236.7358   -6677.5015   -727.24514     102002.7      46.7237      46.7237      46.7237 
  402000    110.01293   -7219.5725   -6653.2415   -103.52332     102002.7      46.7237      46.7237      46.7237 
  403000    113.01977   -7184.0161   -6602.2063   -337.33315     102002.7      46.7237      46.7237      46.7237 
  404000    107.01529    -7231.899   -6680.9994   -334.59889     102002.7      46.7237      46.7237      46.7237 
  405000    112.00604   -7228.4719   -6651.8806   -176.85992     102002.7      46.7237      46.7237      46.7237 
  406000    106.72277   -7215.4224   -6666.0286   -697.84171     102002.7      46.7237      46.7237      46.7237 
  407000    109.77529   -7211.1834   -6646.0757   -467.00298     102002.7      46.7237      46.7237      46.7237 
  408000    111.42361   -7217.1499   -6643.5568   -478.55936     102002.7      46.7237      46.7237      46.7237 
  409000    113.15176   -7226.9408   -6644.4515   -463.27691     102002.7      46.7237      46.7237      46.7237 
  410000    109.29144   -7223.2627   -6660.6458   -492.62233     102002.7      46.7237      46.7237      46.7237 
  411000    106.48127    -7219.404   -6671.2535   -594.33538     102002.7      46.7237      46.7237      46.7237 
  412000    111.65533   -7205.0961   -6630.3102    -701.9586     102002.7      46.7237      46.7237      46.7237 
  413000    111.11748   -7221.9759   -6649.9588   -708.84778     102002.7      46.7237      46.7237      46.7237 
  414000    116.61595   -7231.8859   -6631.5634   -623.05803     102002.7      46.7237      46.7237      46.7237 
  415000      107.363    -7217.617   -6664.9274    -436.3336     102002.7      46.7237      46.7237      46.7237 
  416000    111.41139   -7214.5119   -6640.9818   -588.82569     102002.7      46.7237      46.7237      46.7237 
  417000     108.4298   -7227.1948   -6669.0135    -626.0397     102002.7      46.7237      46.7237      46.7237 
  418000    109.60933   -7219.5103   -6655.2569   -271.62187     102002.7      46.7237      46.7237      46.7237 
  419000     112.5712   -7238.4637    -6658.963   -634.58383     102002.7      46.7237      46.7237      46.7237 
  420000    111.04681   -7215.0426   -6643.3893   -744.43661     102002.7      46.7237      46.7237      46.7237 
  421000    107.63499   -7223.2543   -6669.1645   -678.90987     102002.7      46.7237      46.7237      46.7237 
  422000    115.56338    -7228.615   -6633.7111   -420.28397     102002.7      46.7237      46.7237      46.7237 
  423000    109.30524   -7227.2842   -6664.5963   -807.21798     102002.7      46.7237      46.7237      46.7237 
  424000    109.72411   -7232.0824   -6667.2382   -568.65584     102002.7      46.7237      46.7237      46.7237 
  425000    110.81263   -7209.7419   -6639.2942   -536.64129     102002.7      46.7237      46.7237      46.7237 
  426000    108.86818   -7229.0549   -6668.6169   -788.70347     102002.7      46.7237      46.7237      46.7237 
  427000    111.63117   -7211.7864   -6637.1249   -771.29819     102002.7      46.7237      46.7237      46.7237 
  428000    111.58182   -7219.2457   -6644.8382   -577.61529     102002.7      46.7237      46.7237      46.7237 
  429000    111.89297   -7226.7667   -6650.7575   -715.17393     102002.7      46.7237      46.7237      46.7237 
  430000    112.10344   -7210.9846   -6633.8919   -823.19591     102002.7      46.7237      46.7237      46.7237 
  431000    111.33321   -7235.2445   -6662.1169   -652.70556     102002.7      46.7237      46.7237      46.7237 
  432000    113.42396   -7210.9831   -6627.0925   -780.56364     102002.7      46.7237      46.7237      46.7237 
  433000    107.30288   -7227.5491    -6675.169   -472.00643     102002.7      46.7237      46.7237      46.7237 
  434000    107.87037   -7214.5487   -6659.2472   -461.65616     102002.7      46.7237      46.7237      46.7237 
  435000    111.95359   -7212.5815   -6636.2602   -748.42244     102002.7      46.7237      46.7237      46.7237 
  436000    110.92935   -7227.9571   -6656.9084   -277.60868     102002.7      46.7237      46.7237      46.7237 
  437000    107.12552   -7229.0149   -6677.5479   -490.13242     102002.7      46.7237      46.7237      46.7237 
  438000    112.34815   -7227.5569   -6649.2044   -413.19834     102002.7      46.7237      46.7237      46.7237 
  439000    108.70073   -7229.0263   -6669.4503   -648.40916     102002.7      46.7237      46.7237      46.7237 
  440000    110.73634   -7232.6487   -6662.5937    -603.0412     102002.7      46.7237      46.7237      46.7237 
  441000    107.96639   -7208.7508    -6652.955   -590.10061     102002.7      46.7237      46.7237      46.7237 
  442000    109.09447   -7236.2523   -6674.6493    -690.3297     102002.7      46.7237      46.7237      46.7237 
  443000    111.43409   -7227.3106   -6653.6636   -600.91248     102002.7      46.7237      46.7237      46.7237 
  444000    111.69653   -7223.1914   -6648.1934   -922.97517     102002.7      46.7237      46.7237      46.7237 
  445000    107.82507   -7222.2008   -6667.1326   -341.69943     102002.7      46.7237      46.7237      46.7237 
  446000      108.775   -7216.1542   -6656.1959    -591.8796     102002.7      46.7237      46.7237      46.7237 
  447000    112.90936   -7220.3014   -6639.0599   -549.59154     102002.7      46.7237      46.7237      46.7237 
  448000     108.2453   -7211.3514   -6654.1199   -694.12108     102002.7      46.7237      46.7237      46.7237 
  449000    107.24064   -7237.5925   -6685.5328   -744.62665     102002.7      46.7237      46.7237      46.7237 
  450000    110.11423   -7234.6841   -6667.8315   -704.96856     102002.7      46.7237      46.7237      46.7237 
  451000    111.00831   -7211.7237   -6640.2686   -699.10708     102002.7      46.7237      46.7237      46.7237 
  452000    112.37057   -7223.7795   -6645.3116   -661.00887     102002.7      46.7237      46.7237      46.7237 
  453000    109.47649   -7221.0775    -6657.508     -882.407     102002.7      46.7237      46.7237      46.7237 
  454000    112.44658   -7226.2974   -6647.4382   -761.77298     102002.7      46.7237      46.7237      46.7237 
  455000    108.48069   -7230.9522   -6672.5089   -766.91773     102002.7      46.7237      46.7237      46.7237 
  456000    111.95759   -7224.9538    -6648.612   -482.41614     102002.7      46.7237      46.7237      46.7237 
  457000    112.19529   -7211.1351   -6633.5695   -711.80152     102002.7      46.7237      46.7237      46.7237 
  458000    109.48229   -7221.1758   -6657.5764   -430.90538     102002.7      46.7237      46.7237      46.7237 
  459000    112.53989   -7220.6826   -6641.3432   -360.91488     102002.7      46.7237      46.7237      46.7237 
  460000    103.45167   -7228.8374   -6696.2828   -462.01579     102002.7      46.7237      46.7237      46.7237 
  461000    107.72355   -7211.3609   -6656.8153   -668.76899     102002.7      46.7237      46.7237      46.7237 
  462000    109.19998   -7219.9015   -6657.7554   -577.73562     102002.7      46.7237      46.7237      46.7237 
  463000    109.37945   -7215.6833   -6652.6133   -556.33057     102002.7      46.7237      46.7237      46.7237 
  464000    108.15463   -7208.0958   -6651.3311   -520.95808     102002.7      46.7237      46.7237      46.7237 
  465000    110.21984   -7202.0696   -6634.6734   -388.20354     102002.7      46.7237      46.7237      46.7237 
  466000      111.201   -7230.7978   -6658.3507   -793.98056     102002.7      46.7237      46.7237      46.7237 
  467000    110.49921   -7231.3117   -6662.4774   -376.20023     102002.7      46.7237      46.7237      46.7237 
  468000    112.10416    -7225.615   -6648.5185   -778.06104     102002.7      46.7237      46.7237      46.7237 
  469000    108.69125   -7233.2387   -6673.7115   -692.19783     102002.7      46.7237      46.7237      46.7237 
  470000    109.47782   -7219.3098   -6655.7334   -632.64851     102002.7      46.7237      46.7237      46.7237 
  471000    110.31255   -7225.8217   -6657.9483   -675.53184     102002.7      46.7237      46.7237      46.7237 
  472000     111.3915   -7233.8816   -6660.4539   -469.69788     102002.7      46.7237      46.7237      46.7237 
  473000    107.53892    -7236.489   -6682.8938   -712.48276     102002.7      46.7237      46.7237      46.7237 
  474000    110.72531   -7216.0758   -6646.0775    -653.3989     102002.7      46.7237      46.7237      46.7237 
  475000    109.26039    -7225.964   -6663.5069   -683.91962     102002.7      46.7237      46.7237      46.7237 
  476000    108.58727   -7221.4928   -6662.5008   -726.22035     102002.7      46.7237      46.7237      46.7237 
  477000    111.39925   -7230.3749   -6656.9073   -883.37194     102002.7      46.7237      46.7237      46.7237 
  478000    111.08012    -7211.253   -6639.4283   -936.80555     102002.7      46.7237      46.7237      46.7237 
  479000    109.83255   -7217.3679   -6651.9654   -384.84642     102002.7      46.7237      46.7237      46.7237 
  480000      110.585   -7238.9215   -6669.6456    -831.6636     102002.7      46.7237      46.7237      46.7237 
  481000    112.55771   -7212.6563   -6633.2251   -504.60469     102002.7      46.7237      46.7237      46.7237 
  482000    110.29229   -7229.8173   -6662.0482   -805.43939     102002.7      46.7237      46.7237      46.7237 
  483000    106.30228   -7222.5602    -6675.331   -784.69352     102002.7      46.7237      46.7237      46.7237 
  484000    110.71907   -7211.7645   -6641.7984   -664.37978     102002.7      46.7237      46.7237      46.7237 
  485000    110.96504   -7231.7371   -6660.5047   -540.56584     102002.7      46.7237      46.7237      46.7237 
  486000    112.33128   -7210.5482   -6632.2826   -327.33234     102002.7      46.7237      46.7237      46.7237 
  487000    112.81812   -7234.9711   -6654.1994   -599.16742     102002.7      46.7237      46.7237      46.7237 
  488000    106.35154    -7213.047   -6665.5643   -526.86897     102002.7      46.7237      46.7237      46.7237 
  489000    113.03788   -7222.0436   -6640.1405   -619.61302     102002.7      46.7237      46.7237      46.7237 
  490000    108.79666   -7216.6008    -6656.531   -263.15058     102002.7      46.7237      46.7237      46.7237 
  491000     110.8305   -7218.7008    -6648.161   -488.03018     102002.7      46.7237      46.7237      46.7237 
  492000    107.38952   -7199.2085   -6646.3824   -331.66726     102002.7      46.7237      46.7237      46.7237 
  493000    104.45734   -7210.3708   -6672.6392   -701.66549     102002.7      46.7237      46.7237      46.7237 
  494000     112.9311   -7224.6251   -6643.2718   -641.34539     102002.7      46.7237      46.7237      46.7237 
  495000    108.19782   -7220.1131    -6663.126   -462.53847     102002.7      46.7237      46.7237      46.7237 
  496000    109.74337   -7225.3867   -6660.4433    -679.0572     102002.7      46.7237      46.7237      46.7237 
  497000    110.65259   -7218.3896   -6648.7657   -464.69691     102002.7      46.7237      46.7237      46.7237 
  498000    110.32587   -7210.0312   -6642.0892   -593.22008     102002.7      46.7237      46.7237      46.7237 
  499000    110.41864    -7224.399   -6655.9794   -431.63024     102002.7      46.7237      46.7237      46.7237 
  500000    113.65552   -7205.5689   -6620.4863   -349.16725     102002.7      46.7237      46.7237      46.7237 
  500096    113.36645   -7205.8343   -6622.2398   -507.55809     102002.7      46.7237      46.7237      46.7237 
Loop time of 564.729 on 24 procs for 500000 steps with 1728 atoms

Performance: 76.497 ns/day, 0.314 hours/ns, 885.381 timesteps/s
99.9% CPU use with 24 MPI tasks x no OpenMP threads

MPI task timing breakdown:
Section |  min time  |  avg time  |  max time  |%varavg| %total
---------------------------------------------------------------
Pair    | 195.33     | 276.49     | 373.39     | 310.9 | 48.96
Bond    | 69.879     | 78.459     | 85.019     |  41.7 | 13.89
Neigh   | 1.5352     | 1.5509     | 1.5629     |   0.8 |  0.27
Comm    | 99.945     | 201.16     | 287.8      | 371.8 | 35.62
Output  | 0.30865    | 0.30893    | 0.31205    |   0.1 |  0.05
Modify  | 3.4903     | 3.8057     | 3.9888     |   5.8 |  0.67
Other   |            | 2.953      |            |       |  0.52

Nlocal:    72 ave 102 max 43 min
Histogram: 1 3 2 4 1 4 6 1 0 2
Nghost:    1972.29 ave 2146 max 1864 min
Histogram: 6 8 2 0 0 0 0 0 6 2
Neighs:    7634.08 ave 11725 max 2653 min
Histogram: 1 2 1 1 4 5 2 4 3 1

Total # of neighbors = 183218
Ave neighs/atom = 106.029
Ave special neighs/atom = 6.66667
Neighbor list builds = 2925
Dangerous builds = 0
Neighbor list info ...
  update every 1 steps, delay 10 steps, check yes
  max neighbors/atom: 2000, page size: 100000
  master list distance cutoff = 16
  ghost atom cutoff = 16
  binsize = 8, bins = 6 6 6
  3 neighbor lists, perpetual/occasional/extra = 3 0 0
  (1) pair buck6d/coul/gauss/dsf, perpetual, skip from (3)
      attributes: half, newton on
      pair build: skip
      stencil: none
      bin: none
  (2) pair lj/cut, perpetual, skip from (3)
      attributes: half, newton on
      pair build: skip
      stencil: none
      bin: none
  (3) neighbor class addition, perpetual
      attributes: half, newton on
      pair build: half/bin/newton
      stencil: half/bin/3d/newton
      bin: standard
Setting up Verlet run ...
  Unit style    : real
  Current step  : 500096
  Time step     : 1
WARNING: Inconsistent image flags (../domain.cpp:786)
Per MPI rank memory allocation (min/avg/max) = 24.11 | 24.46 | 24.57 Mbytes
Step Time TotEng KinEng PotEng E_mol E_pair Temp Pxx Pyy Pzz Pxy Pxz Pyz Cella Cellb Cellc CellAlpha CellBeta CellGamma Volume Press 
  500096       500000   -6622.2398    583.59452   -7205.8343    4305.4794   -11511.314    113.36645   -513.24997   -668.59818   -340.82611   -221.41518      55.3029   -220.73355      46.7237      46.7237      46.7237           90           90           90     102002.7   -507.55809 
  501000       500904    -6659.047    549.77689   -7208.8239    4286.3934   -11495.217    106.79719   -553.12581   -418.08501   -806.92894    38.230031   -201.56444   -282.11719      46.7237      46.7237      46.7237           90           90           90     102002.7   -592.71326 
  502000       501904   -6629.3212    564.95343   -7194.2747    4301.6064   -11495.881    109.74532   -766.10128   -580.53943   -554.56726    141.56437   -66.853459   -4.8178919      46.7237      46.7237      46.7237           90           90           90     102002.7   -633.73599 
  503000       502904   -6663.4265    571.74059   -7235.1671    4257.4577   -11492.625    111.06376   -356.89761   -875.06756   -742.00529   -36.509657   -190.90372    285.18615      46.7237      46.7237      46.7237           90           90           90     102002.7   -657.99015 
  504000       503904   -6643.9398     570.8408   -7214.7806    4293.3683   -11508.149    110.88897    -841.4053   -679.00207   -633.14443    85.318302   -87.120993    60.861362      46.7237      46.7237      46.7237           90           90           90     102002.7    -717.8506 
  505000       504904   -6661.7993     579.4223   -7241.2216     4267.865   -11509.087    112.55598   -667.11594   -462.95798   -591.45564   -63.441628   -149.36745   -132.21467      46.7237      46.7237      46.7237           90           90           90     102002.7   -573.84319 
  506000       505904   -6638.8255    568.58461   -7207.4101    4313.2808   -11520.691     110.4507   -702.54804    -1318.162    -1039.247    129.61491    -59.02532   -26.980273      46.7237      46.7237      46.7237           90           90           90     102002.7   -1019.9857 
  507000       506904   -6644.8076    561.75841    -7206.566    4300.9569   -11507.523    109.12467      -838.84   -682.55766    -660.3795    177.15183   -131.15234   -155.44095      46.7237      46.7237      46.7237           90           90           90     102002.7   -727.25905 
  508000       507904   -6660.3452    584.06848   -7244.4137    4255.0217   -11499.435    113.45852   -704.60691   -489.72711   -578.10441    45.021779   -155.03652     43.30774      46.7237      46.7237      46.7237           90           90           90     102002.7   -590.81281 
  509000       508904   -6640.9104    569.93054    -7210.841    4291.1629   -11502.004    110.71215   -670.56755   -684.95965   -728.51323    89.479977    374.55483    131.50913      46.7237      46.7237      46.7237           90           90           90     102002.7   -694.68014 
  510000       509904   -6654.9482     559.3622   -7214.3104    4293.8548   -11508.165    108.65919   -502.62981   -493.70333     4.013507    206.86845   -73.375709   -52.112121      46.7237      46.7237      46.7237           90           90           90     102002.7   -330.77321 
  511000       510904   -6677.4928    562.65835   -7240.1512    4256.8613   -11497.012    109.29949   -1056.9307   -748.44361   -940.72008    117.46206     62.30991   -57.204499      46.7237      46.7237      46.7237           90           90           90     102002.7   -915.36479 
  512000       511904   -6650.6239    568.27859   -7218.9024    4280.2662   -11499.169    110.39125   -556.61527   -669.99615   -342.13255    46.152548    94.320928    19.923351      46.7237      46.7237      46.7237           90           90           90     102002.7   -522.91466 
  513000       512904   -6648.3464    569.49007   -7217.8364     4285.793   -11503.629    110.62659   -479.64029   -581.72082    -702.1698   -22.608833     52.80612   -87.765986      46.7237      46.7237      46.7237           90           90           90     102002.7   -587.84364 
  514000       513904   -6659.5019    551.00117    -7210.503    4299.0621   -11509.565    107.03502   -872.90154    -916.9435   -913.30696   -196.64524    86.429841   -330.38052      46.7237      46.7237      46.7237           90           90           90     102002.7   -901.05067 
  515000       514904   -6674.8548    550.30408   -7225.1588    4275.7876   -11500.946     106.8996   -331.71264   -1237.2608   -820.32512   -327.37713    335.56936   -74.578084      46.7237      46.7237      46.7237           90           90           90     102002.7   -796.43284 
  516000       515904     -6618.56    583.67559   -7202.2356    4306.0486   -11508.284     113.3822   -685.54772   -1084.7244   -509.43258   -94.365896    59.916262   -65.103786      46.7237      46.7237      46.7237           90           90           90     102002.7   -759.90157 
  517000       516904   -6657.4524    561.83479   -7219.2871    4282.5175   -11501.805    109.13951   -896.02875   -735.56665   -627.87037    125.84524   -94.976018   -50.139012      46.7237      46.7237      46.7237           90           90           90     102002.7   -753.15526 
  518000       517904   -6654.4192    565.52304   -7219.9423    4283.1689   -11503.111    109.85597   -1081.8834   -1052.2563   -1429.5186   -207.77757    75.806543    361.68205      46.7237      46.7237      46.7237           90           90           90     102002.7   -1187.8861 
  519000       518904   -6642.9249    585.96511     -7228.89    4278.5019   -11507.392    113.82695   -565.40656   -824.65704   -748.26468   -168.52954    54.950264    95.462202      46.7237      46.7237      46.7237           90           90           90     102002.7   -712.77609 
  520000       519904   -6658.5012    564.77904   -7223.2802    4287.8917   -11511.172    109.71144   -454.86426   -1032.3547   -882.89786    73.474082    114.77525   -160.57027      46.7237      46.7237      46.7237           90           90           90     102002.7   -790.03893 
  521000       520904   -6659.8234    568.01003   -7227.8334    4291.1645   -11518.998    110.33908   -701.80061   -1094.4238   -848.98297   -218.26778    14.824993    151.30423      46.7237      46.7237      46.7237           90           90           90     102002.7    -881.7358 
  522000       521904   -6639.6508    579.25044   -7218.9012    4287.8264   -11506.728    112.52259   -343.97146   -889.45766   -611.53671   -23.737932   -86.702229    250.30328      46.7237      46.7237      46.7237           90           90           90     102002.7   -614.98861 
  523000       522904   -6668.2326    554.21727   -7222.4499    4281.7324   -11504.182    107.65976   -563.80381   -736.97467   -584.61197    -86.06241    10.213628   -137.12795      46.7237      46.7237      46.7237           90           90           90     102002.7   -628.46348 
  524000       523904   -6635.9941    578.96967   -7214.9638    4290.1586   -11505.122    112.46805   -845.64878   -539.75304   -727.90604    89.549516    106.16889   -227.67618      46.7237      46.7237      46.7237           90           90           90     102002.7   -704.43596 
  525000       524904   -6639.4701    571.33953   -7210.8097     4298.097   -11508.907    110.98586   -908.15017   -1345.9623   -510.22827   -137.07238    117.37153    52.028421      46.7237      46.7237      46.7237           90           90           90     102002.7   -921.44692 
  526000       525904   -6669.7722    569.49995   -7239.2722    4269.6022   -11508.874    110.62851   -767.35212   -664.82233   -763.55279    162.09994    80.322792   -167.88068      46.7237      46.7237      46.7237           90           90           90     102002.7   -731.90908 
  527000       526904    -6659.575    567.43976   -7227.0148    4282.4603   -11509.475     110.2283   -919.09371   -1017.9725   -464.44387   -173.03885   -119.80054   -190.74623      46.7237      46.7237      46.7237           90           90           90     102002.7   -800.50337 
  528000       527904   -6658.1537    560.63901   -7218.7927    4288.6865   -11507.479    108.90722   -753.35938   -482.13397   -972.39147   -24.792928    410.38423   -133.68106      46.7237      46.7237      46.7237           90           90           90     102002.7   -735.96161 
  529000       528904   -6665.8991    549.59556   -7215.4947     4288.993   -11504.488    106.76197   -893.65881   -675.95309   -915.20681   -70.400623    122.13067   -225.64116      46.7237      46.7237      46.7237           90           90           90     102002.7   -828.27291 
  530000       529904    -6654.246    566.58929   -7220.8353    4278.2962   -11499.132     110.0631   -1022.2713    -886.2152   -924.41927  -0.90057302   -68.374037   -18.850428      46.7237      46.7237      46.7237           90           90           90     102002.7   -944.30193 
  531000       530904    -6684.669    550.22443   -7234.8934    4268.6549   -11503.548    106.88413   -586.24221   -726.82721   -726.74131    228.70655    271.90931   -36.451066      46.7237      46.7237      46.7237           90           90           90     102002.7   -679.93691 
  532000       531904   -6645.2716    572.08323   -7217.3548    4288.8759   -11506.231    111.13032    -930.2195   -1027.8301   -556.90264   -43.683386    75.413086    91.145767      46.7237      46.7237      46.7237           90           90           90     102002.7   -838.31742 
  533000       532904   -6624.8117    575.60818   -7200.4199    4300.8729   -11501.293    111.81507   -648.89712   -631.91409   -210.16501   -274.26675    67.010411   -56.372391      46.7237      46.7237      46.7237           90           90           90     102002.7   -496.99207 
  534000       533904    -6665.771    561.77721   -7227.5482     4294.079   -11521.627    109.12832    -444.0205   -392.49849   -675.37335   -48.507928    79.442464    7.1549644      46.7237      46.7237      46.7237           90           90           90     102002.7   -503.96411 
  535000       534904   -6657.0958     555.0002    -7212.096    4294.6017   -11506.698    107.81185   -553.28884   -653.78196   -919.87543    121.06905   -63.855672   -85.259412      46.7237      46.7237      46.7237           90           90           90     102002.7   -708.98208 
  536000       535904   -6676.8103     558.8349   -7235.6452    4264.5347    -11500.18    108.55676    -90.90821   -670.97126   -416.92672   -213.14757    -189.0772    115.39032      46.7237      46.7237      46.7237           90           90           90     102002.7    -392.9354 
  537000       536904    -6668.105    555.63616   -7223.7412    4284.9544   -11508.696    107.93539   -786.36415   -781.70832   -863.00563   -162.36844   -131.35497    122.15412      46.7237      46.7237      46.7237           90           90           90     102002.7   -810.35937 
  538000       537904   -6652.6689    566.51527   -7219.1842    4290.8679   -11510.052    110.04872   -789.81992   -639.60518   -887.51625    187.89148    157.32952   -121.03145      46.7237      46.7237      46.7237           90           90           90     102002.7   -772.31378 
  539000       538904   -6638.6765     577.4065    -7216.083    4289.6397   -11505.723     112.1644   -737.89044   -569.20176   -848.04758   -41.342118   -126.49966    252.79828      46.7237      46.7237      46.7237           90           90           90     102002.7   -718.37993 
  540000       539904   -6666.3445    555.49117   -7221.8357    4274.0603   -11495.896    107.90722   -1072.4525   -935.35471   -365.72706    58.976742    -83.20981    193.19122      46.7237      46.7237      46.7237           90           90           90     102002.7    -791.1781 
  541000       540904   -6681.4124    543.99665    -7225.409    4290.3958   -11515.805    105.67435   -653.61706   -752.49489   -519.92109   -256.42829    46.115264    25.407635      46.7237      46.7237      46.7237           90           90           90     102002.7   -642.01101 
  542000       541904   -6646.8129    558.98859   -7205.8015    4300.3749   -11506.176    108.58662    -602.4589   -612.93071   -928.66433    187.65654   -2.1509898     73.04873      46.7237      46.7237      46.7237           90           90           90     102002.7   -714.68465 
  543000       542904   -6629.2795    587.87592   -7217.1554    4282.6786   -11499.834    114.19814   -628.01486   -932.77476   -337.63913    75.739021    98.038518    252.04394      46.7237      46.7237      46.7237           90           90           90     102002.7   -632.80958 
  544000       543904   -6657.2133    557.41118   -7214.6244    4294.7412   -11509.366     108.2802    -1376.677   -704.60455   -445.99549   -5.1127038    91.625313    246.08733      46.7237      46.7237      46.7237           90           90           90     102002.7   -842.42567 
  545000       544904   -6624.5035     572.9703   -7197.4738    4302.0134   -11499.487    111.30264    -741.3621    17.209446   -800.76387    108.23362   -2.7111249   -66.770228      46.7237      46.7237      46.7237           90           90           90     102002.7   -508.30551 
  546000       545904    -6650.927    567.29191   -7218.2189    4288.6091   -11506.828    110.19958   -989.47634   -1049.1603   -624.07179    159.47699    221.51192    184.96393      46.7237      46.7237      46.7237           90           90           90     102002.7   -887.56948 
  547000       546904   -6621.8858    585.26332   -7207.1491    4296.4099   -11503.559    113.69063   -611.39389    -519.2403   -673.00255    179.04379    34.246132    136.08418      46.7237      46.7237      46.7237           90           90           90     102002.7   -601.21225 
  548000       547904   -6661.2259    555.53355   -7216.7594    4298.3161   -11515.075    107.91546    -347.2661   -480.35054   -931.01398    9.7405254    91.234559   -38.788219      46.7237      46.7237      46.7237           90           90           90     102002.7   -586.21021 
  549000       548904   -6671.9701    554.88131   -7226.8514    4290.4534   -11517.305    107.78876   -841.05777   -815.81451   -810.87278     156.7049    331.34246   -222.46365      46.7237      46.7237      46.7237           90           90           90     102002.7   -822.58168 
  550000       549904   -6643.6267    568.60329     -7212.23     4295.088   -11507.318    110.45433   -617.14605   -898.37026   -720.86976   -159.05515   -151.85602   -114.95827      46.7237      46.7237      46.7237           90           90           90     102002.7   -745.46202 
  551000       550904   -6655.1574    571.27819   -7226.4356    4288.4855   -11514.921    110.97394   -649.75012   -513.47132   -789.97592    318.41154   -316.42977    97.969275      46.7237      46.7237      46.7237           90           90           90     102002.7   -651.06579 
  552000       551904    -6664.621    561.88656   -7226.5075    4281.1769   -11507.684    109.14956   -763.16427   -273.02914   -526.33147    289.58569    131.78702   -108.77382      46.7237      46.7237      46.7237           90           90           90     102002.7   -520.84163 
  553000       552904   -6641.4949    558.26495   -7199.7599    4314.3597    -11514.12    108.44605   -821.27057   -641.64838   -379.01641    9.2060641    95.857305   -67.895994      46.7237      46.7237      46.7237           90           90           90     102002.7   -613.97846 
  554000       553904   -6655.4363     559.2565   -7214.6928     4281.722   -11496.415    108.63866   -194.47864    -213.7125   -667.11829    89.765243     151.3265   -39.974537      46.7237      46.7237      46.7237           90           90           90     102002.7   -358.43647 
  555000       554904   -6665.2018    566.47219    -7231.674    4276.2608   -11507.935    110.04035    -708.3659   -745.24588   -705.03044   -112.90161   -138.64644   -88.676806      46.7237      46.7237      46.7237           90           90           90     102002.7   -719.54741 
[...]
  936000       935904   -6642.1036    582.54115   -7224.6447    4278.6856    -11503.33    113.16183   -338.56957   -567.11541   -646.17479   -108.05864    10.599287    68.050672      46.7237      46.7237      46.7237           90           90           90     102002.7   -517.28659 
  937000       936904   -6683.7006    562.72401   -7246.4246    4261.5184   -11507.943    109.31224   -256.68995   -664.41582   -786.00851    82.192771    140.96836    244.13055      46.7237      46.7237      46.7237           90           90           90     102002.7    -569.0381 
  938000       937904   -6642.9836     572.8755   -7215.8591    4285.6458   -11501.505    111.28423   -624.29584    -708.8289   -632.45671    157.40942    6.6382907    -51.35366      46.7237      46.7237      46.7237           90           90           90     102002.7   -655.19382 
  939000       938904   -6629.2206    578.71346    -7207.934    4291.8537   -11499.788    112.41828   -294.68241   -338.38936   -708.88269    94.659332    -88.37867    220.67027      46.7237      46.7237      46.7237           90           90           90     102002.7   -447.31815 
  940000       939904   -6661.8898    570.06064   -7231.9504    4260.1392    -11492.09    110.73742   -31.536648   -602.84639   -528.34735    208.11291    17.127939   -290.40837      46.7237      46.7237      46.7237           90           90           90     102002.7    -387.5768 
  941000       940904   -6655.1311    567.92785    -7223.059    4291.4429   -11514.502    110.32312   -676.32623   -616.86505     -204.685    112.61934   -45.638228    -55.03463      46.7237      46.7237      46.7237           90           90           90     102002.7   -499.29209 
  942000       941904   -6631.2658    576.73474   -7208.0006    4299.8759   -11507.877    112.03391   -606.30645   -498.28606   -732.63057    43.009232   -50.404989   -43.950207      46.7237      46.7237      46.7237           90           90           90     102002.7   -612.40769 
  943000       942904   -6657.7731     567.6764   -7225.4495    4277.3116   -11502.761    110.27427   -260.32334   -914.16686   -751.04058   -25.998584    12.045064   -155.30136      46.7237      46.7237      46.7237           90           90           90     102002.7   -641.84359 
  944000       943904   -6653.8743    566.41298   -7220.2873    4278.5389   -11498.826    110.02885   -732.24705    56.034487   -557.73635    117.93602    294.80673    6.5304085      46.7237      46.7237      46.7237           90           90           90     102002.7    -411.3163 
  945000       944904   -6640.5513    573.95295   -7214.5042     4297.713   -11512.217    111.49353   -944.10005   -295.94432   -570.19959    -79.21142    119.16554   -25.876107      46.7237      46.7237      46.7237           90           90           90     102002.7   -603.41465 
  946000       945904   -6661.6464     559.5536   -7221.2001    4283.5113   -11504.711    108.69637   -332.75344   -469.82393   -630.44903   -150.91605    84.550219   -385.33286      46.7237      46.7237      46.7237           90           90           90     102002.7   -477.67546 
  947000       946904   -6649.2892    573.59461   -7222.8838    4278.6771   -11501.561    111.42392   -587.81504   -661.26316   -703.18656    20.484726    313.63357   -62.435819      46.7237      46.7237      46.7237           90           90           90     102002.7   -650.75492 
  948000       947904   -6664.4031    542.51675   -7206.9198    4300.7108   -11507.631    105.38687   -689.61895   -798.02413   -1023.0785    157.09835   -20.277344    95.315606      46.7237      46.7237      46.7237           90           90           90     102002.7   -836.90718 
  949000       948904   -6663.5528    550.79415   -7214.3469      4295.43   -11509.777     106.9948   -662.00391   -713.30182   -647.34697    17.347317   -180.88293    153.37816      46.7237      46.7237      46.7237           90           90           90     102002.7   -674.21756 
  950000       949904   -6647.7776    572.18528   -7219.9628    4283.6992   -11503.662    111.15015   -1084.3279    -840.7384    -828.7213    173.90197   -183.57945    64.662318      46.7237      46.7237      46.7237           90           90           90     102002.7   -917.92919 
  951000       950904   -6678.0107    544.73337    -7222.744    4295.9782   -11518.722    105.81746   -1094.5487   -780.87262   -663.64549    69.947587    59.447703    169.29321      46.7237      46.7237      46.7237           90           90           90     102002.7    -846.3556 
  952000       951904   -6655.8493    556.13785   -7211.9872    4301.6434   -11513.631    108.03285   -441.56987   -787.91808   -916.62133    -88.63735   -54.225004    209.04686      46.7237      46.7237      46.7237           90           90           90     102002.7   -715.36976 
  953000       952904   -6649.7079    580.39621   -7230.1041    4271.3997   -11501.504    112.74517   -271.86402   -713.95411   -746.39178   -70.379883    17.508127   -26.743098      46.7237      46.7237      46.7237           90           90           90     102002.7    -577.4033 
  954000       953904   -6677.2918    552.33289   -7229.6247    4278.2519   -11507.877    107.29371   -502.84188   -392.48259    -501.4168   -256.08436   -155.30613    -51.24784      46.7237      46.7237      46.7237           90           90           90     102002.7   -465.58042 
  955000       954904   -6660.1882     559.2914   -7219.4796    4293.3173   -11512.797    108.64544   -86.938582   -789.43606   -920.90721    424.93086    34.524883   -224.07449      46.7237      46.7237      46.7237           90           90           90     102002.7   -599.09395 
  956000       955904   -6644.8679    578.46572   -7223.3336     4288.924   -11512.258    112.37016   -814.01655   -734.61903   -522.13212   -124.94081    242.89466   -42.630765      46.7237      46.7237      46.7237           90           90           90     102002.7    -690.2559 
  957000       956904   -6669.6054    554.49892   -7224.1043    4277.5938   -11501.698    107.71447   -231.89789    -379.4608   -112.91171   -1.1095959    160.76142   -44.267517      46.7237      46.7237      46.7237           90           90           90     102002.7   -241.42347 
  958000       957904   -6628.6522    581.68895   -7210.3412    4308.2219   -11518.563    112.99629   -6.4224835   -795.83593   -516.91606    62.812192    26.787916   -107.83898      46.7237      46.7237      46.7237           90           90           90     102002.7   -439.72482 
  959000       958904   -6649.2116    566.68285   -7215.8944    4284.8829   -11500.777    110.08127   -477.29797   -518.66089   -713.52931   -135.58417   -139.67742     118.8543      46.7237      46.7237      46.7237           90           90           90     102002.7   -569.82939 
  960000       959904   -6674.0688    560.14689   -7234.2157    4272.4442    -11506.66    108.81162   -331.64654   -496.46013   -257.16942    150.26986   -47.488491   -6.0482866      46.7237      46.7237      46.7237           90           90           90     102002.7    -361.7587 
  961000       960904   -6646.3605     581.1511   -7227.5116     4274.663   -11502.175    112.89181   -206.85002   -680.87033   -791.11672   -150.62053    73.741783    175.35544      46.7237      46.7237      46.7237           90           90           90     102002.7   -559.61236 
  962000       961904   -6663.5788     565.2881   -7228.8669    4289.5134    -11518.38    109.81033    -415.0592   -570.85828   -338.43667   -170.94842    118.17586    180.87267      46.7237      46.7237      46.7237           90           90           90     102002.7   -441.45138 
  963000       962904   -6631.5093    575.09987   -7206.6092    4313.6891   -11520.298    111.71632   -804.69459   -961.32445   -627.57597    58.657932    143.39137   -9.3628065      46.7237      46.7237      46.7237           90           90           90     102002.7     -797.865 
  964000       963904    -6664.482    563.34237   -7227.8244    4282.9829   -11510.807    109.43236   -634.34058   -652.30938   -240.70244   -164.65439    346.16707    91.753114      46.7237      46.7237      46.7237           90           90           90     102002.7   -509.11747 
  965000       964904   -6646.2227    567.26677   -7213.4895    4290.5004    -11503.99     110.1947   -317.68798   -855.60232   -553.56662   -44.827484   -152.17541    10.209626      46.7237      46.7237      46.7237           90           90           90     102002.7   -575.61897 
  966000       965904   -6650.1408    564.95428   -7215.0951     4289.116   -11504.211    109.74549   -491.73437   -701.17675   -780.06202   -30.578598    51.305492   -287.70725      46.7237      46.7237      46.7237           90           90           90     102002.7   -657.65771 
  967000       966904   -6663.8378    559.10597   -7222.9437    4285.7324   -11508.676    108.60942   -369.50114   -370.88067   -317.73769    83.661395   -117.36861    236.26821      46.7237      46.7237      46.7237           90           90           90     102002.7    -352.7065 
  968000       967904   -6636.0243    576.34741   -7212.3717    4294.4129   -11506.785    111.95866   -550.12815   -497.87206   -336.61328     82.93198     73.61206   -17.481105      46.7237      46.7237      46.7237           90           90           90     102002.7   -461.53783 
  969000       968904   -6659.6847     564.7106   -7224.3953    4290.3141   -11514.709    109.69815   -768.80927   -187.94329   -793.99079   -248.74708    49.288346   -55.739418      46.7237      46.7237      46.7237           90           90           90     102002.7   -583.58112 
  970000       969904   -6690.9753    554.04355   -7245.0189    4262.4741   -11507.493    107.62602   -597.79945    -1174.329   -632.26231    -59.19851   -182.26348    70.350105      46.7237      46.7237      46.7237           90           90           90     102002.7   -801.46359 
  971000       970904    -6642.333    563.23571   -7205.5687    4321.0682   -11526.637    109.41164   -681.92744   -1341.7313   -845.19897   -107.02652    145.27734    90.918065      46.7237      46.7237      46.7237           90           90           90     102002.7    -956.2859 
  972000       971904   -6631.5208    577.94102   -7209.4618    4291.7773   -11501.239    112.26823   -458.57195   -369.23237   -750.25747   -118.98623   -133.47509   -20.237431      46.7237      46.7237      46.7237           90           90           90     102002.7    -526.0206 
  973000       972904   -6678.4588    562.19263   -7240.6514     4262.446   -11503.097    109.20902   -392.91735   -1035.6411   -409.75063   -28.509936   -107.59543   -184.44705      46.7237      46.7237      46.7237           90           90           90     102002.7    -612.7697 
  974000       973904   -6652.5393    555.99821   -7208.5375    4308.0647   -11516.602    108.00572   -487.55496   -688.08423   -501.23141   -51.339826    112.64603    -361.3167      46.7237      46.7237      46.7237           90           90           90     102002.7   -558.95687 
  975000       974904   -6652.6982    567.88504   -7220.5832    4276.1593   -11496.742     110.3148   -867.91002   -368.54909   -350.89054    82.140533   -105.56336    107.48823      46.7237      46.7237      46.7237           90           90           90     102002.7   -529.11655 
  976000       975904   -6656.5959    558.33737   -7214.9333    4296.9548   -11511.888    108.46011   -560.86242   -859.05527   -436.16782    43.324625   -75.234292   -15.982301      46.7237      46.7237      46.7237           90           90           90     102002.7   -618.69517 
  977000       976904   -6650.2758    572.81482   -7223.0906    4277.0541   -11500.145    111.27244   -333.40934   -977.76426   -102.85279    82.730939   -104.67908    -347.7255      46.7237      46.7237      46.7237           90           90           90     102002.7   -471.34213 
  978000       977904    -6650.867    564.02709    -7214.894    4274.7574   -11489.651    109.56537   -535.10222    -422.8649   -329.31605    241.78709   -132.13971    -256.0157      46.7237      46.7237      46.7237           90           90           90     102002.7   -429.09439 
  979000       978904   -6671.2066    546.58299   -7217.7896    4289.3855   -11507.175    106.17676   -590.01208   -1062.3712   -807.30371   -238.08102    212.33251   -65.215132      46.7237      46.7237      46.7237           90           90           90     102002.7   -819.89567 
  980000       979904   -6635.2312    576.74477    -7211.976    4296.5141    -11508.49    112.03585   -641.56169   -1068.3478   -621.06717   -375.84675    162.36965    -251.5641      46.7237      46.7237      46.7237           90           90           90     102002.7   -776.99223 
  981000       980904   -6654.0365    569.92793   -7223.9644    4282.1103   -11506.075    110.71164   -678.74599   -464.72729   -165.77709     108.6737   -83.032794   -226.22029      46.7237      46.7237      46.7237           90           90           90     102002.7   -436.41679 
  982000       981904   -6668.4137    560.22279   -7228.6364    4277.2424   -11505.879    108.82637   -414.30982   -393.36335   -484.30601    -162.9197    49.032626   -32.526407      46.7237      46.7237      46.7237           90           90           90     102002.7   -430.65973 
  983000       982904   -6633.0056    571.73895   -7204.7446    4302.3584   -11507.103    111.06344   -519.59803   -301.27705   -687.44915    44.373661   -50.075861    153.42373      46.7237      46.7237      46.7237           90           90           90     102002.7   -502.77474 
  984000       983904   -6652.6408    578.20943   -7230.8502    4275.4101    -11506.26    112.32037   -604.53209   -674.89435   -651.03358     49.60962     46.11713   -229.16174      46.7237      46.7237      46.7237           90           90           90     102002.7   -643.48668 
  985000       984904   -6649.5674    573.95474   -7223.5221    4295.3247   -11518.847    111.49387   -436.29691   -237.33115   -858.96923    214.05307    66.318221    1.0380765      46.7237      46.7237      46.7237           90           90           90     102002.7   -510.86576 
  986000       985904    -6633.758    585.47956   -7219.2376    4287.4481   -11506.686    113.73263    -716.2688   -688.22592   -579.12136    62.348546    213.50386    109.91193      46.7237      46.7237      46.7237           90           90           90     102002.7   -661.20536 
  987000       986904   -6651.5269    573.97819   -7225.5051    4278.7223   -11504.227    111.49843   -859.37888   -308.76835   -554.92849    43.933118   -181.97122    211.81048      46.7237      46.7237      46.7237           90           90           90     102002.7   -574.35857 
  988000       987904   -6677.7307    546.64887   -7224.3795    4293.9931   -11518.373    106.18956   -1.5055851   -183.62369   -749.92092    147.71641   -156.82208    85.017015      46.7237      46.7237      46.7237           90           90           90     102002.7    -311.6834 
  989000       988904   -6646.3484    571.25691   -7217.6053    4288.3556   -11505.961    110.96981   -406.22294   -844.76281   -625.71296   -146.62135   -243.44115   -104.05224      46.7237      46.7237      46.7237           90           90           90     102002.7   -625.56624 
  990000       989904   -6662.4324    560.40433   -7222.8367    4268.8154   -11491.652    108.86163   -594.27895   -743.65314   -497.39695   -107.08712   -344.77321    293.39729      46.7237      46.7237      46.7237           90           90           90     102002.7   -611.77635 
  991000       990904   -6634.0734    570.65917   -7204.7325    4319.8596   -11524.592    110.85369   -231.53795   -766.13011    -881.8254    79.863824    25.269285    114.06884      46.7237      46.7237      46.7237           90           90           90     102002.7   -626.49782 
  992000       991904    -6669.944     569.6029   -7239.5469    4257.1934    -11496.74    110.64851   -291.27452   -508.64048   -453.89266   -56.568869    41.762648   -194.18445      46.7237      46.7237      46.7237           90           90           90     102002.7   -417.93589 
  993000       992904   -6631.7472     569.7637   -7201.5109    4304.2923   -11505.803    110.67974   -391.92436   -386.30477   -285.21566   -59.144884   -194.78194    177.81043      46.7237      46.7237      46.7237           90           90           90     102002.7    -354.4816 
  994000       993904   -6665.3614    554.89996   -7220.2614    4303.1568   -11523.418    107.79238    -617.0089   -361.79866    -765.4164    -6.516485    92.870789   -161.74969      46.7237      46.7237      46.7237           90           90           90     102002.7   -581.40799 
  995000       994904   -6646.0039    568.90349   -7214.9074    4285.0782   -11499.986    110.51264   -183.37848   -327.36833     -484.721    99.269702    37.063526   -217.29309      46.7237      46.7237      46.7237           90           90           90     102002.7    -331.8226 
  996000       995904   -6635.2615    579.06027   -7214.3217    4304.3778     -11518.7    112.48565   -1133.9999   -965.01889   -1143.7558   -38.419973    169.13484   -105.50442      46.7237      46.7237      46.7237           90           90           90     102002.7   -1080.9249 
  997000       996904   -6667.7604    557.95918   -7225.7195    4286.8054   -11512.525    108.38665   -651.23203   -787.92614    93.827305   -26.367941    123.71139    185.52716      46.7237      46.7237      46.7237           90           90           90     102002.7   -448.44362 
  998000       997904   -6651.7937    582.53655   -7234.3303     4261.385   -11495.715    113.16094   -625.32574   -967.29992   -686.22734    37.889133    67.526627    98.876284      46.7237      46.7237      46.7237           90           90           90     102002.7   -759.61767 
  999000       998904   -6652.0294    565.38457   -7217.4139    4293.7059    -11511.12    109.82907    -638.7621   -685.71338   -745.02953   -14.259963   -92.922019    93.893765      46.7237      46.7237      46.7237           90           90           90     102002.7     -689.835 
 1000000       999904   -6634.0348    574.53719    -7208.572    4296.3519   -11504.924    111.60702   -628.59195   -552.31391    -850.8087    32.984186    8.6098962    206.63875      46.7237      46.7237      46.7237           90           90           90     102002.7   -677.23819 
 1000096      1000000   -6640.6815    592.78622   -7233.4678    4276.2946   -11509.762    115.15199   -954.23429   -857.79478    -812.5838   -166.33689    129.34956    85.306604      46.7237      46.7237      46.7237           90           90           90     102002.7   -874.87096 
Loop time of 621.023 on 24 procs for 500000 steps with 1728 atoms

Performance: 69.563 ns/day, 0.345 hours/ns, 805.123 timesteps/s
99.9% CPU use with 24 MPI tasks x no OpenMP threads

MPI task timing breakdown:
Section |  min time  |  avg time  |  max time  |%varavg| %total
---------------------------------------------------------------
Pair    | 214.69     | 305.51     | 414.78     | 323.2 | 49.19
Bond    | 73.751     | 82.556     | 89.533     |  42.3 | 13.29
Neigh   | 1.4117     | 1.428      | 1.439      |   0.8 |  0.23
Comm    | 102.25     | 216.31     | 313.16     | 391.9 | 34.83
Output  | 0.3425     | 0.37477    | 0.3763     |   1.1 |  0.06
Modify  | 11.573     | 11.854     | 12.152     |   4.0 |  1.91
Other   |            | 2.992      |            |       |  0.48

Nlocal:    72 ave 92 max 48 min
Histogram: 1 1 3 3 2 2 3 7 1 1
Nghost:    1970.67 ave 2139 max 1879 min
Histogram: 15 1 0 0 0 0 0 0 2 6
Neighs:    7640.54 ave 11645 max 3968 min
Histogram: 1 0 5 6 4 1 1 2 1 3

Total # of neighbors = 183373
Ave neighs/atom = 106.119
Ave special neighs/atom = 6.66667
Neighbor list builds = 2727
Dangerous builds = 0
Total wall time: 0:19:47
