LAMMPS (30 Mar 2018)
Reading data file ...
  orthogonal box = (0 0 0) to (46.7237 46.7237 46.7237)
  2 by 2 by 4 MPI processor grid
  reading atoms ...
  1911 atoms
  scanning bonds ...
  5 = max bonds/atom
  scanning angles ...
  10 = max angles/atom
  scanning dihedrals ...
  32 = max dihedrals/atom
  scanning impropers ...
  3 = max impropers/atom
  reading bonds ...
  2064 bonds
  reading angles ...
  3696 angles
  reading dihedrals ...
  6240 dihedrals
  reading impropers ...
  1008 impropers
Finding 1-2 1-3 1-4 neighbors ...
  special bond factors lj:   0          0          0         
  special bond factors coul: 0          0          0         
  5 = max # of 1-2 neighbors
  8 = max # of 1-3 neighbors
  20 = max # of 1-4 neighbors
  19 = max # of special neighbors
Finding 1-2 1-3 1-4 neighbors ...
  special bond factors lj:   0          0          1         
  special bond factors coul: 1          1          1         
  5 = max # of 1-2 neighbors
  8 = max # of 1-3 neighbors
  19 = max # of special neighbors
WARNING: Using 'neigh_modify every 1 delay 0 check yes' setting during minimization (../min.cpp:168)
Neighbor list info ...
  update every 1 steps, delay 0 steps, check yes
  max neighbors/atom: 2000, page size: 100000
  master list distance cutoff = 16
  ghost atom cutoff = 16
  binsize = 8, bins = 6 6 6
  3 neighbor lists, perpetual/occasional/extra = 3 0 0
  (1) pair buck6d/coul/gauss/dsf, perpetual, skip from (3)
      attributes: half, newton on
      pair build: skip
      stencil: none
      bin: none
  (2) pair lj/cut, perpetual, skip from (3)
      attributes: half, newton on
      pair build: skip
      stencil: none
      bin: none
  (3) neighbor class addition, perpetual
      attributes: half, newton on
      pair build: half/bin/newton
      stencil: half/bin/3d/newton
      bin: standard
Setting up cg style minimization ...
  Unit style    : real
  Current step  : 0
WARNING: Inconsistent image flags (../domain.cpp:786)
Per MPI rank memory allocation (min/avg/max) = 22.9 | 23.36 | 23.8 Mbytes
Step Temp E_pair E_mol TotEng Press 
       0            0   -12093.293    6482.8914   -5610.4018    6061.4513 
     501            0   -12150.429    3730.4978   -8419.9309    -635.1874 
Loop time of 2.95982 on 16 procs for 501 steps with 1911 atoms

99.9% CPU use with 16 MPI tasks x no OpenMP threads

Minimization stats:
  Stopping criterion = max force evaluations
  Energy initial, next-to-last, final = 
        -5610.40181196     -8419.89308051      -8419.9309366
  Force two-norm initial, final = 2576.11 9.13818
  Force max component initial, final = 151.997 1.23276
  Final line search alpha, max atom move = 0.00789785 0.00973614
  Iterations, force evaluations = 501 1000

MPI task timing breakdown:
Section |  min time  |  avg time  |  max time  |%varavg| %total
---------------------------------------------------------------
Pair    | 1.1994     | 1.7457     | 2.1528     |  23.6 | 58.98
Bond    | 0.32053    | 0.35907    | 0.43336    |   4.9 | 12.13
Neigh   | 0.020141   | 0.02025    | 0.020426   |   0.1 |  0.68
Comm    | 0.38514    | 0.79435    | 1.3503     |  35.1 | 26.84
Output  | 0          | 0          | 0          |   0.0 |  0.00
Modify  | 0          | 0          | 0          |   0.0 |  0.00
Other   |            | 0.04041    |            |       |  1.37

Nlocal:    119.438 ave 132 max 103 min
Histogram: 1 1 2 1 2 1 2 2 2 2
Nghost:    2355.06 ave 2378 max 2342 min
Histogram: 2 4 0 4 1 2 2 0 0 1
Neighs:    11454.3 ave 14555 max 7163 min
Histogram: 1 3 1 1 2 0 1 0 1 6

Total # of neighbors = 183269
Ave neighs/atom = 95.9021
Ave special neighs/atom = 6.02826
Neighbor list builds = 14
Dangerous builds = 0
Neighbor list info ...
  update every 1 steps, delay 10 steps, check yes
  max neighbors/atom: 2000, page size: 100000
  master list distance cutoff = 16
  ghost atom cutoff = 16
  binsize = 8, bins = 6 6 6
  3 neighbor lists, perpetual/occasional/extra = 3 0 0
  (1) pair buck6d/coul/gauss/dsf, perpetual, skip from (3)
      attributes: half, newton on
      pair build: skip
      stencil: none
      bin: none
  (2) pair lj/cut, perpetual, skip from (3)
      attributes: half, newton on
      pair build: skip
      stencil: none
      bin: none
  (3) neighbor class addition, perpetual
      attributes: half, newton on
      pair build: half/bin/newton
      stencil: half/bin/3d/newton
      bin: standard
Setting up Verlet run ...
  Unit style    : real
  Current step  : 501
  Time step     : 1
WARNING: Inconsistent image flags (../domain.cpp:786)
Per MPI rank memory allocation (min/avg/max) = 22.55 | 22.61 | 22.68 Mbytes
Step Temp PotEng TotEng Press Volume Lx Ly Lz 
     501           91   -8419.9309   -7901.8363    -403.0045     102002.7      46.7237      46.7237      46.7237 
    1000    76.565953   -7943.0113   -7507.0948   -657.46583     102002.7      46.7237      46.7237      46.7237 
    2000    99.976191   -7913.6671   -7344.4679   -783.83655     102002.7      46.7237      46.7237      46.7237 
    3000    88.873671   -7893.3547   -7387.3661   -729.90041     102002.7      46.7237      46.7237      46.7237 
    4000    89.144853   -7879.0098   -7371.4772   -779.15167     102002.7      46.7237      46.7237      46.7237 
    5000    89.712441   -7880.2438   -7369.4797    -813.5258     102002.7      46.7237      46.7237      46.7237 
    6000     93.25557   -7888.3536   -7357.4172   -460.84985     102002.7      46.7237      46.7237      46.7237 
    7000    90.256443   -7883.9831   -7370.1218   -361.24467     102002.7      46.7237      46.7237      46.7237 
    8000    90.222848    -7887.144    -7373.474   -951.08058     102002.7      46.7237      46.7237      46.7237 
    9000    91.526587   -7875.6606    -7354.568   -684.55088     102002.7      46.7237      46.7237      46.7237 
   10000    95.090828   -7881.6409   -7340.2558   -568.61743     102002.7      46.7237      46.7237      46.7237 
   11000    91.252367    -7877.314   -7357.7826   -673.12894     102002.7      46.7237      46.7237      46.7237 
   12000    92.994935    -7876.483   -7347.0306   -508.81135     102002.7      46.7237      46.7237      46.7237 
   13000    90.700364   -7862.5739   -7346.1853   -676.36347     102002.7      46.7237      46.7237      46.7237 
   14000    90.716254   -7871.7591   -7355.2799   -877.21334     102002.7      46.7237      46.7237      46.7237 
   15000    90.653169   -7867.3611   -7351.2411   -464.82614     102002.7      46.7237      46.7237      46.7237 
   16000    92.044967   -7861.1008   -7337.0569   -509.59387     102002.7      46.7237      46.7237      46.7237 
   17000    89.731767   -7874.2341     -7363.36   -677.83964     102002.7      46.7237      46.7237      46.7237 
   18000    89.462093    -7878.002   -7368.6632   -721.38585     102002.7      46.7237      46.7237      46.7237 
   19000     92.08633   -7880.3809   -7356.1015   -783.02922     102002.7      46.7237      46.7237      46.7237 
   20000    94.593247   -7877.4476   -7338.8954   -639.22797     102002.7      46.7237      46.7237      46.7237 
   21000    92.304859   -7893.7319   -7368.2083   -597.42975     102002.7      46.7237      46.7237      46.7237 
   22000    91.285128   -7882.9259    -7363.208   -954.78156     102002.7      46.7237      46.7237      46.7237 
   23000    90.314848   -7867.5514   -7353.3576   -954.77187     102002.7      46.7237      46.7237      46.7237 
   24000    91.615124   -7864.8208   -7343.2241   -1034.8175     102002.7      46.7237      46.7237      46.7237 
   25000    90.241899    -7858.465   -7344.6865   -880.82304     102002.7      46.7237      46.7237      46.7237 
   26000    88.994659   -7861.2915    -7354.614   -816.03223     102002.7      46.7237      46.7237      46.7237 
   27000    92.689984   -7877.9673    -7350.251   -976.77377     102002.7      46.7237      46.7237      46.7237 
   28000    91.399628   -7877.0827   -7356.7129   -690.85507     102002.7      46.7237      46.7237      46.7237 
   29000    93.479104   -7855.3094   -7323.1004   -931.90508     102002.7      46.7237      46.7237      46.7237 
   30000    87.171549   -7872.8424   -7376.5445   -1356.7532     102002.7      46.7237      46.7237      46.7237 
   31000    92.113899   -7871.5156   -7347.0792   -1025.3509     102002.7      46.7237      46.7237      46.7237 
   32000    90.935139   -7868.0089   -7350.2836    -955.4539     102002.7      46.7237      46.7237      46.7237 
   33000    89.952935   -7894.3301   -7382.1968   -972.91932     102002.7      46.7237      46.7237      46.7237 
   34000    90.734736   -7881.3256   -7364.7412   -914.93346     102002.7      46.7237      46.7237      46.7237 
   35000    92.027041   -7872.8711   -7348.9292   -836.21452     102002.7      46.7237      46.7237      46.7237 
   36000    90.450794   -7884.6572   -7369.6894   -778.40536     102002.7      46.7237      46.7237      46.7237 
   37000    93.517411   -7883.3463   -7350.9193   -875.97405     102002.7      46.7237      46.7237      46.7237 
   38000    88.546607   -7873.7945   -7369.6679   -574.79024     102002.7      46.7237      46.7237      46.7237 
   39000    90.753132   -7858.7523   -7342.0632   -695.34586     102002.7      46.7237      46.7237      46.7237 
   40000    90.257214   -7879.6959   -7365.8302   -808.84351     102002.7      46.7237      46.7237      46.7237 
   41000    91.657845   -7886.9873   -7365.1474   -753.50437     102002.7      46.7237      46.7237      46.7237 
   42000    92.282289   -7883.3465   -7357.9514   -846.19544     102002.7      46.7237      46.7237      46.7237 
   43000    91.309016   -7875.8691   -7356.0152   -543.72825     102002.7      46.7237      46.7237      46.7237 
   44000    92.515878    -7865.145     -7338.42   -853.27937     102002.7      46.7237      46.7237      46.7237 
   45000     92.30245   -7873.2423   -7347.7324   -549.56265     102002.7      46.7237      46.7237      46.7237 
   46000    89.526569   -7876.6269    -7366.921   -505.16065     102002.7      46.7237      46.7237      46.7237 
   47000    92.433381   -7865.6862   -7339.4308    -584.2848     102002.7      46.7237      46.7237      46.7237 
   48000    92.464699   -7874.1854   -7347.7518   -506.24675     102002.7      46.7237      46.7237      46.7237 
   49000    88.355205   -7875.2467   -7372.2098    -703.6392     102002.7      46.7237      46.7237      46.7237 
   50000    87.790867   -7872.7179    -7372.894   -516.79491     102002.7      46.7237      46.7237      46.7237 
   51000    90.718863   -7867.7254   -7351.2315   -508.81088     102002.7      46.7237      46.7237      46.7237 
   52000    90.951673   -7869.7766   -7351.9572   -652.05095     102002.7      46.7237      46.7237      46.7237 
   53000    88.496036   -7874.6529   -7370.8142    -691.3765     102002.7      46.7237      46.7237      46.7237 
   54000    91.352519   -7863.4586   -7343.3569   -907.73782     102002.7      46.7237      46.7237      46.7237 
   55000    93.492684   -7877.0925   -7344.8062   -853.98285     102002.7      46.7237      46.7237      46.7237 
   56000    89.304187   -7884.6814   -7376.2416   -801.52804     102002.7      46.7237      46.7237      46.7237 
   57000    88.049714   -7866.5013   -7365.2037   -445.45435     102002.7      46.7237      46.7237      46.7237 
   58000    87.958066   -7861.6237   -7360.8479   -680.13196     102002.7      46.7237      46.7237      46.7237 
   59000    90.137558   -7856.6144     -7343.43   -788.40605     102002.7      46.7237      46.7237      46.7237 
   60000    91.077921   -7866.8472   -7348.3089   -952.78731     102002.7      46.7237      46.7237      46.7237 
   61000    92.952868   -7860.3594   -7331.1464   -703.39844     102002.7      46.7237      46.7237      46.7237 
   62000    91.037971   -7865.5598   -7347.2491   -595.41589     102002.7      46.7237      46.7237      46.7237 
   63000    90.006495   -7894.0197   -7381.5815   -939.77403     102002.7      46.7237      46.7237      46.7237 
   64000    92.256263   -7888.1676   -7362.9206   -1058.0534     102002.7      46.7237      46.7237      46.7237 
   65000    90.743978   -7871.5052   -7354.8683   -915.73927     102002.7      46.7237      46.7237      46.7237 
   66000     89.90665   -7885.6801   -7373.8104   -881.08238     102002.7      46.7237      46.7237      46.7237 
   67000    93.402169   -7874.7727   -7343.0017   -932.47996     102002.7      46.7237      46.7237      46.7237 
   68000    91.083872   -7866.2161    -7347.644   -551.71307     102002.7      46.7237      46.7237      46.7237 
   69000    89.051646   -7888.3538   -7381.3518   -656.75108     102002.7      46.7237      46.7237      46.7237 
   70000    88.674396   -7863.1611    -7358.307     -793.718     102002.7      46.7237      46.7237      46.7237 
   71000    90.079487    -7852.299   -7339.4453   -794.11469     102002.7      46.7237      46.7237      46.7237 
   72000    89.817175   -7875.9226   -7364.5622   -816.51473     102002.7      46.7237      46.7237      46.7237 
   73000    91.980284   -7867.7112   -7344.0355   -506.48881     102002.7      46.7237      46.7237      46.7237 
   74000    88.824564   -7886.7182   -7381.0091   -626.76352     102002.7      46.7237      46.7237      46.7237 
   75000    91.217798   -7880.8895   -7361.5549   -707.96437     102002.7      46.7237      46.7237      46.7237 
   76000    90.604104   -7859.9279   -7344.0873   -717.75456     102002.7      46.7237      46.7237      46.7237 
   77000    91.760561   -7860.1006   -7337.6758   -619.63255     102002.7      46.7237      46.7237      46.7237 
   78000    90.671021   -7884.8519   -7368.6303    -595.4009     102002.7      46.7237      46.7237      46.7237 
   79000    89.943072   -7870.1098   -7358.0326   -775.58236     102002.7      46.7237      46.7237      46.7237 
   80000    92.967716   -7874.5369   -7345.2394   -806.26872     102002.7      46.7237      46.7237      46.7237 
   81000    89.255511   -7854.7365   -7346.5739   -685.04077     102002.7      46.7237      46.7237      46.7237 
   82000    89.741903   -7881.8968    -7370.965   -689.76531     102002.7      46.7237      46.7237      46.7237 
   83000    90.684671   -7864.9025   -7348.6032   -704.23264     102002.7      46.7237      46.7237      46.7237 
   84000     91.31544   -7884.7506   -7364.8601    -562.4966     102002.7      46.7237      46.7237      46.7237 
   85000    91.393719   -7874.1555   -7353.8194   -617.64722     102002.7      46.7237      46.7237      46.7237 
   86000    89.995846   -7889.7745   -7377.3969    -646.3635     102002.7      46.7237      46.7237      46.7237 
   87000    90.506115   -7865.3602   -7350.0775   -559.48651     102002.7      46.7237      46.7237      46.7237 
   88000    91.137846   -7877.7327   -7358.8533   -835.84944     102002.7      46.7237      46.7237      46.7237 
   89000    93.191742   -7890.2806   -7359.7077     -743.837     102002.7      46.7237      46.7237      46.7237 
   90000    94.623317   -7870.5505   -7331.8271   -847.87901     102002.7      46.7237      46.7237      46.7237 
   91000    91.916486   -7869.9238   -7346.6114   -808.09282     102002.7      46.7237      46.7237      46.7237 
   92000    89.883712   -7864.7073   -7352.9681   -807.14388     102002.7      46.7237      46.7237      46.7237 
   93000    90.778953   -7876.3121    -7359.476   -919.52089     102002.7      46.7237      46.7237      46.7237 
   94000    90.827928   -7869.7882   -7352.6733   -833.82179     102002.7      46.7237      46.7237      46.7237 
   95000    89.197365   -7879.5364   -7371.7048   -993.90727     102002.7      46.7237      46.7237      46.7237 
   96000    93.239315   -7866.5117   -7335.6679   -848.93538     102002.7      46.7237      46.7237      46.7237 
   97000    88.964063   -7874.6096   -7368.1063   -822.44699     102002.7      46.7237      46.7237      46.7237 
   98000    91.562403   -7864.3782   -7343.0817   -698.24242     102002.7      46.7237      46.7237      46.7237 
   99000    89.081009   -7880.9828   -7373.8137    -883.6991     102002.7      46.7237      46.7237      46.7237 
  100000    91.328142   -7869.2747   -7349.3119   -936.80719     102002.7      46.7237      46.7237      46.7237 
  101000    94.184589   -7857.6695   -7321.4439   -828.25209     102002.7      46.7237      46.7237      46.7237 
  102000    89.836726   -7856.7962   -7345.3245   -876.66143     102002.7      46.7237      46.7237      46.7237 
  103000    88.683562   -7871.1474    -7366.241   -560.83575     102002.7      46.7237      46.7237      46.7237 
  104000     89.73409   -7879.3801   -7368.4928   -651.62608     102002.7      46.7237      46.7237      46.7237 
  105000    93.398166   -7853.2695   -7321.5213   -752.55427     102002.7      46.7237      46.7237      46.7237 
  106000    93.168797   -7871.8035   -7341.3612   -698.55347     102002.7      46.7237      46.7237      46.7237 
  107000    91.667207    -7877.864   -7355.9708   -789.85377     102002.7      46.7237      46.7237      46.7237 
  108000    88.766749   -7873.2491   -7367.8692   -632.99383     102002.7      46.7237      46.7237      46.7237 
  109000    89.897216   -7876.1549   -7364.3388   -777.46855     102002.7      46.7237      46.7237      46.7237 
  110000    92.501335   -7872.0752    -7345.433   -690.68351     102002.7      46.7237      46.7237      46.7237 
  111000    88.873665   -7885.7256    -7379.737   -717.57694     102002.7      46.7237      46.7237      46.7237 
  112000    89.749911   -7867.2356   -7356.2582   -689.31718     102002.7      46.7237      46.7237      46.7237 
  113000    91.398877   -7864.3652   -7343.9997   -573.20314     102002.7      46.7237      46.7237      46.7237 
  114000    91.405653   -7880.3474   -7359.9433    -928.6446     102002.7      46.7237      46.7237      46.7237 
  115000    89.654405   -7845.1316    -7334.698   -717.53285     102002.7      46.7237      46.7237      46.7237 
  116000    91.812677   -7869.0894    -7346.368   -617.74568     102002.7      46.7237      46.7237      46.7237 
  117000     91.09751   -7868.4429   -7349.7932   -628.65107     102002.7      46.7237      46.7237      46.7237 
  118000    92.464149   -7878.2313   -7351.8008   -771.01455     102002.7      46.7237      46.7237      46.7237 
  119000    86.358772    -7891.972   -7400.3015    -766.4737     102002.7      46.7237      46.7237      46.7237 
  120000    92.071325   -7875.3469   -7351.1529     -687.117     102002.7      46.7237      46.7237      46.7237 
  121000    89.746716   -7870.1678   -7359.2086   -720.88264     102002.7      46.7237      46.7237      46.7237 
  122000    90.328613   -7850.3619   -7336.0897   -902.98795     102002.7      46.7237      46.7237      46.7237 
  123000    92.120746    -7874.234   -7349.7586   -843.94726     102002.7      46.7237      46.7237      46.7237 
  124000    89.143345   -7879.4194   -7371.8954   -1067.0408     102002.7      46.7237      46.7237      46.7237 
  125000    90.509061   -7864.4243   -7349.1248   -581.33526     102002.7      46.7237      46.7237      46.7237 
  126000    93.526143   -7859.3437   -7326.8669   -634.93041     102002.7      46.7237      46.7237      46.7237 
  127000    89.233221    -7870.387   -7362.3513   -993.35698     102002.7      46.7237      46.7237      46.7237 
  128000    90.950649   -7865.0185   -7347.2049    -721.0386     102002.7      46.7237      46.7237      46.7237 
  129000    94.776245   -7872.6322   -7333.0381    -1003.978     102002.7      46.7237      46.7237      46.7237 
  130000     89.41714   -7869.2954   -7360.2125   -1102.8857     102002.7      46.7237      46.7237      46.7237 
  131000     92.88147   -7873.1179   -7344.3115    -818.2087     102002.7      46.7237      46.7237      46.7237 
  132000    89.894827    -7866.446   -7354.6436    -697.8631     102002.7      46.7237      46.7237      46.7237 
  133000    90.964167   -7863.6237   -7345.7331   -872.26471     102002.7      46.7237      46.7237      46.7237 
  134000    91.667549    -7861.586   -7339.6908   -579.74319     102002.7      46.7237      46.7237      46.7237 
  135000    90.702071   -7876.0934    -7359.695   -614.19844     102002.7      46.7237      46.7237      46.7237 
  136000    89.682779   -7855.1968   -7344.6016    -615.6207     102002.7      46.7237      46.7237      46.7237 
  137000    88.407741   -7883.3818   -7380.0458   -525.21202     102002.7      46.7237      46.7237      46.7237 
  138000    92.163116   -7861.1103   -7336.3937   -1046.5671     102002.7      46.7237      46.7237      46.7237 
  139000    91.553788   -7886.9046   -7365.6571   -755.06657     102002.7      46.7237      46.7237      46.7237 
  140000    87.481352   -7881.6953   -7383.6336   -896.18343     102002.7      46.7237      46.7237      46.7237 
  141000    90.167533   -7864.6803   -7351.3252   -831.32497     102002.7      46.7237      46.7237      46.7237 
  142000    89.574189   -7860.9086   -7350.9316   -780.31908     102002.7      46.7237      46.7237      46.7237 
  143000    91.397094   -7854.3176   -7333.9622   -1035.4122     102002.7      46.7237      46.7237      46.7237 
  144000    88.029701   -7860.9705   -7359.7869   -777.46985     102002.7      46.7237      46.7237      46.7237 
  145000    90.648006   -7877.8955   -7361.8049   -997.19614     102002.7      46.7237      46.7237      46.7237 
  146000     90.30864   -7844.7428   -7330.5844   -1099.9265     102002.7      46.7237      46.7237      46.7237 
  147000    92.467689   -7846.3943   -7319.9436   -697.87174     102002.7      46.7237      46.7237      46.7237 
  148000    91.173356   -7876.2242   -7357.1426   -818.09625     102002.7      46.7237      46.7237      46.7237 
  149000    88.024335   -7862.4162   -7361.2631   -629.77069     102002.7      46.7237      46.7237      46.7237 
  150000    90.504909   -7859.2347   -7343.9588   -840.10754     102002.7      46.7237      46.7237      46.7237 
  151000    93.358212    -7863.641   -7332.1203   -805.21037     102002.7      46.7237      46.7237      46.7237 
  152000    87.239762   -7860.8561   -7364.1698    -657.4564     102002.7      46.7237      46.7237      46.7237 
  153000    94.433123   -7851.0188   -7313.3782   -1018.2215     102002.7      46.7237      46.7237      46.7237 
  154000    90.338149   -7876.9576   -7362.6312   -999.38375     102002.7      46.7237      46.7237      46.7237 
  155000    93.612698   -7861.4348   -7328.4652   -386.40038     102002.7      46.7237      46.7237      46.7237 
  156000    90.945635   -7864.5235   -7346.7384   -797.04698     102002.7      46.7237      46.7237      46.7237 
  157000     93.86964   -7835.3395    -7300.907   -707.78726     102002.7      46.7237      46.7237      46.7237 
  158000    93.219292   -7871.5789   -7340.8491   -846.80528     102002.7      46.7237      46.7237      46.7237 
  159000    89.574498   -7868.5024   -7358.5237   -781.44597     102002.7      46.7237      46.7237      46.7237 
  160000    94.916609   -7848.4727   -7308.0795   -1169.1902     102002.7      46.7237      46.7237      46.7237 
  161000    90.262922   -7874.6808   -7360.7827   -638.19679     102002.7      46.7237      46.7237      46.7237 
  162000    91.058135   -7877.3121   -7358.8865   -853.05272     102002.7      46.7237      46.7237      46.7237 
  163000     91.26075   -7865.6751    -7346.096   -718.82701     102002.7      46.7237      46.7237      46.7237 
  164000    92.931113   -7851.5193   -7322.4302   -891.76467     102002.7      46.7237      46.7237      46.7237 
  165000    89.258245   -7860.7815   -7352.6034   -1071.1085     102002.7      46.7237      46.7237      46.7237 
  166000    92.355828   -7847.3939   -7321.5801   -881.69679     102002.7      46.7237      46.7237      46.7237 
  167000    94.779595   -7873.6526   -7334.0395   -944.59011     102002.7      46.7237      46.7237      46.7237 
  168000    91.132225   -7877.7213   -7358.8739   -956.92432     102002.7      46.7237      46.7237      46.7237 
  169000    93.009039   -7877.7809   -7348.2481   -894.18201     102002.7      46.7237      46.7237      46.7237 
  170000    90.793104   -7868.8357   -7351.9191   -781.77919     102002.7      46.7237      46.7237      46.7237 
  171000    92.171033   -7874.2869   -7349.5253   -739.16317     102002.7      46.7237      46.7237      46.7237 
  172000     92.90979   -7877.0244   -7348.0567   -1010.3655     102002.7      46.7237      46.7237      46.7237 
  173000    88.653804   -7878.1432   -7373.4064   -600.81047     102002.7      46.7237      46.7237      46.7237 
  174000    91.915794   -7866.5684   -7343.2598   -856.09255     102002.7      46.7237      46.7237      46.7237 
  175000    89.862719   -7872.1812   -7360.5615   -836.06588     102002.7      46.7237      46.7237      46.7237 
  176000    92.095109    -7873.499   -7349.1695   -656.27245     102002.7      46.7237      46.7237      46.7237 
  177000    91.568051   -7852.7781   -7331.4494   -824.07566     102002.7      46.7237      46.7237      46.7237 
  178000    92.180288   -7875.2448   -7350.4304    -643.7015     102002.7      46.7237      46.7237      46.7237 
  179000    87.878866   -7884.7641   -7384.4393    -813.7991     102002.7      46.7237      46.7237      46.7237 
  180000    91.779284   -7872.0626   -7349.5313    -859.0824     102002.7      46.7237      46.7237      46.7237 
  181000     89.56392   -7865.8079   -7355.8894    -602.3043     102002.7      46.7237      46.7237      46.7237 
  182000    91.637707   -7869.7931   -7348.0678   -827.47751     102002.7      46.7237      46.7237      46.7237 
  183000    93.008771   -7846.5415   -7317.0102   -749.91734     102002.7      46.7237      46.7237      46.7237 
  184000    93.382893   -7877.5377   -7345.8765   -737.72244     102002.7      46.7237      46.7237      46.7237 
  185000    88.935786   -7870.5102   -7364.1679   -912.61735     102002.7      46.7237      46.7237      46.7237 
  186000      89.5848   -7879.0395   -7369.0022   -502.34174     102002.7      46.7237      46.7237      46.7237 
  187000    90.667346   -7868.1359   -7351.9352   -565.67429     102002.7      46.7237      46.7237      46.7237 
  188000    90.764513   -7875.3497   -7358.5959   -741.06145     102002.7      46.7237      46.7237      46.7237 
  189000    90.634916   -7864.8354   -7348.8193   -647.72334     102002.7      46.7237      46.7237      46.7237 
  190000    90.768554   -7883.8327   -7367.0558   -752.36831     102002.7      46.7237      46.7237      46.7237 
  191000    91.326958   -7873.8375   -7353.8815   -763.79794     102002.7      46.7237      46.7237      46.7237 
  192000    90.100118   -7877.7439   -7364.7727   -519.20539     102002.7      46.7237      46.7237      46.7237 
  193000    92.476725   -7860.8415   -7334.3394    -663.9412     102002.7      46.7237      46.7237      46.7237 
  194000    92.370299   -7873.5942    -7347.698   -653.27809     102002.7      46.7237      46.7237      46.7237 
  195000    90.948256   -7864.5398   -7346.7398   -607.26956     102002.7      46.7237      46.7237      46.7237 
  196000    91.708204   -7869.6169   -7347.4902   -871.65848     102002.7      46.7237      46.7237      46.7237 
  197000    89.898989   -7855.9899   -7344.1637   -505.23602     102002.7      46.7237      46.7237      46.7237 
  198000    89.366165   -7880.9038   -7372.1112   -799.54527     102002.7      46.7237      46.7237      46.7237 
  199000    90.675022   -7873.6409   -7357.3965   -664.66772     102002.7      46.7237      46.7237      46.7237 
  200000    91.057821   -7880.6517   -7362.2279   -549.07183     102002.7      46.7237      46.7237      46.7237 
  201000    90.983358   -7866.6136   -7348.6137   -921.35191     102002.7      46.7237      46.7237      46.7237 
  202000    87.345082   -7893.7774   -7396.4915   -737.61938     102002.7      46.7237      46.7237      46.7237 
  203000     91.88904   -7868.6629   -7345.5067   -750.48484     102002.7      46.7237      46.7237      46.7237 
  204000    89.920568   -7873.1129   -7361.1639   -607.70597     102002.7      46.7237      46.7237      46.7237 
  205000    90.531242   -7852.6963   -7337.2705   -665.39094     102002.7      46.7237      46.7237      46.7237 
  206000    91.552154    -7861.955   -7340.7168   -518.14135     102002.7      46.7237      46.7237      46.7237 
  207000     90.70413   -7872.6576   -7356.2475   -575.93459     102002.7      46.7237      46.7237      46.7237 
  208000    90.318341     -7872.31   -7358.0963    -787.1785     102002.7      46.7237      46.7237      46.7237 
  209000    90.967361   -7879.6833   -7361.7745   -507.66657     102002.7      46.7237      46.7237      46.7237 
  210000    92.717573   -7895.4706   -7367.5972   -707.36656     102002.7      46.7237      46.7237      46.7237 
  211000    93.468801   -7883.2748   -7351.1245   -592.00951     102002.7      46.7237      46.7237      46.7237 
  212000    91.021437   -7869.4456    -7351.229   -624.68571     102002.7      46.7237      46.7237      46.7237 
  213000    89.775932   -7873.1578   -7362.0323   -910.43616     102002.7      46.7237      46.7237      46.7237 
  214000    91.831859   -7881.1743   -7358.3436   -542.55294     102002.7      46.7237      46.7237      46.7237 
  215000    95.210722   -7863.2152   -7321.1475   -577.74838     102002.7      46.7237      46.7237      46.7237 
  216000    91.888369   -7884.0251   -7360.8727   -521.56483     102002.7      46.7237      46.7237      46.7237 
  217000    91.991878   -7875.1439   -7351.4022    -562.0417     102002.7      46.7237      46.7237      46.7237 
  218000    90.708799   -7851.0194   -7334.5827     -790.795     102002.7      46.7237      46.7237      46.7237 
  219000    91.274163   -7888.5213   -7368.8658   -841.29659     102002.7      46.7237      46.7237      46.7237 
  220000    91.963218   -7875.8245    -7352.246   -525.68453     102002.7      46.7237      46.7237      46.7237 
  221000    88.909916   -7884.3488   -7378.1538   -608.27326     102002.7      46.7237      46.7237      46.7237 
  222000    90.057752     -7867.94     -7355.21   -807.14863     102002.7      46.7237      46.7237      46.7237 
  223000    90.154281   -7870.6127    -7357.333   -779.64884     102002.7      46.7237      46.7237      46.7237 
  224000    91.421241   -7867.1674   -7346.6746   -892.56579     102002.7      46.7237      46.7237      46.7237 
  225000    91.872562   -7868.0789   -7345.0166   -622.81257     102002.7      46.7237      46.7237      46.7237 
  226000     92.36214   -7883.8959   -7358.0462   -841.57636     102002.7      46.7237      46.7237      46.7237 
  227000    94.845025    -7869.761   -7329.7753   -864.96102     102002.7      46.7237      46.7237      46.7237 
  228000    92.870541   -7868.9702    -7340.226   -850.14591     102002.7      46.7237      46.7237      46.7237 
  229000     90.56189   -7890.7939   -7375.1936   -781.12286     102002.7      46.7237      46.7237      46.7237 
  230000    88.520665   -7864.7786   -7360.7998    -708.5793     102002.7      46.7237      46.7237      46.7237 
  231000    90.266826   -7883.4604     -7369.54   -844.99134     102002.7      46.7237      46.7237      46.7237 
  232000    90.260036    -7873.393   -7359.5113   -994.48152     102002.7      46.7237      46.7237      46.7237 
  233000     92.52891   -7878.0196   -7351.2204   -550.56507     102002.7      46.7237      46.7237      46.7237 
  234000    89.733015   -7862.8646   -7351.9834   -554.74273     102002.7      46.7237      46.7237      46.7237 
  235000    90.362893   -7870.2244   -7355.7571   -784.03582     102002.7      46.7237      46.7237      46.7237 
  236000    88.908178   -7871.3508   -7365.1657   -647.78307     102002.7      46.7237      46.7237      46.7237 
  237000    91.282563   -7894.0982   -7374.3949   -826.12298     102002.7      46.7237      46.7237      46.7237 
  238000    91.991972   -7878.3441   -7354.6019    -840.5942     102002.7      46.7237      46.7237      46.7237 
  239000    92.914659   -7880.7086   -7351.7132   -734.68496     102002.7      46.7237      46.7237      46.7237 
  240000    89.125346   -7879.8722   -7372.4506   -831.64206     102002.7      46.7237      46.7237      46.7237 
  241000     89.25497   -7860.0228   -7351.8633   -396.07491     102002.7      46.7237      46.7237      46.7237 
  242000     90.10093   -7859.0246   -7346.0487   -758.33447     102002.7      46.7237      46.7237      46.7237 
  243000    92.787821   -7873.4454   -7345.1721   -766.84757     102002.7      46.7237      46.7237      46.7237 
  244000    89.075684   -7881.7595   -7374.6207   -704.75431     102002.7      46.7237      46.7237      46.7237 
  245000    93.306512   -7869.9119   -7338.6855   -615.43557     102002.7      46.7237      46.7237      46.7237 
  246000    91.589306   -7862.3048   -7340.8551   -623.25914     102002.7      46.7237      46.7237      46.7237 
  247000    91.006767   -7871.7772    -7353.644   -639.82581     102002.7      46.7237      46.7237      46.7237 
  248000    89.015218   -7881.1582   -7374.3636   -712.58544     102002.7      46.7237      46.7237      46.7237 
  249000    91.157662   -7874.3538   -7355.3616   -628.53775     102002.7      46.7237      46.7237      46.7237 
  250000    92.267773   -7866.8877   -7341.5753   -736.67926     102002.7      46.7237      46.7237      46.7237 
  251000    89.884752     -7878.23   -7366.4849   -745.36546     102002.7      46.7237      46.7237      46.7237 
  252000    87.959521   -7866.0672   -7365.2831   -673.41566     102002.7      46.7237      46.7237      46.7237 
  253000    92.208004   -7862.2423   -7337.2702    -1025.665     102002.7      46.7237      46.7237      46.7237 
  254000    90.017379   -7885.6316   -7373.1314   -833.14448     102002.7      46.7237      46.7237      46.7237 
  255000     89.40004   -7877.2653   -7368.2798   -774.26067     102002.7      46.7237      46.7237      46.7237 
  256000    91.340572   -7888.7281   -7368.6945   -969.06202     102002.7      46.7237      46.7237      46.7237 
  257000    91.180071   -7877.6291   -7358.5093   -753.98296     102002.7      46.7237      46.7237      46.7237 
  258000    93.680864   -7856.2838   -7322.9261   -880.35191     102002.7      46.7237      46.7237      46.7237 
  259000    90.369138    -7852.302   -7337.7991   -839.05292     102002.7      46.7237      46.7237      46.7237 
  260000    88.924995   -7875.4352   -7369.1543   -856.93145     102002.7      46.7237      46.7237      46.7237 
  261000    92.098487    -7878.427   -7354.0784   -1109.3385     102002.7      46.7237      46.7237      46.7237 
  262000    87.991937   -7877.6636    -7376.695   -845.17906     102002.7      46.7237      46.7237      46.7237 
  263000    89.685306   -7870.4538   -7359.8442   -867.98831     102002.7      46.7237      46.7237      46.7237 
  264000    91.850651   -7862.3244   -7339.3867   -866.62557     102002.7      46.7237      46.7237      46.7237 
  265000     91.21277   -7859.5985   -7340.2925   -529.86914     102002.7      46.7237      46.7237      46.7237 
  266000    91.348702   -7878.2123   -7358.1324   -908.89147     102002.7      46.7237      46.7237      46.7237 
  267000    91.185956   -7877.6478   -7358.4945   -992.45629     102002.7      46.7237      46.7237      46.7237 
  268000    89.318455    -7858.435    -7349.914   -818.28191     102002.7      46.7237      46.7237      46.7237 
  269000    91.885627    -7859.244   -7336.1073   -937.26527     102002.7      46.7237      46.7237      46.7237 
  270000    88.721452    -7866.046   -7360.9239   -860.69804     102002.7      46.7237      46.7237      46.7237 
  271000    89.578586   -7881.0676   -7371.0656   -897.10198     102002.7      46.7237      46.7237      46.7237 
  272000    90.936793   -7866.1202   -7348.3854   -853.52454     102002.7      46.7237      46.7237      46.7237 
  273000    92.203421   -7870.5453   -7345.5992   -860.93568     102002.7      46.7237      46.7237      46.7237 
  274000     88.64389   -7887.9259   -7383.2454   -1296.0192     102002.7      46.7237      46.7237      46.7237 
  275000    90.583569   -7880.6069   -7364.8832   -920.53163     102002.7      46.7237      46.7237      46.7237 
  276000    91.320219   -7892.6461   -7372.7284   -1046.3596     102002.7      46.7237      46.7237      46.7237 
  277000     92.94923   -7898.5709   -7369.3786   -823.46966     102002.7      46.7237      46.7237      46.7237 
  278000    93.075076   -7867.1202   -7337.2115   -719.50353     102002.7      46.7237      46.7237      46.7237 
  279000    91.304966   -7881.2662   -7361.4354   -765.70861     102002.7      46.7237      46.7237      46.7237 
  280000    90.764822   -7873.3946   -7356.6389   -813.19835     102002.7      46.7237      46.7237      46.7237 
  281000     88.56643   -7865.7237   -7361.4843    -646.0835     102002.7      46.7237      46.7237      46.7237 
  282000    94.041393   -7862.5723   -7327.1619   -650.71861     102002.7      46.7237      46.7237      46.7237 
  283000    91.616694   -7866.3881   -7344.7824    -823.3691     102002.7      46.7237      46.7237      46.7237 
  284000    90.040156   -7884.6879    -7372.058   -504.93313     102002.7      46.7237      46.7237      46.7237 
  285000    91.403218    -7872.165   -7351.7747   -968.48463     102002.7      46.7237      46.7237      46.7237 
  286000    91.796244   -7871.7281   -7349.1002    -543.4787     102002.7      46.7237      46.7237      46.7237 
  287000    91.392411   -7871.2494   -7350.9206   -495.31818     102002.7      46.7237      46.7237      46.7237 
  288000     89.84087   -7871.5779   -7360.0827   -571.59944     102002.7      46.7237      46.7237      46.7237 
  289000    90.079422   -7871.3658   -7358.5124   -661.91273     102002.7      46.7237      46.7237      46.7237 
  290000     90.42066   -7858.6011   -7343.8049   -575.55969     102002.7      46.7237      46.7237      46.7237 
  291000    93.365975   -7867.2643   -7335.6994   -525.93992     102002.7      46.7237      46.7237      46.7237 
  292000    91.829541   -7877.8717   -7355.0542   -621.06522     102002.7      46.7237      46.7237      46.7237 
  293000    88.057231   -7880.8316   -7379.4912   -780.81908     102002.7      46.7237      46.7237      46.7237 
  294000     92.49461   -7867.6419    -7341.038   -586.33241     102002.7      46.7237      46.7237      46.7237 
  295000    91.829024   -7879.1434   -7356.3289   -593.09257     102002.7      46.7237      46.7237      46.7237 
  296000    90.694989   -7875.1471   -7358.7891   -542.81506     102002.7      46.7237      46.7237      46.7237 
  297000    91.348255   -7876.5279   -7356.4506   -1232.1776     102002.7      46.7237      46.7237      46.7237 
  298000    92.749992   -7862.4433   -7334.3854   -555.38723     102002.7      46.7237      46.7237      46.7237 
  299000    94.340609   -7875.7834   -7338.6696   -619.53961     102002.7      46.7237      46.7237      46.7237 
  300000    90.389962   -7887.8882   -7373.2667   -937.72214     102002.7      46.7237      46.7237      46.7237 
  301000    90.065141   -7877.3443   -7364.5722   -668.45497     102002.7      46.7237      46.7237      46.7237 
  302000    92.106559   -7872.0494   -7347.6548   -729.90447     102002.7      46.7237      46.7237      46.7237 
  303000    89.826583   -7858.3572   -7346.9433   -895.82586     102002.7      46.7237      46.7237      46.7237 
  304000    93.183719   -7877.9208   -7347.3936    -892.3908     102002.7      46.7237      46.7237      46.7237 
  305000    90.582442   -7856.8735   -7341.1562   -577.16921     102002.7      46.7237      46.7237      46.7237 
  306000    89.352383   -7873.6812    -7364.967    -768.2934     102002.7      46.7237      46.7237      46.7237 
  307000    89.738613   -7872.5471   -7361.6341   -969.32436     102002.7      46.7237      46.7237      46.7237 
  308000     91.42443    -7877.441     -7356.93   -823.63071     102002.7      46.7237      46.7237      46.7237 
  309000    90.306914   -7877.9809   -7363.8323   -1038.2779     102002.7      46.7237      46.7237      46.7237 
  310000    92.180586   -7878.6778   -7353.8618   -920.80871     102002.7      46.7237      46.7237      46.7237 
  311000    92.464735    -7869.877   -7343.4432   -928.96484     102002.7      46.7237      46.7237      46.7237 
  312000    87.613591   -7875.6414   -7376.8268   -792.19148     102002.7      46.7237      46.7237      46.7237 
  313000     91.50273    -7872.023   -7351.0662   -677.43794     102002.7      46.7237      46.7237      46.7237 
  314000    92.167096   -7874.1982   -7349.4589   -944.74973     102002.7      46.7237      46.7237      46.7237 
  315000      92.0168   -7860.5603   -7336.6767   -941.07346     102002.7      46.7237      46.7237      46.7237 
  316000    90.260399    -7868.389   -7354.5052   -584.44208     102002.7      46.7237      46.7237      46.7237 
  317000    89.788387   -7856.7614   -7345.5649   -407.61093     102002.7      46.7237      46.7237      46.7237 
  318000    89.889779   -7855.7056   -7343.9319   -891.70305     102002.7      46.7237      46.7237      46.7237 
  319000    88.498205   -7870.8813   -7367.0303   -601.54076     102002.7      46.7237      46.7237      46.7237 
  320000    91.338112   -7876.9716    -7356.952   -636.73065     102002.7      46.7237      46.7237      46.7237 
  321000    92.152138   -7863.4726   -7338.8185   -815.74484     102002.7      46.7237      46.7237      46.7237 
  322000    90.551968   -7871.3942   -7355.8504   -976.03234     102002.7      46.7237      46.7237      46.7237 
  323000    90.149602   -7866.1717   -7352.9187   -825.21106     102002.7      46.7237      46.7237      46.7237 
  324000    90.008792   -7895.3179   -7382.8666   -591.41298     102002.7      46.7237      46.7237      46.7237 
  325000    93.456057   -7880.5687   -7348.4909    -808.1847     102002.7      46.7237      46.7237      46.7237 
  326000    89.625542   -7864.0495   -7353.7802   -1008.7827     102002.7      46.7237      46.7237      46.7237 
  327000    91.075184   -7887.8069   -7369.2843   -877.15317     102002.7      46.7237      46.7237      46.7237 
  328000    91.898604   -7884.2821   -7361.0715   -856.30199     102002.7      46.7237      46.7237      46.7237 
  329000    90.062199   -7861.4028   -7348.6474   -776.55512     102002.7      46.7237      46.7237      46.7237 
  330000    88.761965   -7885.2649   -7379.9122   -704.23041     102002.7      46.7237      46.7237      46.7237 
  331000    89.917734   -7875.6334   -7363.7005    -986.9273     102002.7      46.7237      46.7237      46.7237 
  332000    90.293194   -7887.4579   -7373.3874   -905.14668     102002.7      46.7237      46.7237      46.7237 
  333000    91.222376   -7878.6353   -7359.2747   -618.30032     102002.7      46.7237      46.7237      46.7237 
  334000    91.334586   -7852.6335    -7332.634   -828.10908     102002.7      46.7237      46.7237      46.7237 
  335000    89.183129   -7881.8464   -7374.0959   -891.70924     102002.7      46.7237      46.7237      46.7237 
  336000    89.466099   -7875.9676   -7366.6061   -757.52541     102002.7      46.7237      46.7237      46.7237 
  337000    89.393204   -7857.5104   -7348.5638   -703.48545     102002.7      46.7237      46.7237      46.7237 
  338000    92.127498   -7869.6059   -7345.0921   -718.42617     102002.7      46.7237      46.7237      46.7237 
  339000    89.165516   -7869.4994   -7361.8491   -424.75267     102002.7      46.7237      46.7237      46.7237 
  340000    94.491151   -7880.8948   -7342.9239   -719.28287     102002.7      46.7237      46.7237      46.7237 
  341000     89.29747   -7900.8868   -7392.4853   -633.61308     102002.7      46.7237      46.7237      46.7237 
  342000     91.32789   -7865.6611   -7345.6997   -720.99558     102002.7      46.7237      46.7237      46.7237 
  343000      91.3046   -7864.6807   -7344.8519    -539.7721     102002.7      46.7237      46.7237      46.7237 
  344000    89.012172    -7875.293   -7368.5158   -478.05388     102002.7      46.7237      46.7237      46.7237 
  345000     92.27206   -7863.7779   -7338.4411   -953.46926     102002.7      46.7237      46.7237      46.7237 
  346000    91.460265   -7886.8461   -7366.1311   -991.31612     102002.7      46.7237      46.7237      46.7237 
  347000    92.256522   -7879.7521   -7354.5037   -681.80088     102002.7      46.7237      46.7237      46.7237 
  348000    94.282679   -7882.4251   -7345.6411   -750.32858     102002.7      46.7237      46.7237      46.7237 
  349000    95.664224   -7855.8112   -7311.1615   -576.07969     102002.7      46.7237      46.7237      46.7237 
  350000    90.105907   -7860.6682    -7347.664   -738.25061     102002.7      46.7237      46.7237      46.7237 
  351000    89.776851   -7849.8969   -7338.7661   -783.67972     102002.7      46.7237      46.7237      46.7237 
  352000    91.750022   -7868.5198   -7346.1551   -662.66846     102002.7      46.7237      46.7237      46.7237 
  353000    91.643912   -7874.3199   -7352.5593   -791.39532     102002.7      46.7237      46.7237      46.7237 
  354000    91.284268   -7871.3155   -7351.6025   -620.24003     102002.7      46.7237      46.7237      46.7237 
  355000    93.495478    -7868.254   -7335.9518   -849.46866     102002.7      46.7237      46.7237      46.7237 
  356000    91.119158   -7873.5097   -7354.7367   -782.75199     102002.7      46.7237      46.7237      46.7237 
  357000    90.835408   -7882.9241   -7365.7666   -777.67841     102002.7      46.7237      46.7237      46.7237 
  358000    92.631299   -7855.0009   -7327.6188   -507.79355     102002.7      46.7237      46.7237      46.7237 
  359000    93.289923   -7888.0844   -7356.9525   -688.93459     102002.7      46.7237      46.7237      46.7237 
  360000    92.314406   -7870.1098   -7344.5318    -645.1827     102002.7      46.7237      46.7237      46.7237 
  361000    88.159773   -7867.1575   -7365.2333   -723.24122     102002.7      46.7237      46.7237      46.7237 
  362000     89.63605   -7865.7726   -7355.4435   -735.43215     102002.7      46.7237      46.7237      46.7237 
  363000     90.78917   -7867.1679   -7350.2736   -574.50121     102002.7      46.7237      46.7237      46.7237 
  364000    90.787533   -7846.7192   -7329.8343   -800.04294     102002.7      46.7237      46.7237      46.7237 
  365000    89.021961   -7869.5968   -7362.7639   -753.79077     102002.7      46.7237      46.7237      46.7237 
  366000     91.49945   -7868.3037   -7347.3656   -542.08809     102002.7      46.7237      46.7237      46.7237 
  367000    93.194724   -7857.7112   -7327.1213   -733.93063     102002.7      46.7237      46.7237      46.7237 
  368000    90.304182   -7862.5832   -7348.4501   -874.03801     102002.7      46.7237      46.7237      46.7237 
  369000    93.666816   -7859.5436   -7326.2659   -595.37676     102002.7      46.7237      46.7237      46.7237 
  370000    90.987076   -7882.3882   -7364.3672    -705.6528     102002.7      46.7237      46.7237      46.7237 
  371000    91.825753   -7866.2893   -7343.4934   -542.01553     102002.7      46.7237      46.7237      46.7237 
  372000    92.551858   -7873.5865   -7346.6566   -506.36462     102002.7      46.7237      46.7237      46.7237 
  373000    89.314862   -7891.3626   -7382.8621   -564.23786     102002.7      46.7237      46.7237      46.7237 
  374000    95.478875   -7897.2743   -7353.6799   -965.51671     102002.7      46.7237      46.7237      46.7237 
  375000    88.209121   -7876.4997   -7374.2945   -815.66012     102002.7      46.7237      46.7237      46.7237 
  376000    89.821013   -7874.4698   -7363.0876   -494.97518     102002.7      46.7237      46.7237      46.7237 
  377000    92.155087   -7882.8459    -7358.175   -845.29673     102002.7      46.7237      46.7237      46.7237 
  378000     88.02678   -7857.2156   -7356.0486   -564.86389     102002.7      46.7237      46.7237      46.7237 
  379000    91.111675   -7885.2206   -7366.4902   -484.34678     102002.7      46.7237      46.7237      46.7237 
  380000    87.555684   -7880.3104   -7381.8254   -987.54705     102002.7      46.7237      46.7237      46.7237 
  381000    92.551998   -7871.6927    -7344.762   -1055.8132     102002.7      46.7237      46.7237      46.7237 
  382000    91.094086   -7863.6908   -7345.0606   -768.19071     102002.7      46.7237      46.7237      46.7237 
  383000    89.458745   -7871.1417    -7361.822   -797.48604     102002.7      46.7237      46.7237      46.7237 
  384000    86.872349   -7872.7311   -7378.1366   -989.57752     102002.7      46.7237      46.7237      46.7237 
  385000    90.322779   -7874.1646   -7359.9257   -779.53444     102002.7      46.7237      46.7237      46.7237 
  386000    90.821783   -7871.5419   -7354.4619   -700.41434     102002.7      46.7237      46.7237      46.7237 
  387000    92.793387   -7878.1401   -7349.8351   -579.60101     102002.7      46.7237      46.7237      46.7237 
  388000    89.213905   -7860.4477   -7352.5219   -751.73038     102002.7      46.7237      46.7237      46.7237 
  389000    89.137886    -7862.124   -7354.6311   -713.99235     102002.7      46.7237      46.7237      46.7237 
  390000    93.419187   -7878.2815   -7346.4136   -795.94203     102002.7      46.7237      46.7237      46.7237 
  391000     94.48528    -7882.657   -7344.7195   -756.09975     102002.7      46.7237      46.7237      46.7237 
  392000    90.851591   -7873.9436   -7356.6939   -879.77707     102002.7      46.7237      46.7237      46.7237 
  393000    89.868198   -7870.5422   -7358.8913    -852.8712     102002.7      46.7237      46.7237      46.7237 
  394000    90.975918   -7857.4929   -7339.5354   -784.22123     102002.7      46.7237      46.7237      46.7237 
  395000    89.815186   -7863.2783   -7351.9293   -480.60651     102002.7      46.7237      46.7237      46.7237 
  396000    92.619714   -7854.5676   -7327.2514   -1043.8114     102002.7      46.7237      46.7237      46.7237 
  397000    88.914441    -7868.283   -7362.0623   -644.66678     102002.7      46.7237      46.7237      46.7237 
  398000    90.869838   -7859.7116   -7342.3581   -877.61994     102002.7      46.7237      46.7237      46.7237 
  399000    93.537854   -7863.9792   -7331.4357   -881.80389     102002.7      46.7237      46.7237      46.7237 
  400000    89.907928   -7864.8567   -7352.9796   -555.33741     102002.7      46.7237      46.7237      46.7237 
  401000    88.172846   -7876.4345   -7374.4359   -681.43474     102002.7      46.7237      46.7237      46.7237 
  402000    91.135616   -7878.0937    -7359.227    -815.6975     102002.7      46.7237      46.7237      46.7237 
  403000    91.124051   -7859.4517   -7340.6508   -905.98352     102002.7      46.7237      46.7237      46.7237 
  404000     90.49625   -7869.0915   -7353.8649   -913.63306     102002.7      46.7237      46.7237      46.7237 
  405000    95.021055   -7869.4322   -7328.4443   -800.57187     102002.7      46.7237      46.7237      46.7237 
  406000    92.964971   -7873.0298   -7343.7479    -645.8365     102002.7      46.7237      46.7237      46.7237 
  407000    89.862411   -7865.6754   -7354.0575   -1030.1716     102002.7      46.7237      46.7237      46.7237 
  408000     90.98637   -7883.1719   -7365.1549   -815.51791     102002.7      46.7237      46.7237      46.7237 
  409000    90.084308   -7867.5869   -7354.7057   -1001.8083     102002.7      46.7237      46.7237      46.7237 
  410000     91.78632   -7858.2881   -7335.7167   -1109.5111     102002.7      46.7237      46.7237      46.7237 
  411000    90.945117   -7871.9754   -7354.1933   -977.93076     102002.7      46.7237      46.7237      46.7237 
  412000    91.429748   -7857.9688   -7337.4275    -1042.064     102002.7      46.7237      46.7237      46.7237 
  413000    88.254259   -7867.5769   -7365.1148   -915.16505     102002.7      46.7237      46.7237      46.7237 
  414000    89.842176   -7862.9638   -7351.4611    -915.7762     102002.7      46.7237      46.7237      46.7237 
  415000    90.515464   -7852.0631   -7336.7271   -742.65975     102002.7      46.7237      46.7237      46.7237 
  416000    91.613379   -7862.9515   -7341.3648   -872.20139     102002.7      46.7237      46.7237      46.7237 
  417000    89.910494   -7885.4037    -7373.512   -782.48949     102002.7      46.7237      46.7237      46.7237 
  418000    91.100645   -7861.5307   -7342.8631    -921.6056     102002.7      46.7237      46.7237      46.7237 
  419000    92.314306   -7888.0971   -7362.5197   -861.04999     102002.7      46.7237      46.7237      46.7237 
  420000    90.049211   -7873.7549   -7361.0735   -658.43495     102002.7      46.7237      46.7237      46.7237 
  421000    94.995603   -7848.0608   -7307.2179   -645.51658     102002.7      46.7237      46.7237      46.7237 
  422000    88.787026    -7870.124   -7364.6287   -620.47833     102002.7      46.7237      46.7237      46.7237 
  423000    89.363415   -7859.7614   -7350.9844   -1028.0499     102002.7      46.7237      46.7237      46.7237 
  424000    90.613107   -7860.5605   -7344.6686   -912.07271     102002.7      46.7237      46.7237      46.7237 
  425000    88.655472   -7880.5026   -7375.7562   -767.35192     102002.7      46.7237      46.7237      46.7237 
  426000    92.878428   -7876.4686   -7347.6794   -782.44856     102002.7      46.7237      46.7237      46.7237 
  427000    89.081809   -7869.8991   -7362.7254   -804.89162     102002.7      46.7237      46.7237      46.7237 
  428000    89.838726   -7863.6305   -7352.1474   -820.76456     102002.7      46.7237      46.7237      46.7237 
  429000    91.997664   -7861.1312   -7337.3565   -901.40167     102002.7      46.7237      46.7237      46.7237 
  430000    90.236537   -7871.9787   -7358.2308   -799.29638     102002.7      46.7237      46.7237      46.7237 
  431000    89.532593   -7877.6871    -7367.947    -689.2498     102002.7      46.7237      46.7237      46.7237 
  432000    87.561497   -7886.2793   -7387.7613   -827.74679     102002.7      46.7237      46.7237      46.7237 
  433000     93.13534   -7868.8627   -7338.6109   -586.00084     102002.7      46.7237      46.7237      46.7237 
  434000    90.645328   -7869.0623   -7352.9869   -831.05749     102002.7      46.7237      46.7237      46.7237 
  435000    91.128512   -7876.5646   -7357.7384   -806.01971     102002.7      46.7237      46.7237      46.7237 
  436000    91.948577    -7867.214   -7343.7188   -714.49193     102002.7      46.7237      46.7237      46.7237 
  437000    89.613602   -7882.7256   -7372.5243   -926.84461     102002.7      46.7237      46.7237      46.7237 
  438000    91.304897   -7884.0189   -7364.1884   -637.85626     102002.7      46.7237      46.7237      46.7237 
  439000    94.801994   -7867.3564   -7327.6157   -870.70088     102002.7      46.7237      46.7237      46.7237 
  440000    89.889782   -7867.1808   -7355.4071   -849.19636     102002.7      46.7237      46.7237      46.7237 
  441000    89.410722   -7876.2694   -7367.2232   -557.15055     102002.7      46.7237      46.7237      46.7237 
  442000    91.472558   -7864.0033   -7343.2183   -906.10883     102002.7      46.7237      46.7237      46.7237 
  443000    92.452772   -7849.2563   -7322.8905   -923.08952     102002.7      46.7237      46.7237      46.7237 
  444000    90.457782   -7877.9205   -7362.9129   -591.53094     102002.7      46.7237      46.7237      46.7237 
  445000    90.042987    -7884.905    -7372.259   -790.67207     102002.7      46.7237      46.7237      46.7237 
  446000    92.022799   -7870.2069   -7346.2892   -864.43823     102002.7      46.7237      46.7237      46.7237 
  447000    91.338433   -7885.4681   -7365.4467   -676.84904     102002.7      46.7237      46.7237      46.7237 
  448000    92.027619   -7880.1433   -7356.1981   -1103.9146     102002.7      46.7237      46.7237      46.7237 
  449000    92.825186   -7874.5614   -7346.0754   -684.11545     102002.7      46.7237      46.7237      46.7237 
  450000    83.981763   -7863.9911   -7385.8537   -861.02236     102002.7      46.7237      46.7237      46.7237 
  451000    90.990331   -7863.3367   -7345.2972   -775.43061     102002.7      46.7237      46.7237      46.7237 
  452000    89.277842   -7885.1806   -7376.8909   -836.84262     102002.7      46.7237      46.7237      46.7237 
  453000    90.203971   -7848.5562   -7334.9936   -924.83505     102002.7      46.7237      46.7237      46.7237 
  454000    89.898211   -7869.3967   -7357.5749   -638.49365     102002.7      46.7237      46.7237      46.7237 
  455000    93.266842   -7882.1003   -7351.0998    -832.0411     102002.7      46.7237      46.7237      46.7237 
  456000    92.260257    -7866.517   -7341.2473   -780.94757     102002.7      46.7237      46.7237      46.7237 
  457000    91.193433   -7864.8236   -7345.6278   -953.44439     102002.7      46.7237      46.7237      46.7237 
  458000     91.46615   -7879.0989   -7358.3504   -770.36099     102002.7      46.7237      46.7237      46.7237 
  459000    88.677106   -7858.8354   -7353.9658   -525.93538     102002.7      46.7237      46.7237      46.7237 
  460000    90.665829   -7860.0077   -7343.8156   -977.87494     102002.7      46.7237      46.7237      46.7237 
  461000    91.659722   -7870.8852   -7349.0346   -512.95899     102002.7      46.7237      46.7237      46.7237 
  462000    89.354386    -7870.486   -7361.7604      -790.13     102002.7      46.7237      46.7237      46.7237 
  463000    91.592798   -7864.5135   -7343.0439   -617.18235     102002.7      46.7237      46.7237      46.7237 
  464000    91.594931   -7885.7957    -7364.314   -748.58197     102002.7      46.7237      46.7237      46.7237 
  465000    90.809353   -7870.5851   -7353.5759   -679.01246     102002.7      46.7237      46.7237      46.7237 
  466000    91.505755   -7876.9676   -7355.9936   -662.75906     102002.7      46.7237      46.7237      46.7237 
  467000    90.218301   -7888.2186   -7374.5744   -640.43263     102002.7      46.7237      46.7237      46.7237 
  468000    87.844524   -7866.1269   -7365.9975   -557.85101     102002.7      46.7237      46.7237      46.7237 
  469000    92.133956   -7869.3486    -7344.798   -604.51558     102002.7      46.7237      46.7237      46.7237 
  470000    92.016526   -7868.9194   -7345.0373   -578.82113     102002.7      46.7237      46.7237      46.7237 
  471000    91.966057   -7890.0884   -7366.4937   -532.60598     102002.7      46.7237      46.7237      46.7237 
  472000    90.448274   -7869.7084    -7354.755   -846.65374     102002.7      46.7237      46.7237      46.7237 
  473000    92.108271    -7865.049   -7340.6446   -655.87094     102002.7      46.7237      46.7237      46.7237 
  474000     92.27883   -7866.5123   -7341.1369   -506.91718     102002.7      46.7237      46.7237      46.7237 
  475000    91.357251   -7865.8792   -7345.7506   -907.13588     102002.7      46.7237      46.7237      46.7237 
  476000     91.92694   -7879.3979    -7356.026   -731.49704     102002.7      46.7237      46.7237      46.7237 
  477000    90.468409   -7859.5586   -7344.4906    -702.2553     102002.7      46.7237      46.7237      46.7237 
  478000    90.408232   -7861.7588   -7347.0333   -639.32252     102002.7      46.7237      46.7237      46.7237 
  479000     90.68012   -7877.6349   -7361.3615   -564.92813     102002.7      46.7237      46.7237      46.7237 
  480000    91.382722     -7880.28   -7360.0065   -982.50006     102002.7      46.7237      46.7237      46.7237 
  481000    90.129298   -7859.5305   -7346.3931   -639.98543     102002.7      46.7237      46.7237      46.7237 
  482000    91.938527   -7871.5649   -7348.1269   -653.91266     102002.7      46.7237      46.7237      46.7237 
  483000    93.027241   -7867.0954    -7337.459   -718.45359     102002.7      46.7237      46.7237      46.7237 
  484000    90.694429   -7858.8809   -7342.5261   -540.99692     102002.7      46.7237      46.7237      46.7237 
  485000    88.863968   -7889.4754    -7383.542   -629.37576     102002.7      46.7237      46.7237      46.7237 
  486000     91.74616   -7867.7243   -7345.3815   -764.15481     102002.7      46.7237      46.7237      46.7237 
  487000    89.648608   -7868.5217    -7358.121   -472.76609     102002.7      46.7237      46.7237      46.7237 
  488000     91.35233   -7885.4581   -7365.3576   -548.20382     102002.7      46.7237      46.7237      46.7237 
  489000    92.170178   -7871.8602   -7347.1034   -479.18201     102002.7      46.7237      46.7237      46.7237 
  490000    88.682503   -7862.7763   -7357.8761   -586.06595     102002.7      46.7237      46.7237      46.7237 
  491000    93.356397   -7878.8113   -7347.3009   -594.07395     102002.7      46.7237      46.7237      46.7237 
  492000    90.825167   -7876.4661   -7359.3669    -534.0915     102002.7      46.7237      46.7237      46.7237 
  493000    91.481386    -7871.949   -7351.1137   -601.77316     102002.7      46.7237      46.7237      46.7237 
  494000     92.66727   -7860.7829    -7333.196   -910.35467     102002.7      46.7237      46.7237      46.7237 
  495000    89.980895   -7855.6814    -7343.389   -777.99982     102002.7      46.7237      46.7237      46.7237 
  496000    89.426972   -7876.9094   -7367.7706   -644.81133     102002.7      46.7237      46.7237      46.7237 
  497000    88.993691   -7870.3548   -7363.6828   -743.18797     102002.7      46.7237      46.7237      46.7237 
  498000    89.391075   -7880.7357   -7371.8013   -1069.6729     102002.7      46.7237      46.7237      46.7237 
  499000    91.536948   -7850.0964   -7328.9448   -684.71109     102002.7      46.7237      46.7237      46.7237 
  500000    90.551554   -7868.6912   -7353.1498   -857.79655     102002.7      46.7237      46.7237      46.7237 
  500501    90.536764    -7873.936   -7358.4788   -699.65038     102002.7      46.7237      46.7237      46.7237 
Loop time of 1390.97 on 16 procs for 500000 steps with 1911 atoms

Performance: 31.058 ns/day, 0.773 hours/ns, 359.462 timesteps/s
99.8% CPU use with 16 MPI tasks x no OpenMP threads

MPI task timing breakdown:
Section |  min time  |  avg time  |  max time  |%varavg| %total
---------------------------------------------------------------
Pair    | 504.55     | 734.38     | 979.28     | 626.5 | 52.80
Bond    | 153.96     | 174.29     | 196.45     | 112.9 | 12.53
Neigh   | 5.5293     | 5.5552     | 5.6016     |   1.0 |  0.40
Comm    | 200.9      | 463.01     | 701.07     | 850.6 | 33.29
Output  | 0.021191   | 0.021621   | 0.024632   |   0.5 |  0.00
Modify  | 7.443      | 8.2757     | 9.2943     |  20.8 |  0.59
Other   |            | 5.442      |            |       |  0.39

Nlocal:    119.438 ave 150 max 94 min
Histogram: 1 2 2 3 1 2 3 0 0 2
Nghost:    2405 ave 2437 max 2369 min
Histogram: 1 1 1 0 5 2 3 1 1 1
Neighs:    11455.8 ave 17382 max 6548 min
Histogram: 2 4 1 0 2 2 0 1 2 2

Total # of neighbors = 183292
Ave neighs/atom = 95.9142
Ave special neighs/atom = 6.02826
Neighbor list builds = 3772
Dangerous builds = 0
Neighbor list info ...
  update every 1 steps, delay 10 steps, check yes
  max neighbors/atom: 2000, page size: 100000
  master list distance cutoff = 16
  ghost atom cutoff = 16
  binsize = 8, bins = 6 6 6
  3 neighbor lists, perpetual/occasional/extra = 3 0 0
  (1) pair buck6d/coul/gauss/dsf, perpetual, skip from (3)
      attributes: half, newton on
      pair build: skip
      stencil: none
      bin: none
  (2) pair lj/cut, perpetual, skip from (3)
      attributes: half, newton on
      pair build: skip
      stencil: none
      bin: none
  (3) neighbor class addition, perpetual
      attributes: half, newton on
      pair build: half/bin/newton
      stencil: half/bin/3d/newton
      bin: standard
Setting up Verlet run ...
  Unit style    : real
  Current step  : 500501
  Time step     : 1
WARNING: Inconsistent image flags (../domain.cpp:786)
Per MPI rank memory allocation (min/avg/max) = 22.89 | 23.25 | 23.35 Mbytes
Step Time TotEng KinEng PotEng E_mol E_pair Temp Pxx Pyy Pzz Pxy Pxz Pyz Cella Cellb Cellc CellAlpha CellBeta CellGamma Volume Press 
  500501       500000   -7358.4788    515.45723    -7873.936    4198.6508   -12072.587    90.536764   -540.06211   -685.30634   -873.58269    87.352283   -215.56435    100.41235      46.7237      46.7237      46.7237           90           90           90     102002.7   -699.65038 
  501000       500499   -7359.9564    503.07016   -7863.0266    4207.6359   -12070.662    88.361055   -957.11781   -612.49721   -939.13537      43.9374    14.055335   -133.08523      46.7237      46.7237      46.7237           90           90           90     102002.7   -836.25013 
  502000       501499   -7374.5406    509.16962   -7883.7103    4187.2582   -12070.968    89.432385   -881.89086   -1001.5596   -775.11282    233.28573   -20.133985   -125.27266      46.7237      46.7237      46.7237           90           90           90     102002.7   -886.18776 
  503000       502499   -7340.6248    525.70199   -7866.3268     4214.758   -12081.085     92.33619   -969.75767   -884.72112   -804.54444    -68.47468   -165.27144   -99.568141      46.7237      46.7237      46.7237           90           90           90     102002.7   -886.34107 
  504000       503499   -7328.9295    534.56641   -7863.4959    4212.9854   -12076.481    93.893168   -915.15131   -493.98736   -961.38441    155.20906   -93.001115    35.400524      46.7237      46.7237      46.7237           90           90           90     102002.7   -790.17436 
  505000       504499    -7369.669    517.39832   -7887.0673    4181.5693   -12068.637    90.877704   -933.07313    -652.0268   -983.40488   -60.014792     -46.4331    147.89149      46.7237      46.7237      46.7237           90           90           90     102002.7   -856.16827 
  506000       505499   -7355.7789    522.81516   -7878.5941    4204.7397   -12083.334    91.829137   -868.01744   -623.69374   -975.52667    89.502593   -65.931118    185.73577      46.7237      46.7237      46.7237           90           90           90     102002.7   -822.41262 
  507000       506499   -7359.7617     518.5806   -7878.3423    4187.7824   -12066.125    91.085364   -545.58864   -765.40178   -468.26781    32.503576    194.22916   -74.924065      46.7237      46.7237      46.7237           90           90           90     102002.7   -593.08607 
  508000       507499   -7355.8868    506.58589   -7862.4727    4224.4209   -12086.894     88.97857   -868.45887   -819.80061   -949.95558   -164.42864   -59.948988    101.02696      46.7237      46.7237      46.7237           90           90           90     102002.7   -879.40502 
  509000       508499   -7348.7843    519.59312   -7868.3774    4214.0112   -12082.389    91.263206   -672.52865   -887.49859   -783.39689    3.6287342    20.080766   -10.160599      46.7237      46.7237      46.7237           90           90           90     102002.7   -781.14138 
  510000       509499   -7358.0558    517.72309   -7875.7789    4195.3536   -12071.133    90.934747   -965.53184   -1011.0979   -406.10866   -125.16638    33.227738   -150.37845      46.7237      46.7237      46.7237           90           90           90     102002.7   -794.24613 
  511000       510499   -7333.8109    517.84883   -7851.6597     4232.083   -12083.743    90.956833   -1032.6494   -993.30173   -710.55622    5.6957823   -173.04624    117.90153      46.7237      46.7237      46.7237           90           90           90     102002.7   -912.16912 
  512000       511499    -7382.398    505.59825   -7887.9962     4162.153   -12050.149    88.805096    -936.6996   -510.80961   -812.34785   0.90285579    13.626012   -25.742634      46.7237      46.7237      46.7237           90           90           90     102002.7   -753.28569 
  513000       512499   -7354.9098    517.96353   -7872.8734    4202.8816   -12075.755     90.97698   -678.35884   -797.38803   -1046.1248    8.6549794   -216.59169    3.4729348      46.7237      46.7237      46.7237           90           90           90     102002.7    -840.6239 
  514000       513499   -7375.3232    508.04158   -7883.3648    4214.2748    -12097.64    89.234253   -988.92503   -982.27053   -522.77444    143.33137   -53.757838   -145.35938      46.7237      46.7237      46.7237           90           90           90     102002.7   -831.32333 
  515000       514499   -7335.5945    515.78809   -7851.3826    4225.6386   -12077.021    90.594877   -496.17321   -773.38404   -697.77456    3.4478324     4.323308    27.971855      46.7237      46.7237      46.7237           90           90           90     102002.7   -655.77727 
  516000       515499   -7374.2343    511.41281   -7885.6471    4185.3883   -12071.035    89.826386   -760.06012   -807.08518    -1221.074    154.38388   -44.363566   -14.267834      46.7237      46.7237      46.7237           90           90           90     102002.7   -929.40644 
  517000       516499   -7351.0091    529.84435   -7880.8534    4188.9214   -12069.775     93.06377   -585.96771    -806.2293   -563.66424   -150.65376    24.467257    41.325403      46.7237      46.7237      46.7237           90           90           90     102002.7   -651.95375 
  518000       517499   -7348.1134    515.04225   -7863.1557    4190.0733   -12053.229    90.463875   -881.28848   -566.83874   -544.48614  -0.79884863   -28.612312   -8.8895715      46.7237      46.7237      46.7237           90           90           90     102002.7   -664.20446 
  519000       518499   -7359.4135    519.22858   -7878.6421    4183.1437   -12061.786    91.199177   -1016.5856   -577.73343   -932.46496    45.320865   -84.338809    179.46682      46.7237      46.7237      46.7237           90           90           90     102002.7   -842.26132 
  520000       519499   -7346.0908    534.62203   -7880.7129    4207.4781   -12088.191    93.902938   -820.31249   -494.94001   -637.32759   -74.993201   -86.731794    91.339654      46.7237      46.7237      46.7237           90           90           90     102002.7   -650.86003 
  521000       520499     -7371.12    499.73538   -7870.8554    4191.4169   -12062.272    87.775322    -1089.607   -915.39395   -996.53785     45.00334    58.069127    61.431302      46.7237      46.7237      46.7237           90           90           90     102002.7   -1000.5129 
  522000       521499   -7331.1656    518.71259   -7849.8782    4213.8363   -12063.715    91.108547   -410.73653   -717.22993   -743.87942   -67.967376    41.562417   -102.10806      46.7237      46.7237      46.7237           90           90           90     102002.7   -623.94863 
  523000       522499   -7347.2357    523.48344   -7870.7191    4196.6447   -12067.364    91.946515   -1048.1153   -1121.0322   -846.22272    228.77825   -130.38769   -21.814966      46.7237      46.7237      46.7237           90           90           90     102002.7   -1005.1234 
  524000       523499   -7356.9578    523.44658   -7880.4044    4186.5661   -12066.971    91.940041   -775.96111   -778.38412   -913.80775    45.247843   -9.2899449   -105.30842      46.7237      46.7237      46.7237           90           90           90     102002.7   -822.71766 
  525000       524499   -7357.7811    517.32096   -7875.1021    4198.1285   -12073.231    90.864117    -880.9315   -817.70222   -1096.4534    128.57219   -68.285046   -84.804364      46.7237      46.7237      46.7237           90           90           90     102002.7   -931.69571 
  526000       525499   -7318.2729    531.05139   -7849.3243    4224.1237   -12073.448    93.275778   -865.01973   -1021.3214   -578.33279    156.84907   -145.70312   -319.96979      46.7237      46.7237      46.7237           90           90           90     102002.7   -821.55796 
  527000       526499   -7369.2485    512.99909   -7882.2476    4199.0421    -12081.29    90.105008   -790.16841   -468.52462   -629.81132     105.1972   -100.40201     92.57651      46.7237      46.7237      46.7237           90           90           90     102002.7   -629.50145 
  528000       527499    -7340.937    528.16861   -7869.1056    4207.4839    -12076.59    92.769437   -724.23171   -902.31196   -1404.2823    168.05623   -387.12821   -133.58423      46.7237      46.7237      46.7237           90           90           90     102002.7   -1010.2753 
  529000       528499   -7353.6358    520.21976   -7873.8555     4199.115   -12072.971    91.373271   -887.99943    -1074.373   -1187.8953    59.395243    118.86357   -50.245492      46.7237      46.7237      46.7237           90           90           90     102002.7   -1050.0892 
  530000       529499   -7360.1746    515.83025   -7876.0048    4207.8123   -12083.817    90.602282   -855.86374   -1357.0814   -977.02117    95.929341    86.590358     81.67088      46.7237      46.7237      46.7237           90           90           90     102002.7   -1063.3221 
  531000       530499   -7350.1148    511.62018    -7861.735    4215.2093   -12076.944    89.862811   -882.88436     -900.074   -1030.3873    190.79714   -225.09322   -244.32263      46.7237      46.7237      46.7237           90           90           90     102002.7   -937.78189 
  532000       531499    -7369.478    511.37039   -7880.8484    4188.4218    -12069.27    89.818937   -702.03548   -583.97322    -845.3455    122.98468   -239.49822    182.60133      46.7237      46.7237      46.7237           90           90           90     102002.7    -710.4514 
  533000       532499   -7360.7066    519.12108   -7879.8277    4187.0048   -12066.832    91.180296   -564.34505   -942.86345   -568.00989   -92.655136    59.730136    194.05121      46.7237      46.7237      46.7237           90           90           90     102002.7   -691.73946 
  534000       533499   -7327.2093    529.44016   -7856.6495    4213.4152   -12070.065    92.992777    -330.1794   -967.66153   -242.34804     52.22654   -32.036681     8.463608      46.7237      46.7237      46.7237           90           90           90     102002.7   -513.39632 
  535000       534499   -7360.0673    517.38977    -7877.457    4188.2545   -12065.712    90.876202   -547.77369   -442.59854   -1093.2723   -119.03064    2.7935654    58.007549      46.7237      46.7237      46.7237           90           90           90     102002.7   -694.54818 
  536000       535499   -7337.0057    519.46831    -7856.474    4214.3218   -12070.796    91.241284   -467.79017   -526.51836   -835.35077    181.67737    59.563789   -65.191956      46.7237      46.7237      46.7237           90           90           90     102002.7   -609.88643 
  537000       536499   -7338.0641    528.68664   -7866.7507    4195.6497     -12062.4    92.860425   -500.04649   -524.11875   -859.40562    -62.70976   -20.769691    -42.25655      46.7237      46.7237      46.7237           90           90           90     102002.7   -627.85695 
  538000       537499   -7363.6515    519.73486   -7883.3863    4200.5536    -12083.94    91.288102   -622.23027   -825.55292   -625.44714    54.766554   -47.232942    163.63637      46.7237      46.7237      46.7237           90           90           90     102002.7   -691.07678 
  539000       538499   -7365.6596    495.77216   -7861.4318    4207.2467   -12068.679    87.079208   -707.18957   -775.72071   -558.42383   -13.542097    47.575025    196.84743      46.7237      46.7237      46.7237           90           90           90     102002.7    -680.4447 
  540000       539499   -7349.7019    529.23527   -7878.9371    4188.4838   -12067.421    92.956788   -586.89882   -466.14005   -607.67444   -168.12954    53.725754   -150.51707      46.7237      46.7237      46.7237           90           90           90     102002.7    -553.5711 
  541000       540499   -7346.4285    517.71861   -7864.1471    4206.9201   -12071.067     90.93396   -649.57868   -738.07251   -1067.5381    191.68992   -47.041613   -97.488518      46.7237      46.7237      46.7237           90           90           90     102002.7   -818.39644 
  542000       541499   -7359.0977    513.88833    -7872.986    4203.1963   -12076.182    90.261196   -276.44699   -1152.1446   -880.87862   -330.18422   -39.635084    57.656788      46.7237      46.7237      46.7237           90           90           90     102002.7    -769.8234 
  543000       542499   -7364.2972     516.4439   -7880.7411    4190.2051   -12070.946    90.710066   -932.86486   -679.16179   -967.12976    69.700108    31.028892    102.75444      46.7237      46.7237      46.7237           90           90           90     102002.7    -859.7188 
  544000       543499   -7355.3313    522.08696   -7877.4183    4188.2043   -12065.623    91.701233   -1055.2009   -736.74185   -809.28507    59.898683     -155.573   -57.161649      46.7237      46.7237      46.7237           90           90           90     102002.7   -867.07594 
  545000       544499   -7350.1621    514.87135   -7865.0335    4219.6313   -12084.665    90.433858   -678.43449   -659.19556   -562.21894   -84.449192    3.1579769   -163.46591      46.7237      46.7237      46.7237           90           90           90     102002.7     -633.283 
  546000       545499   -7354.9156    514.30909   -7869.2247     4197.296   -12066.521    90.335101   -1055.8074    -646.2115    -749.6842    22.093389    49.374933   -282.90931      46.7237      46.7237      46.7237           90           90           90     102002.7   -817.23437 
  547000       546499   -7358.4235    518.87727   -7877.3008    4185.9536   -12063.254    91.137472   -904.66901   -418.29695   -293.90123   -39.694052    294.50193    2.9319486      46.7237      46.7237      46.7237           90           90           90     102002.7   -538.95573 
  548000       547499   -7346.7635    498.09219   -7844.8557    4218.4451   -12063.301    87.486705   -278.94823   -753.85243   -764.05311   -92.733674    222.65389   -90.490609      46.7237      46.7237      46.7237           90           90           90     102002.7   -598.95126 
  549000       548499   -7333.7598    525.78631   -7859.5461    4215.3703   -12074.916    92.351001   -710.67412    -789.3328   -615.86914   -129.85665    13.026007    87.808459      46.7237      46.7237      46.7237           90           90           90     102002.7   -705.29202 
  550000       549499   -7348.2453    513.15249   -7861.3977    4203.0402   -12064.438    90.131951    -934.0104   -632.11899    -536.3902    161.95509   -42.994927    23.839077      46.7237      46.7237      46.7237           90           90           90     102002.7   -700.83987 
  551000       550499   -7361.4004    516.20629   -7877.6067    4197.5183   -12075.125    90.668332   -582.09332   -735.88731   -867.65085    45.898759     90.95514   -11.177408      46.7237      46.7237      46.7237           90           90           90     102002.7   -728.54382 
  552000       551499   -7311.4161    537.16815   -7848.5843    4204.9866   -12053.571    94.350148   -883.52475   -812.94142   -558.19743   -31.148942   -151.08085   -109.30531      46.7237      46.7237      46.7237           90           90           90     102002.7   -751.55453 
  553000       552499   -7346.9218     518.0432    -7864.965    4190.6431   -12055.608    90.990974   -1093.4624   -630.52075   -737.34843    58.446241    49.431108   -193.24794      46.7237      46.7237      46.7237           90           90           90     102002.7   -820.44385 
  554000       553499   -7350.9353    522.22712   -7873.1624     4198.679   -12071.841    91.725852   -779.75814   -609.27569   -699.73675   -207.22384    213.07811    115.82147      46.7237      46.7237      46.7237           90           90           90     102002.7   -696.25686 
  555000       554499    -7356.076    523.24919   -7879.3252    4174.7048    -12054.03    91.905372   -599.14633   -807.92534    -883.6423    27.510915    245.37121    122.18213      46.7237      46.7237      46.7237           90           90           90     102002.7   -763.57132 
[...]
  936000       935499   -7340.2013    538.95409   -7879.1554    4194.4909   -12073.646    94.663836   -684.68713   -524.10118   -448.58142   -58.933254     19.05616    74.331037      46.7237      46.7237      46.7237           90           90           90     102002.7   -552.45657 
  937000       936499   -7358.1437    513.61305   -7871.7567    4208.2257   -12079.982    90.212846   -813.97304   -480.65243   -637.07696    161.48866   -268.02342     -21.5822      46.7237      46.7237      46.7237           90           90           90     102002.7   -643.90081 
  938000       937499   -7348.1595    518.75296   -7866.9125    4210.8157   -12077.728    91.115637   -586.16906   -735.51319   -735.53258   -114.00212   -33.750569   -7.6068696      46.7237      46.7237      46.7237           90           90           90     102002.7   -685.73827 
  939000       938499   -7353.4522    517.92245   -7871.3746    4194.1234   -12065.498    90.969764   -531.48012   -536.91779   -1008.2354   -169.89045   -34.943531   -46.226321      46.7237      46.7237      46.7237           90           90           90     102002.7   -692.21109 
  940000       939499   -7366.9118     516.5387   -7883.4505    4185.1433   -12068.594    90.726717   -1094.1486   -582.39014     -647.331   -134.53868   -148.86567    34.355472      46.7237      46.7237      46.7237           90           90           90     102002.7   -774.62325 
  941000       940499   -7371.1121    516.83608   -7887.9482    4174.8329   -12062.781     90.77895   -549.94623   -811.78814   -1244.8437    37.371843   -197.99627    10.966744      46.7237      46.7237      46.7237           90           90           90     102002.7   -868.85934 
  942000       941499     -7331.16    530.64124   -7861.8012    4226.0345   -12087.836    93.203738   -1055.3389   -617.37031   -1206.0001      25.5335    99.120065   -46.378907      46.7237      46.7237      46.7237           90           90           90     102002.7    -959.5698 
  943000       942499   -7362.9889    512.25143   -7875.2403    4199.5514   -12074.792    89.973685   -1242.6598   -958.43084   -994.89843    245.92635   -15.665617    73.191944      46.7237      46.7237      46.7237           90           90           90     102002.7   -1065.3297 
  944000       943499   -7378.2039    501.66143   -7879.8653    4195.3426   -12075.208     88.11362   -671.20062   -972.06797   -805.77851    90.816761   -16.075453    43.940577      46.7237      46.7237      46.7237           90           90           90     102002.7   -816.34904 
  945000       944499   -7336.6098    531.75824    -7868.368    4211.3502   -12079.718    93.399932   -513.60819   -559.84737   -1020.0956   -124.53721    -126.8197    8.8412682      46.7237      46.7237      46.7237           90           90           90     102002.7   -697.85038 
  946000       945499   -7367.6562    518.73165   -7886.3878    4174.6868   -12061.075    91.111895   -536.12582   -624.46739   -711.47421    258.82383    63.675026    258.53352      46.7237      46.7237      46.7237           90           90           90     102002.7   -624.02247 
  947000       946499   -7359.0834     520.6981   -7879.7815    4203.9971   -12083.779    91.457289    -530.4757   -795.29179   -946.47797    85.689227     171.3253   -113.21818      46.7237      46.7237      46.7237           90           90           90     102002.7   -757.41515 
  948000       947499   -7340.4292     534.4132   -7874.8424    4181.9079    -12056.75    93.866258   -693.16303   -455.89263   -941.74811   -114.64178    143.66141   -59.476777      46.7237      46.7237      46.7237           90           90           90     102002.7   -696.93459 
  949000       948499   -7353.3193     509.0007     -7862.32    4219.6352   -12081.955    89.402716   -824.23002   -799.59899   -832.09123    20.169292    83.435261   -33.090744      46.7237      46.7237      46.7237           90           90           90     102002.7   -818.64008 
  950000       949499   -7349.9172    514.62601   -7864.5432    4210.9504   -12075.494    90.390766   -1087.6489   -628.09405   -742.19731    209.42514    4.4494171   -152.72164      46.7237      46.7237      46.7237           90           90           90     102002.7   -819.31343 
  951000       950499   -7326.6908    531.96493   -7858.6557    4198.2524   -12056.908    93.436236   -748.57582   -577.76095   -705.80709    74.943676    183.34489   -99.105558      46.7237      46.7237      46.7237           90           90           90     102002.7   -677.38129 
  952000       951499   -7366.4354     516.3057   -7882.7411    4175.0971   -12057.838    90.685792   -938.99634    -619.0914   -554.87106   -61.947367    183.73694   -153.37122      46.7237      46.7237      46.7237           90           90           90     102002.7    -704.3196 
  953000       952499   -7360.8989    527.53928   -7888.4381    4199.1883   -12087.626    92.658898   -515.10448   -599.58853   -618.28771    -268.8776   -19.900148   -27.789389      46.7237      46.7237      46.7237           90           90           90     102002.7   -577.66024 
  954000       953499    -7378.656    509.30637   -7887.9623    4189.3894   -12077.352    89.456405   -412.39435   -961.13767   -433.89032    214.02832    172.83694     65.81967      46.7237      46.7237      46.7237           90           90           90     102002.7   -602.47412 
  955000       954499   -7308.4625    549.38933   -7857.8519    4206.8097   -12064.662    96.496719   -869.95502   -871.85553   -449.56587   -170.68063    89.482689    7.8223694      46.7237      46.7237      46.7237           90           90           90     102002.7   -730.45881 
  956000       955499    -7366.729    508.47025   -7875.1992    4203.8851   -12079.084    89.309545   -669.06953    -433.4703   -719.13145   -68.454849    85.970723    70.229998      46.7237      46.7237      46.7237           90           90           90     102002.7   -607.22376 
  957000       956499    -7309.558     543.5864   -7853.1444    4234.2961    -12087.44    95.477473   -134.89437    -562.4804   -810.08194   -29.519715   -156.63717    56.858492      46.7237      46.7237      46.7237           90           90           90     102002.7   -502.48557 
  958000       957499   -7356.1338    523.59604   -7879.7299    4193.8069   -12073.537    91.966293   -656.72566   -804.17071   -314.86221     77.04859    149.23503    65.746412      46.7237      46.7237      46.7237           90           90           90     102002.7   -591.91953 
  959000       958499   -7381.1906    503.80256   -7884.9932    4182.8686   -12067.862    88.489696   -759.90504   -564.88425   -310.61042    232.36666   -25.145354   -101.31291      46.7237      46.7237      46.7237           90           90           90     102002.7   -545.13324 
  960000       959499   -7348.2396    518.87241    -7867.112    4210.6085   -12077.721    91.136618   -551.35705   -977.94875   -273.90523   -84.927055   -154.31798   -214.91431      46.7237      46.7237      46.7237           90           90           90     102002.7   -601.07035 
  961000       960499   -7343.0699    520.84535   -7863.9152     4205.625    -12069.54    91.483152   -447.62174   -633.23209   -757.95247    180.66132   -136.40303   -216.29385      46.7237      46.7237      46.7237           90           90           90     102002.7   -612.93543 
  962000       961499   -7353.5658    511.76093   -7865.3267    4213.7506   -12079.077    89.887531   -790.47173   -687.79186   -299.79292   -109.37378   -159.88906   -112.53161      46.7237      46.7237      46.7237           90           90           90     102002.7    -592.6855 
  963000       962499   -7361.3327    512.36296   -7873.6956    4193.5948    -12067.29    89.993274   -836.21121   -923.59042   -663.58099    31.134042    90.719641   -11.801611      46.7237      46.7237      46.7237           90           90           90     102002.7   -807.79421 
  964000       963499   -7342.6732    520.92779   -7863.6009     4203.143   -12066.744    91.497633   -668.14092   -703.28812   -953.49562   -20.158315    77.412709   -151.30095      46.7237      46.7237      46.7237           90           90           90     102002.7   -774.97488 
  965000       964499   -7357.4425    526.92929   -7884.3718    4199.0438   -12083.416    92.551757   -789.95361   -773.19431   -450.87468   -69.809692    92.997138   -187.15839      46.7237      46.7237      46.7237           90           90           90     102002.7   -671.34087 
  966000       965499   -7324.1339    529.49466   -7853.6286    4215.3326   -12068.961    93.002348   -852.13347   -1012.5978   -837.44051   -85.677302    206.67358    80.740295      46.7237      46.7237      46.7237           90           90           90     102002.7   -900.72393 
  967000       966499   -7363.7112    512.15066   -7875.8619    4189.4229   -12065.285    89.955987   -586.92483   -890.68938   -665.44609    51.236614   -6.4454342   -4.3711327      46.7237      46.7237      46.7237           90           90           90     102002.7   -714.35344 
  968000       967499    -7342.545    518.52615   -7861.0712    4213.1511   -12074.222    91.075801   -1015.6032   -482.36448   -971.35512    82.048391    36.259296   -123.93631      46.7237      46.7237      46.7237           90           90           90     102002.7   -823.10759 
  969000       968499   -7382.9269    500.74225   -7883.6692    4192.0514   -12075.721    87.952172    -712.4176   -686.03209   -916.24503   -202.77027   -56.857448    14.912835      46.7237      46.7237      46.7237           90           90           90     102002.7   -771.56491 
  970000       969499   -7362.6336    522.84845    -7885.482    4204.8987   -12090.381    91.834984   -718.68416    -883.1892   -985.04041   -60.740444    223.81203   -39.656635      46.7237      46.7237      46.7237           90           90           90     102002.7   -862.30459 
  971000       970499   -7351.4869    521.85368   -7873.3406    4196.6692    -12070.01     91.66026   -714.97142   -826.02647   -984.34915   -45.283007   -137.65931    34.137902      46.7237      46.7237      46.7237           90           90           90     102002.7   -841.78235 
  972000       971499    -7372.045    508.54146   -7880.5865    4190.8873   -12071.474    89.322053   -650.87032   -697.07917   -1287.7371    98.832843    48.067185    302.46745      46.7237      46.7237      46.7237           90           90           90     102002.7   -878.56219 
  973000       972499   -7346.7453    514.26946   -7861.0148    4199.5927   -12060.607    90.328139   -1217.8523   -721.05325   -1151.7113    115.09839   -115.21788   -168.63637      46.7237      46.7237      46.7237           90           90           90     102002.7   -1030.2056 
  974000       973499   -7360.6013    514.05492   -7874.6562    4189.9103   -12064.566    90.290456   -604.54885   -740.90762   -836.37392   -37.239291   -25.967195    101.78121      46.7237      46.7237      46.7237           90           90           90     102002.7    -727.2768 
  975000       974499   -7360.5312    501.67227   -7862.2035    4207.0914   -12069.295    88.115523   -899.50121   -777.63236    -470.3084    92.643209    143.93082    1.2337456      46.7237      46.7237      46.7237           90           90           90     102002.7   -715.81399 
  976000       975499    -7358.415    511.00364   -7869.4186    4203.0053   -12072.424    89.754519   -865.14875    -363.6413   -805.89737   -3.3716368    131.51179    6.6006704      46.7237      46.7237      46.7237           90           90           90     102002.7   -678.22914 
  977000       976499   -7365.0677    518.08635    -7883.154    4192.5898   -12075.744    90.998552   -686.38861   -480.95931   -906.26649   -51.451031   -28.381269   -139.33792      46.7237      46.7237      46.7237           90           90           90     102002.7    -691.2048 
  978000       977499   -7362.2526    519.52373   -7881.7764    4200.4781   -12082.254    91.251018   -697.76206   -1044.3831   -578.85471   -173.97242    27.455702   -241.45465      46.7237      46.7237      46.7237           90           90           90     102002.7   -773.66661 
  979000       978499   -7370.9872    513.30312   -7884.2904    4198.0905   -12082.381    90.158408   -1122.8459   -1052.6188   -812.34309   -308.23149    2.7074955    10.534636      46.7237      46.7237      46.7237           90           90           90     102002.7   -995.93591 
  980000       979499   -7342.7198    515.89446   -7858.6142    4194.5665   -12053.181    90.613561   -774.68701   -675.24117   -772.04783    5.5845391   -97.386738   -10.157634      46.7237      46.7237      46.7237           90           90           90     102002.7   -740.65867 
  981000       980499   -7347.6258    523.78157   -7871.4073    4197.7737   -12069.181     91.99888   -747.52627   -860.28055   -586.26957    6.0361351    155.50297    62.070758      46.7237      46.7237      46.7237           90           90           90     102002.7    -731.3588 
  982000       981499   -7356.2165    532.25329   -7888.4698     4180.924   -12069.394    93.486885   -460.29344   -318.59191   -903.69859   -28.088098     43.10404    36.182964      46.7237      46.7237      46.7237           90           90           90     102002.7   -560.86131 
  983000       982499   -7331.6952    527.26718   -7858.9623     4218.346   -12077.308    92.611105   -849.82557   -689.87643   -813.46667   -7.6139085    260.21537   -179.53367      46.7237      46.7237      46.7237           90           90           90     102002.7   -784.38956 
  984000       983499   -7363.9166    518.95693   -7882.8735    4193.7465    -12076.62    91.151463   -860.75566   -709.13629   -773.96135     42.92859    205.57506    111.39866      46.7237      46.7237      46.7237           90           90           90     102002.7   -781.28443 
  985000       984499   -7332.6913    529.54197   -7862.2333    4215.4136   -12077.647    93.010657   -1089.2579   -857.56182    -896.3435    75.425072    68.528414   -70.745789      46.7237      46.7237      46.7237           90           90           90     102002.7   -947.72107 
  986000       985499   -7348.6762    520.29224   -7868.9685    4230.6319     -12099.6    91.386001   -1302.8079   -711.41727   -623.63002   -4.0383444   -71.456256   -111.39046      46.7237      46.7237      46.7237           90           90           90     102002.7   -879.28506 
  987000       986499   -7344.5061    528.64476   -7873.1508    4205.2748   -12078.426    92.853069   -946.08515   -799.11247   -919.81125    14.040625    -20.66825   -194.06156      46.7237      46.7237      46.7237           90           90           90     102002.7   -888.33629 
  988000       987499   -7328.7438    515.35631   -7844.1001    4223.3654   -12067.466    90.519038   -704.77575   -925.09236   -1221.5671    91.830458    162.09754    177.48385      46.7237      46.7237      46.7237           90           90           90     102002.7   -950.47841 
  989000       988499   -7369.9299    507.08608   -7877.0159    4188.6235   -12065.639    89.066425   -645.06317   -492.62123   -865.14883    209.56155   -90.608234   -70.369585      46.7237      46.7237      46.7237           90           90           90     102002.7   -667.61108 
  990000       989499     -7366.44    509.65531   -7876.0953    4191.1947    -12067.29    89.517694   -1606.4291   -691.12398   -979.83147    11.375664    31.210905    -40.10435      46.7237      46.7237      46.7237           90           90           90     102002.7   -1092.4615 
  991000       990499   -7359.3371    519.14151   -7878.4786    4196.4058   -12074.884    91.183884   -591.03457   -762.08828   -619.84367    -55.11539   -153.26011    64.974158      46.7237      46.7237      46.7237           90           90           90     102002.7    -657.6555 
  992000       991499   -7380.8405    509.73187   -7890.5724    4180.7563   -12071.329    89.531141   -729.13868   -966.73043   -969.44348   -94.040552   -135.77846    73.909377      46.7237      46.7237      46.7237           90           90           90     102002.7   -888.43753 
  993000       992499    -7365.494    520.22151   -7885.7155    4191.2062   -12076.922    91.373579    -748.8983   -687.58256   -687.78564    158.26309   -16.443489   -6.7447867      46.7237      46.7237      46.7237           90           90           90     102002.7   -708.08883 
  994000       993499    -7351.128    525.92001    -7877.048     4194.478   -12071.526    92.374484   -698.66958   -693.67614   -388.67838   -64.892527   -59.624853    28.118065      46.7237      46.7237      46.7237           90           90           90     102002.7    -593.6747 
  995000       994499   -7329.6419    518.85216   -7848.4941    4213.0696   -12061.564    91.133061   -605.72573   -770.37655   -934.66998   -69.471317   -29.993532   -61.460455      46.7237      46.7237      46.7237           90           90           90     102002.7   -770.25742 
  996000       995499   -7358.8805    496.25903   -7855.1395    4228.5982   -12083.738    87.164722   -997.28697   -675.56018   -1086.1792   -125.59533    171.45179    12.076915      46.7237      46.7237      46.7237           90           90           90     102002.7   -919.67544 
  997000       996499   -7336.0822    522.12707   -7858.2092    4204.0151   -12062.224    91.708279   -939.98983   -1052.9122   -890.25213     39.15438    103.89198    121.80145      46.7237      46.7237      46.7237           90           90           90     102002.7   -961.05139 
  998000       997499   -7336.2893    520.53342   -7856.8228     4204.155   -12060.978    91.428364   -966.90823   -641.86052   -627.17064   -82.447585    20.493737   -75.677128      46.7237      46.7237      46.7237           90           90           90     102002.7   -745.31313 
  999000       998499    -7357.395    502.72999    -7860.125    4217.4222   -12077.547    88.301305   -715.65745   -653.02517   -1064.7659   -7.6982029   -26.011707   -9.9653101      46.7237      46.7237      46.7237           90           90           90     102002.7    -811.1495 
 1000000       999499   -7364.5162    517.88227   -7882.3984    4180.5227   -12062.921    90.962706    -970.6653    -613.8663   -1349.9969    168.96461    34.010153    217.45452      46.7237      46.7237      46.7237           90           90           90     102002.7   -978.17617 
 1000501      1000000   -7365.0743    511.34426   -7876.4186    4196.4689   -12072.887    89.814347    -536.7281   -513.82494   -936.11506    11.632996     78.31567   -21.656667      46.7237      46.7237      46.7237           90           90           90     102002.7    -662.2227 
Loop time of 1541.79 on 16 procs for 500000 steps with 1911 atoms

Performance: 28.019 ns/day, 0.857 hours/ns, 324.299 timesteps/s
99.9% CPU use with 16 MPI tasks x no OpenMP threads

MPI task timing breakdown:
Section |  min time  |  avg time  |  max time  |%varavg| %total
---------------------------------------------------------------
Pair    | 623.18     | 843.58     | 1100.5     | 584.5 | 54.71
Bond    | 164.45     | 183.53     | 202.62     |  86.2 | 11.90
Neigh   | 5.426      | 5.4518     | 5.4985     |   1.0 |  0.35
Comm    | 210.15     | 481.22     | 706.36     | 810.0 | 31.21
Output  | 0.10069    | 0.10593    | 0.10637    |   0.4 |  0.01
Modify  | 21.908     | 22.474     | 23.286     |  10.1 |  1.46
Other   |            | 5.423      |            |       |  0.35

Nlocal:    119.438 ave 142 max 93 min
Histogram: 1 0 2 3 2 2 0 2 2 2
Nghost:    2386.19 ave 2407 max 2358 min
Histogram: 1 1 1 0 1 4 2 3 1 2
Neighs:    11456.9 ave 14784 max 7420 min
Histogram: 1 1 0 2 3 2 2 2 2 1

Total # of neighbors = 183311
Ave neighs/atom = 95.9241
Ave special neighs/atom = 6.02826
Neighbor list builds = 3785
Dangerous builds = 0
Total wall time: 0:48:55
