LAMMPS (30 Mar 2018)
Reading data file ...
  orthogonal box = (0 0 0) to (46.7237 46.7237 46.7237)
  2 by 2 by 4 MPI processor grid
  reading atoms ...
  3199 atoms
  scanning bonds ...
  5 = max bonds/atom
  scanning angles ...
  10 = max angles/atom
  scanning dihedrals ...
  32 = max dihedrals/atom
  scanning impropers ...
  3 = max impropers/atom
  reading bonds ...
  2064 bonds
  reading angles ...
  3696 angles
  reading dihedrals ...
  6240 dihedrals
  reading impropers ...
  1008 impropers
Finding 1-2 1-3 1-4 neighbors ...
  special bond factors lj:   0          0          0         
  special bond factors coul: 0          0          0         
  5 = max # of 1-2 neighbors
  8 = max # of 1-3 neighbors
  20 = max # of 1-4 neighbors
  19 = max # of special neighbors
Finding 1-2 1-3 1-4 neighbors ...
  special bond factors lj:   0          0          1         
  special bond factors coul: 1          1          1         
  5 = max # of 1-2 neighbors
  8 = max # of 1-3 neighbors
  19 = max # of special neighbors
WARNING: Using 'neigh_modify every 1 delay 0 check yes' setting during minimization (../min.cpp:168)
Neighbor list info ...
  update every 1 steps, delay 0 steps, check yes
  max neighbors/atom: 2000, page size: 100000
  master list distance cutoff = 16
  ghost atom cutoff = 16
  binsize = 8, bins = 6 6 6
  3 neighbor lists, perpetual/occasional/extra = 3 0 0
  (1) pair buck6d/coul/gauss/dsf, perpetual, skip from (3)
      attributes: half, newton on
      pair build: skip
      stencil: none
      bin: none
  (2) pair lj/cut, perpetual, skip from (3)
      attributes: half, newton on
      pair build: skip
      stencil: none
      bin: none
  (3) neighbor class addition, perpetual
      attributes: half, newton on
      pair build: half/bin/newton
      stencil: half/bin/3d/newton
      bin: standard
Setting up cg style minimization ...
  Unit style    : real
  Current step  : 0
WARNING: Inconsistent image flags (../domain.cpp:786)
Per MPI rank memory allocation (min/avg/max) = 23.02 | 23.47 | 23.91 Mbytes
Step Temp E_pair E_mol TotEng Press 
       0            0   -15582.973    6482.8914   -9100.0816    5820.9026 
     500            0   -15898.653    3752.2305   -12146.422   -1939.1692 
Loop time of 4.38495 on 16 procs for 500 steps with 3199 atoms

99.8% CPU use with 16 MPI tasks x no OpenMP threads

Minimization stats:
  Stopping criterion = max force evaluations
  Energy initial, next-to-last, final = 
        -9100.08162595     -12146.3395677     -12146.4221566
  Force two-norm initial, final = 2575.18 12.011
  Force max component initial, final = 152.124 1.62879
  Final line search alpha, max atom move = 0.00990397 0.0161315
  Iterations, force evaluations = 500 1000

MPI task timing breakdown:
Section |  min time  |  avg time  |  max time  |%varavg| %total
---------------------------------------------------------------
Pair    | 2.3333     | 2.9768     | 3.4682     |  18.4 | 67.89
Bond    | 0.30611    | 0.35919    | 0.46706    |   6.4 |  8.19
Neigh   | 0.03088    | 0.030919   | 0.030982   |   0.0 |  0.71
Comm    | 0.46225    | 0.9746     | 1.6621     |  33.4 | 22.23
Output  | 0          | 0          | 0          |   0.0 |  0.00
Modify  | 0          | 0          | 0          |   0.0 |  0.00
Other   |            | 0.04341    |            |       |  0.99

Nlocal:    199.938 ave 226 max 179 min
Histogram: 1 3 2 2 2 2 1 1 0 2
Nghost:    4002.56 ave 4031 max 3958 min
Histogram: 1 1 1 0 2 1 2 6 0 2
Neighs:    11478.8 ave 16779 max 7453 min
Histogram: 2 2 1 3 0 5 1 0 1 1

Total # of neighbors = 183660
Ave neighs/atom = 57.4117
Ave special neighs/atom = 3.60113
Neighbor list builds = 9
Dangerous builds = 0
Neighbor list info ...
  update every 1 steps, delay 10 steps, check yes
  max neighbors/atom: 2000, page size: 100000
  master list distance cutoff = 16
  ghost atom cutoff = 16
  binsize = 8, bins = 6 6 6
  3 neighbor lists, perpetual/occasional/extra = 3 0 0
  (1) pair buck6d/coul/gauss/dsf, perpetual, skip from (3)
      attributes: half, newton on
      pair build: skip
      stencil: none
      bin: none
  (2) pair lj/cut, perpetual, skip from (3)
      attributes: half, newton on
      pair build: skip
      stencil: none
      bin: none
  (3) neighbor class addition, perpetual
      attributes: half, newton on
      pair build: half/bin/newton
      stencil: half/bin/3d/newton
      bin: standard
Setting up Verlet run ...
  Unit style    : real
  Current step  : 500
  Time step     : 1
WARNING: Inconsistent image flags (../domain.cpp:786)
Per MPI rank memory allocation (min/avg/max) = 22.66 | 22.74 | 22.98 Mbytes
Step Temp PotEng TotEng Press Volume Lx Ly Lz 
     500           91   -12146.422   -11278.953   -1550.4148     102002.7      46.7237      46.7237      46.7237 
    1000    75.877556   -11419.916   -10696.604   -603.86756     102002.7      46.7237      46.7237      46.7237 
    2000    91.250342   -11292.113   -10422.257   -466.88314     102002.7      46.7237      46.7237      46.7237 
    3000    91.264639   -11353.161   -10483.169   -406.39642     102002.7      46.7237      46.7237      46.7237 
    4000    92.316212    -11312.69   -10432.674   -245.07532     102002.7      46.7237      46.7237      46.7237 
    5000    90.892698   -11315.958   -10449.511   -263.83976     102002.7      46.7237      46.7237      46.7237 
    6000    92.277078   -11327.602   -10447.959   -493.15169     102002.7      46.7237      46.7237      46.7237 
    7000    88.461386   -11325.628   -10482.358   -539.83764     102002.7      46.7237      46.7237      46.7237 
    8000    89.995765   -11309.981   -10452.084   -298.76063     102002.7      46.7237      46.7237      46.7237 
    9000    93.252247   -11319.934   -10430.995   -329.99245     102002.7      46.7237      46.7237      46.7237 
   10000    91.205069   -11336.733   -10467.309   -545.25295     102002.7      46.7237      46.7237      46.7237 
   11000     89.16183   -11330.663   -10480.716   -550.53619     102002.7      46.7237      46.7237      46.7237 
   12000    89.965259   -11329.749   -10472.143   -774.19564     102002.7      46.7237      46.7237      46.7237 
   13000    87.311257   -11335.063   -10502.757   -405.97173     102002.7      46.7237      46.7237      46.7237 
   14000    92.095979   -11347.198   -10469.281   -449.76394     102002.7      46.7237      46.7237      46.7237 
   15000    90.912699   -11339.592   -10472.955   -440.18256     102002.7      46.7237      46.7237      46.7237 
   16000    89.436808   -11317.898    -10465.33   -437.34066     102002.7      46.7237      46.7237      46.7237 
   17000    90.853826   -11333.939   -10467.863   -505.85837     102002.7      46.7237      46.7237      46.7237 
   18000    89.852689   -11345.969   -10489.437   -342.87987     102002.7      46.7237      46.7237      46.7237 
   19000    92.677645   -11342.545   -10459.083   -382.04693     102002.7      46.7237      46.7237      46.7237 
   20000    90.949618   -11348.779    -10481.79   -498.22542     102002.7      46.7237      46.7237      46.7237 
   21000    91.339304   -11341.133   -10470.429   -671.02266     102002.7      46.7237      46.7237      46.7237 
   22000    91.092527   -11342.411   -10474.059   -530.33784     102002.7      46.7237      46.7237      46.7237 
   23000    92.057949   -11334.375    -10456.82   -365.64583     102002.7      46.7237      46.7237      46.7237 
   24000    89.686628   -11349.951   -10495.002   -544.72051     102002.7      46.7237      46.7237      46.7237 
   25000    92.057843   -11341.545   -10463.992   -722.83103     102002.7      46.7237      46.7237      46.7237 
   26000    90.489276   -11326.599   -10463.998   -451.38771     102002.7      46.7237      46.7237      46.7237 
   27000    94.194695   -11361.616   -10463.693   -604.70569     102002.7      46.7237      46.7237      46.7237 
   28000     90.91485   -11336.108    -10469.45   -331.22106     102002.7      46.7237      46.7237      46.7237 
   29000    90.571211   -11344.143   -10480.761   -464.37833     102002.7      46.7237      46.7237      46.7237 
   30000    89.447914   -11324.415   -10471.741   -741.08324     102002.7      46.7237      46.7237      46.7237 
   31000    89.615727   -11339.073     -10484.8   -220.98854     102002.7      46.7237      46.7237      46.7237 
   32000    92.245252   -11328.844   -10449.504    -580.3067     102002.7      46.7237      46.7237      46.7237 
   33000     89.48217   -11337.015   -10484.014   -349.71291     102002.7      46.7237      46.7237      46.7237 
   34000    90.418005   -11337.428   -10475.507   -487.59256     102002.7      46.7237      46.7237      46.7237 
   35000    89.606553   -11342.618   -10488.431   -519.53169     102002.7      46.7237      46.7237      46.7237 
   36000    89.676949   -11331.715   -10476.857    -288.1611     102002.7      46.7237      46.7237      46.7237 
   37000    90.170292   -11347.059   -10487.499   -401.65515     102002.7      46.7237      46.7237      46.7237 
   38000    91.157882   -11343.013   -10474.038   -388.42333     102002.7      46.7237      46.7237      46.7237 
   39000    91.759083   -11326.211   -10451.505   -429.12875     102002.7      46.7237      46.7237      46.7237 
   40000    91.305989   -11318.822   -10448.436   -727.21777     102002.7      46.7237      46.7237      46.7237 
   41000    91.315049   -11306.394   -10435.921   -574.89861     102002.7      46.7237      46.7237      46.7237 
   42000      90.6655    -11343.23   -10478.949   -560.83261     102002.7      46.7237      46.7237      46.7237 
   43000    91.883228   -11322.328   -10446.439   -495.79155     102002.7      46.7237      46.7237      46.7237 
   44000    92.588531   -11335.758   -10453.145   -626.98723     102002.7      46.7237      46.7237      46.7237 
   45000    89.430266   -11332.643   -10480.138   -306.00724     102002.7      46.7237      46.7237      46.7237 
   46000    90.739996   -11319.734   -10454.743   -32.720041     102002.7      46.7237      46.7237      46.7237 
   47000    91.146143   -11344.934   -10476.072   -317.40994     102002.7      46.7237      46.7237      46.7237 
   48000    89.875162   -11338.543   -10481.796   -208.46554     102002.7      46.7237      46.7237      46.7237 
   49000    90.607289   -11328.159   -10464.433   -326.67102     102002.7      46.7237      46.7237      46.7237 
   50000     91.85216    -11314.15   -10438.558   -528.96065     102002.7      46.7237      46.7237      46.7237 
   51000    94.059763   -11349.693   -10453.056   -611.06977     102002.7      46.7237      46.7237      46.7237 
   52000    92.333516   -11355.413   -10475.232   -504.97167     102002.7      46.7237      46.7237      46.7237 
   53000     91.32066   -11346.413   -10475.887   -663.21539     102002.7      46.7237      46.7237      46.7237 
   54000    91.353453   -11363.901   -10493.062    -264.8531     102002.7      46.7237      46.7237      46.7237 
   55000    90.587311   -11333.925   -10470.389   -851.76456     102002.7      46.7237      46.7237      46.7237 
   56000    91.866757   -11351.044   -10475.312   -562.12394     102002.7      46.7237      46.7237      46.7237 
   57000    91.607143   -11350.024   -10476.767   -531.43178     102002.7      46.7237      46.7237      46.7237 
   58000    91.638541   -11336.225   -10462.669   -645.06485     102002.7      46.7237      46.7237      46.7237 
   59000    91.215582   -11367.138   -10497.614   -243.99636     102002.7      46.7237      46.7237      46.7237 
   60000    91.267058   -11354.224   -10484.209   -459.71399     102002.7      46.7237      46.7237      46.7237 
   61000    89.118968   -11361.412   -10511.873   -288.39726     102002.7      46.7237      46.7237      46.7237 
   62000    91.061448   -11334.637   -10466.582   -385.34391     102002.7      46.7237      46.7237      46.7237 
   63000     91.38913   -11331.936   -10460.757   -489.36834     102002.7      46.7237      46.7237      46.7237 
   64000    89.091427    -11358.46   -10509.185   -16.689397     102002.7      46.7237      46.7237      46.7237 
   65000    91.526435   -11345.853   -10473.365   -341.53411     102002.7      46.7237      46.7237      46.7237 
   66000     91.61633    -11351.01   -10477.666   -496.61579     102002.7      46.7237      46.7237      46.7237 
   67000    91.179197   -11358.358   -10489.181   -552.44331     102002.7      46.7237      46.7237      46.7237 
   68000    90.206017   -11351.773   -10491.872   -527.72091     102002.7      46.7237      46.7237      46.7237 
   69000    91.876416   -11334.707   -10458.883   -376.67169     102002.7      46.7237      46.7237      46.7237 
   70000    91.222662   -11377.618   -10508.026   -615.39026     102002.7      46.7237      46.7237      46.7237 
   71000     93.40365   -11339.972   -10449.589   -568.87318     102002.7      46.7237      46.7237      46.7237 
   72000    90.884849   -11334.596   -10468.224   -450.43331     102002.7      46.7237      46.7237      46.7237 
   73000    92.361062    -11336.59   -10456.146   -371.26156     102002.7      46.7237      46.7237      46.7237 
   74000    87.878074   -11355.947   -10518.238   -607.85255     102002.7      46.7237      46.7237      46.7237 
   75000    90.990698   -11353.352   -10485.972    -636.1586     102002.7      46.7237      46.7237      46.7237 
   76000    90.557609   -11378.669   -10515.417   -611.51477     102002.7      46.7237      46.7237      46.7237 
   77000    91.416425   -11333.585   -10462.146   -542.09312     102002.7      46.7237      46.7237      46.7237 
   78000    93.486788   -11374.205    -10483.03   -497.93652     102002.7      46.7237      46.7237      46.7237 
   79000     90.33304   -11325.191   -10464.079   -378.66395     102002.7      46.7237      46.7237      46.7237 
   80000    90.402837   -11344.589   -10482.812   -585.69824     102002.7      46.7237      46.7237      46.7237 
   81000     92.06293   -11357.793   -10480.191   -535.16599     102002.7      46.7237      46.7237      46.7237 
   82000    92.531543   -11340.391   -10458.322   -425.79202     102002.7      46.7237      46.7237      46.7237 
   83000    91.115438   -11348.098   -10479.528   -513.12112     102002.7      46.7237      46.7237      46.7237 
   84000    90.448251    -11352.53    -10490.32   -552.20817     102002.7      46.7237      46.7237      46.7237 
   85000    92.075954   -11351.378   -10473.652   -345.60919     102002.7      46.7237      46.7237      46.7237 
   86000    90.127097   -11363.258    -10504.11   -462.04546     102002.7      46.7237      46.7237      46.7237 
   87000    89.765655   -11358.584   -10502.881   -419.94607     102002.7      46.7237      46.7237      46.7237 
   88000    91.272531   -11331.104   -10461.036   -470.22814     102002.7      46.7237      46.7237      46.7237 
   89000    91.579164    -11349.99   -10476.999   -547.24923     102002.7      46.7237      46.7237      46.7237 
   90000    92.135498   -11355.357   -10477.063   -232.34524     102002.7      46.7237      46.7237      46.7237 
   91000    93.674612   -11366.493   -10473.528   -298.65332     102002.7      46.7237      46.7237      46.7237 
   92000    90.998575   -11339.846    -10472.39   -384.67024     102002.7      46.7237      46.7237      46.7237 
   93000    90.466234   -11360.926   -10498.545   -466.52479     102002.7      46.7237      46.7237      46.7237 
   94000    89.073865    -11352.22   -10503.112   -563.27243     102002.7      46.7237      46.7237      46.7237 
   95000    91.045393   -11378.665   -10510.763   -458.45125     102002.7      46.7237      46.7237      46.7237 
   96000    89.583651   -11336.623   -10482.655   -358.51049     102002.7      46.7237      46.7237      46.7237 
   97000     88.92137   -11370.895   -10523.241   -411.92651     102002.7      46.7237      46.7237      46.7237 
   98000    90.799619   -11358.503   -10492.944   -479.07052     102002.7      46.7237      46.7237      46.7237 
   99000    88.985086   -11353.513   -10505.251   -484.68241     102002.7      46.7237      46.7237      46.7237 
  100000    90.736584   -11358.243   -10493.285   -445.62175     102002.7      46.7237      46.7237      46.7237 
  101000    89.773196   -11341.781   -10486.006   -283.21627     102002.7      46.7237      46.7237      46.7237 
  102000    93.269286    -11347.42   -10458.319   -326.91959     102002.7      46.7237      46.7237      46.7237 
  103000    90.720302   -11345.142   -10480.339   -313.59315     102002.7      46.7237      46.7237      46.7237 
  104000    89.083897   -11358.246   -10509.043   -533.11923     102002.7      46.7237      46.7237      46.7237 
  105000     93.15025   -11350.869   -10462.902   -457.78358     102002.7      46.7237      46.7237      46.7237 
  106000    91.738335   -11337.311   -10462.803   -474.23265     102002.7      46.7237      46.7237      46.7237 
  107000    91.429276   -11344.348   -10472.787   -526.12491     102002.7      46.7237      46.7237      46.7237 
  108000    91.204291   -11354.291   -10484.875   -523.29764     102002.7      46.7237      46.7237      46.7237 
  109000    91.232129    -11354.37   -10484.688   -303.21625     102002.7      46.7237      46.7237      46.7237 
  110000    90.206072   -11368.352   -10508.451   -553.38774     102002.7      46.7237      46.7237      46.7237 
  111000     90.85689   -11351.046   -10484.941   -626.09727     102002.7      46.7237      46.7237      46.7237 
  112000    91.096617   -11360.047   -10491.656   -529.28612     102002.7      46.7237      46.7237      46.7237 
  113000    90.951787     -11351.7    -10484.69   -510.16147     102002.7      46.7237      46.7237      46.7237 
  114000    89.706669   -11330.681    -10475.54   -747.13303     102002.7      46.7237      46.7237      46.7237 
  115000    89.511935   -11343.103   -10489.819   -641.40297     102002.7      46.7237      46.7237      46.7237 
  116000    90.173485   -11353.585   -10493.994   -337.39762     102002.7      46.7237      46.7237      46.7237 
  117000    91.585535   -11331.733   -10458.682   -522.85925     102002.7      46.7237      46.7237      46.7237 
  118000    91.210666   -11351.601   -10482.123   -411.76276     102002.7      46.7237      46.7237      46.7237 
  119000    90.801131   -11335.965   -10470.392   -380.48448     102002.7      46.7237      46.7237      46.7237 
  120000    91.535568   -11360.579   -10488.004    -362.1954     102002.7      46.7237      46.7237      46.7237 
  121000    89.045225   -11346.382   -10497.547   -573.56558     102002.7      46.7237      46.7237      46.7237 
  122000    89.584257   -11340.334    -10486.36   -344.07483     102002.7      46.7237      46.7237      46.7237 
  123000    90.014292   -11355.305   -10497.232    -256.1169     102002.7      46.7237      46.7237      46.7237 
  124000    93.414052    -11351.34   -10460.858   -361.84841     102002.7      46.7237      46.7237      46.7237 
  125000    92.662992   -11331.252    -10447.93   -564.15209     102002.7      46.7237      46.7237      46.7237 
  126000    90.680823   -11350.745   -10486.318   -567.10177     102002.7      46.7237      46.7237      46.7237 
  127000     92.15665   -11342.142   -10463.646   -618.63592     102002.7      46.7237      46.7237      46.7237 
  128000    88.665749   -11344.914   -10499.696   -425.06739     102002.7      46.7237      46.7237      46.7237 
  129000     89.24518   -11340.356   -10489.614   -558.59164     102002.7      46.7237      46.7237      46.7237 
  130000    92.156234   -11364.824   -10486.333   -559.74593     102002.7      46.7237      46.7237      46.7237 
  131000    92.046628   -11344.331   -10466.884   -590.74484     102002.7      46.7237      46.7237      46.7237 
  132000    91.029952   -11362.316   -10494.561   -461.08448     102002.7      46.7237      46.7237      46.7237 
  133000    89.818643   -11343.602   -10487.394   -282.49346     102002.7      46.7237      46.7237      46.7237 
  134000    90.214232   -11347.039    -10487.06   -344.51343     102002.7      46.7237      46.7237      46.7237 
  135000    94.002635   -11333.744   -10437.651   -250.48301     102002.7      46.7237      46.7237      46.7237 
  136000    89.507568   -11361.058   -10507.816   -510.96379     102002.7      46.7237      46.7237      46.7237 
  137000    91.101872   -11350.582   -10482.141   -582.95281     102002.7      46.7237      46.7237      46.7237 
  138000    91.591555   -11327.578   -10454.469   -378.08789     102002.7      46.7237      46.7237      46.7237 
  139000    92.495699   -11340.608   -10458.881   -459.83873     102002.7      46.7237      46.7237      46.7237 
  140000    90.153185   -11354.089   -10494.692   -759.57312     102002.7      46.7237      46.7237      46.7237 
  141000    90.691492   -11351.311   -10486.782   -678.96022     102002.7      46.7237      46.7237      46.7237 
  142000    91.496202   -11339.196   -10466.996   -331.08847     102002.7      46.7237      46.7237      46.7237 
  143000    89.599193   -11345.914   -10491.798   -384.43996     102002.7      46.7237      46.7237      46.7237 
  144000    92.080145   -11347.138   -10469.372   -366.08912     102002.7      46.7237      46.7237      46.7237 
  145000    91.128178   -11343.253   -10474.562   -451.74496     102002.7      46.7237      46.7237      46.7237 
  146000    90.147323   -11328.933   -10469.592   -322.38351     102002.7      46.7237      46.7237      46.7237 
  147000     90.05437   -11328.948   -10470.493   -341.41679     102002.7      46.7237      46.7237      46.7237 
  148000    91.350001   -11332.889   -10462.083   -649.32216     102002.7      46.7237      46.7237      46.7237 
  149000     89.73734   -11332.463    -10477.03   -643.38948     102002.7      46.7237      46.7237      46.7237 
  150000    91.963885    -11340.52   -10463.863   -569.44749     102002.7      46.7237      46.7237      46.7237 
  151000    91.579505   -11325.409   -10452.416   -721.09707     102002.7      46.7237      46.7237      46.7237 
  152000    90.911054   -11331.956   -10465.334   -368.01706     102002.7      46.7237      46.7237      46.7237 
  153000    90.894886     -11331.9   -10465.432   -513.88446     102002.7      46.7237      46.7237      46.7237 
  154000    89.600441   -11359.147   -10505.019   -525.46675     102002.7      46.7237      46.7237      46.7237 
  155000    88.334718   -11351.836   -10509.774    -577.6454     102002.7      46.7237      46.7237      46.7237 
  156000     88.13373   -11357.715   -10517.568   -519.86383     102002.7      46.7237      46.7237      46.7237 
  157000    89.580388   -11346.851   -10492.914   -744.12987     102002.7      46.7237      46.7237      46.7237 
  158000    91.160139   -11324.168   -10455.172   -859.90154     102002.7      46.7237      46.7237      46.7237 
  159000    93.473429   -11349.163   -10458.115   -309.61179     102002.7      46.7237      46.7237      46.7237 
  160000    91.495287   -11339.994   -10467.803   -422.19366     102002.7      46.7237      46.7237      46.7237 
  161000    92.240968   -11354.709    -10475.41   -481.39649     102002.7      46.7237      46.7237      46.7237 
  162000    92.192429   -11359.457   -10480.621   -578.50021     102002.7      46.7237      46.7237      46.7237 
  163000    91.959887   -11344.507   -10467.887   -697.08276     102002.7      46.7237      46.7237      46.7237 
  164000    92.747547   -11366.379   -10482.251   -524.49458     102002.7      46.7237      46.7237      46.7237 
  165000    93.450515   -11362.143   -10471.313   -424.08557     102002.7      46.7237      46.7237      46.7237 
  166000    90.270001   -11328.547   -10468.036   -127.49737     102002.7      46.7237      46.7237      46.7237 
  167000    93.194123   -11359.612   -10471.227   -341.60633     102002.7      46.7237      46.7237      46.7237 
  168000    89.986765   -11344.189   -10486.379   -416.28795     102002.7      46.7237      46.7237      46.7237 
  169000    92.598908   -11358.105   -10475.394   -545.05849     102002.7      46.7237      46.7237      46.7237 
  170000    92.283932   -11345.277   -10465.569   -671.56055     102002.7      46.7237      46.7237      46.7237 
  171000    91.052112   -11366.013   -10498.047   -496.54675     102002.7      46.7237      46.7237      46.7237 
  172000    90.463695   -11356.759   -10494.402   -689.11658     102002.7      46.7237      46.7237      46.7237 
  173000    92.827321   -11333.163   -10448.275   -676.55284     102002.7      46.7237      46.7237      46.7237 
  174000    92.127385   -11358.462   -10480.246   -462.73563     102002.7      46.7237      46.7237      46.7237 
  175000    92.357252   -11352.314   -10471.907   -527.09782     102002.7      46.7237      46.7237      46.7237 
  176000    90.341203   -11344.697   -10483.508   -502.74071     102002.7      46.7237      46.7237      46.7237 
  177000    89.313571   -11366.411   -10515.018   -651.26872     102002.7      46.7237      46.7237      46.7237 
  178000    91.529891   -11357.377   -10484.856   -541.32162     102002.7      46.7237      46.7237      46.7237 
  179000    90.652338   -11366.703   -10502.547   -610.63431     102002.7      46.7237      46.7237      46.7237 
  180000    90.505284   -11343.337   -10480.583   -333.74065     102002.7      46.7237      46.7237      46.7237 
  181000    94.226913   -11350.529   -10452.298   -519.11923     102002.7      46.7237      46.7237      46.7237 
  182000    92.346904       -11360   -10479.691   -562.69013     102002.7      46.7237      46.7237      46.7237 
  183000    92.019575   -11344.566   -10467.378   -438.51601     102002.7      46.7237      46.7237      46.7237 
  184000    90.187948   -11360.514   -10500.786   -502.25968     102002.7      46.7237      46.7237      46.7237 
  185000    89.276983   -11362.751   -10511.706   -484.46405     102002.7      46.7237      46.7237      46.7237 
  186000    89.328594   -11345.624   -10494.088   -523.58823     102002.7      46.7237      46.7237      46.7237 
  187000    90.515016   -11344.275   -10481.429   -733.11324     102002.7      46.7237      46.7237      46.7237 
  188000    91.756404   -11344.359   -10469.679   -864.39507     102002.7      46.7237      46.7237      46.7237 
  189000    90.844351   -11326.597   -10460.612   -721.30616     102002.7      46.7237      46.7237      46.7237 
  190000    92.293789   -11358.943    -10479.14   -660.65383     102002.7      46.7237      46.7237      46.7237 
  191000    89.554368   -11342.088     -10488.4   -652.08105     102002.7      46.7237      46.7237      46.7237 
  192000    91.238394   -11334.905   -10465.163   -655.95542     102002.7      46.7237      46.7237      46.7237 
  193000    92.669133   -11372.501    -10489.12   -614.03034     102002.7      46.7237      46.7237      46.7237 
  194000    87.016404   -11350.141   -10520.646   -757.39323     102002.7      46.7237      46.7237      46.7237 
  195000    91.574081   -11346.098   -10473.156     -851.214     102002.7      46.7237      46.7237      46.7237 
  196000      90.4493   -11368.616   -10506.396    -747.0137     102002.7      46.7237      46.7237      46.7237 
  197000    89.394889    -11375.93   -10523.762   -515.89725     102002.7      46.7237      46.7237      46.7237 
  198000    90.706333   -11349.748   -10485.078   -493.04819     102002.7      46.7237      46.7237      46.7237 
  199000    90.086262   -11370.037   -10511.278    -511.0001     102002.7      46.7237      46.7237      46.7237 
  200000    91.617116   -11339.093   -10465.741   -402.33909     102002.7      46.7237      46.7237      46.7237 
  201000     91.70452   -11338.186   -10464.001   -479.86652     102002.7      46.7237      46.7237      46.7237 
  202000    93.098412   -11370.199   -10482.726   -375.06874     102002.7      46.7237      46.7237      46.7237 
  203000    90.563013   -11363.509   -10500.205   -481.09454     102002.7      46.7237      46.7237      46.7237 
  204000    91.705321   -11341.107   -10466.914   -319.20346     102002.7      46.7237      46.7237      46.7237 
  205000    92.701788   -11365.399   -10481.707   -269.92482     102002.7      46.7237      46.7237      46.7237 
  206000    91.011603    -11326.92    -10459.34   -279.51473     102002.7      46.7237      46.7237      46.7237 
  207000    93.171742   -11370.908   -10482.736   -744.37659     102002.7      46.7237      46.7237      46.7237 
  208000    89.820461    -11361.26   -10505.035   -525.34988     102002.7      46.7237      46.7237      46.7237 
  209000    89.107322   -11365.376   -10515.949   -517.94134     102002.7      46.7237      46.7237      46.7237 
  210000    89.513157    -11337.54   -10484.244   -464.15772     102002.7      46.7237      46.7237      46.7237 
  211000    92.209832   -11352.351   -10473.349   -370.47002     102002.7      46.7237      46.7237      46.7237 
  212000    90.966656   -11376.513   -10509.362   -677.85678     102002.7      46.7237      46.7237      46.7237 
  213000    89.726766   -11324.517   -10469.185   -462.77712     102002.7      46.7237      46.7237      46.7237 
  214000    89.968197   -11349.246   -10491.612   -473.22927     102002.7      46.7237      46.7237      46.7237 
  215000    91.163813   -11340.433   -10471.402   -531.32715     102002.7      46.7237      46.7237      46.7237 
  216000    89.621894   -11352.318   -10497.986   -463.54845     102002.7      46.7237      46.7237      46.7237 
  217000    89.969398    -11339.72   -10482.075   -512.50661     102002.7      46.7237      46.7237      46.7237 
  218000    90.859042   -11339.098   -10472.973   -639.03372     102002.7      46.7237      46.7237      46.7237 
  219000     92.20293   -11345.097   -10466.161   -432.52292     102002.7      46.7237      46.7237      46.7237 
  220000    89.202619    -11348.87   -10498.534   -646.37748     102002.7      46.7237      46.7237      46.7237 
  221000     92.02147   -11341.378   -10464.171   -770.49646     102002.7      46.7237      46.7237      46.7237 
  222000    90.138407   -11351.406    -10492.15   -452.22754     102002.7      46.7237      46.7237      46.7237 
  223000    93.684483   -11342.445   -10449.386   -544.44498     102002.7      46.7237      46.7237      46.7237 
  224000    91.677375   -11338.083   -10464.157   -736.82387     102002.7      46.7237      46.7237      46.7237 
  225000    90.766008    -11368.71   -10503.471   -560.89353     102002.7      46.7237      46.7237      46.7237 
  226000    90.895181   -11361.717   -10495.246   -745.11086     102002.7      46.7237      46.7237      46.7237 
  227000    92.696193   -11345.406   -10461.767   -631.66459     102002.7      46.7237      46.7237      46.7237 
  228000    92.094318   -11348.237   -10470.336   -456.66424     102002.7      46.7237      46.7237      46.7237 
  229000    90.004797   -11357.857   -10499.875   -763.84888     102002.7      46.7237      46.7237      46.7237 
  230000    89.834914    -11354.33   -10497.967   -488.49113     102002.7      46.7237      46.7237      46.7237 
  231000     90.46235   -11350.441   -10488.096   -678.74451     102002.7      46.7237      46.7237      46.7237 
  232000    92.143408   -11362.064   -10483.695   -818.65283     102002.7      46.7237      46.7237      46.7237 
  233000    92.588819   -11358.197   -10475.582   -555.82238     102002.7      46.7237      46.7237      46.7237 
  234000    90.029551   -11352.712   -10494.494   -553.93979     102002.7      46.7237      46.7237      46.7237 
  235000    90.650579   -11383.828    -10519.69   -484.08228     102002.7      46.7237      46.7237      46.7237 
  236000    90.185949   -11355.778   -10496.069   -470.80828     102002.7      46.7237      46.7237      46.7237 
  237000    90.088722   -11339.124   -10480.342    -374.0451     102002.7      46.7237      46.7237      46.7237 
  238000    90.535687   -11341.959   -10478.916   -341.29052     102002.7      46.7237      46.7237      46.7237 
  239000    91.543292   -11324.864   -10452.215   -283.94575     102002.7      46.7237      46.7237      46.7237 
  240000    92.785816   -11344.357   -10459.864   -427.36369     102002.7      46.7237      46.7237      46.7237 
  241000    91.236618   -11354.747   -10485.022    -612.5849     102002.7      46.7237      46.7237      46.7237 
  242000    92.505576   -11354.706   -10472.885   -704.85735     102002.7      46.7237      46.7237      46.7237 
  243000    93.828189    -11363.42    -10468.99   -663.14731     102002.7      46.7237      46.7237      46.7237 
  244000    89.047649   -11340.785   -10491.927   -591.45242     102002.7      46.7237      46.7237      46.7237 
  245000     88.32008   -11364.427   -10522.505   -726.29644     102002.7      46.7237      46.7237      46.7237 
  246000    91.720795   -11342.471   -10468.131   -463.94995     102002.7      46.7237      46.7237      46.7237 
  247000    89.314848   -11334.028   -10482.623   -435.64966     102002.7      46.7237      46.7237      46.7237 
  248000     89.70929   -11355.473   -10500.307   -897.73487     102002.7      46.7237      46.7237      46.7237 
  249000    90.220204   -11362.187   -10502.151   -728.93457     102002.7      46.7237      46.7237      46.7237 
  250000     92.25734   -11357.697   -10478.241   -553.14855     102002.7      46.7237      46.7237      46.7237 
  251000    91.039304   -11347.192   -10479.348   -543.18849     102002.7      46.7237      46.7237      46.7237 
  252000     90.24541   -11357.919   -10497.643   -619.29122     102002.7      46.7237      46.7237      46.7237 
  253000    93.083179   -11346.278    -10458.95   -824.15612     102002.7      46.7237      46.7237      46.7237 
  254000    91.686471   -11349.099   -10475.086   -492.87863     102002.7      46.7237      46.7237      46.7237 
  255000    91.358659   -11345.194   -10474.306   -435.13576     102002.7      46.7237      46.7237      46.7237 
  256000    93.451121   -11342.709   -10451.874   -619.36511     102002.7      46.7237      46.7237      46.7237 
  257000    92.249207   -11352.186   -10472.808   -595.46651     102002.7      46.7237      46.7237      46.7237 
  258000    90.887942   -11335.058   -10468.657   -594.10387     102002.7      46.7237      46.7237      46.7237 
  259000      90.6395   -11348.922   -10484.889   -618.25925     102002.7      46.7237      46.7237      46.7237 
  260000    94.184215   -11347.182   -10449.359   -701.14754     102002.7      46.7237      46.7237      46.7237 
  261000    91.023321   -11326.979   -10459.287   -692.13379     102002.7      46.7237      46.7237      46.7237 
  262000      93.6093    -11361.19   -10468.847   -535.31427     102002.7      46.7237      46.7237      46.7237 
  263000    91.243103   -11354.118   -10484.331   -637.28421     102002.7      46.7237      46.7237      46.7237 
  264000    88.727523    -11347.32   -10501.513   -553.80953     102002.7      46.7237      46.7237      46.7237 
  265000    91.360486   -11339.763   -10468.857    -572.5045     102002.7      46.7237      46.7237      46.7237 
  266000    92.726584   -11360.131   -10476.203    -652.5923     102002.7      46.7237      46.7237      46.7237 
  267000    91.516346    -11367.36   -10494.968   -557.86753     102002.7      46.7237      46.7237      46.7237 
  268000    93.356618   -11358.606   -10468.672   -634.35723     102002.7      46.7237      46.7237      46.7237 
  269000    90.762973   -11352.032   -10486.822   -464.74937     102002.7      46.7237      46.7237      46.7237 
  270000    91.004867   -11348.907   -10481.391   -421.32601     102002.7      46.7237      46.7237      46.7237 
  271000    94.769912   -11334.014   -10430.607   -577.55312     102002.7      46.7237      46.7237      46.7237 
  272000    91.259074   -11355.813   -10485.874   -814.51536     102002.7      46.7237      46.7237      46.7237 
  273000    90.092222   -11355.619   -10496.803   -542.57611     102002.7      46.7237      46.7237      46.7237 
  274000    90.113211    -11362.58   -10503.564   -539.93151     102002.7      46.7237      46.7237      46.7237 
  275000    90.827443   -11356.617   -10490.793   -482.49124     102002.7      46.7237      46.7237      46.7237 
  276000     85.75648   -11349.359   -10531.875   -649.31498     102002.7      46.7237      46.7237      46.7237 
  277000    91.256344   -11349.479   -10479.566   -625.88114     102002.7      46.7237      46.7237      46.7237 
  278000    91.270481   -11352.322   -10482.274   -537.53971     102002.7      46.7237      46.7237      46.7237 
  279000    92.087829   -11337.427   -10459.588   -380.48019     102002.7      46.7237      46.7237      46.7237 
  280000     90.31474   -11351.979   -10491.042   -564.99899     102002.7      46.7237      46.7237      46.7237 
  281000    89.981164   -11351.785   -10494.028   -193.09176     102002.7      46.7237      46.7237      46.7237 
  282000    90.738889   -11347.686   -10482.706   -421.06042     102002.7      46.7237      46.7237      46.7237 
  283000    92.506017   -11369.021   -10487.195   -603.01527     102002.7      46.7237      46.7237      46.7237 
  284000    90.835983   -11343.199   -10477.294   -457.09783     102002.7      46.7237      46.7237      46.7237 
  285000    92.364177   -11374.501   -10494.028   -525.87384     102002.7      46.7237      46.7237      46.7237 
  286000    91.353768   -11345.956   -10475.114   -671.43293     102002.7      46.7237      46.7237      46.7237 
  287000    89.129518   -11351.817   -10502.178   -701.68669     102002.7      46.7237      46.7237      46.7237 
  288000    91.810763   -11336.155   -10460.957   -864.65612     102002.7      46.7237      46.7237      46.7237 
  289000    88.150968   -11331.428   -10491.117   -718.47754     102002.7      46.7237      46.7237      46.7237 
  290000    92.101305   -11370.302   -10492.334    -549.2158     102002.7      46.7237      46.7237      46.7237 
  291000    91.518643   -11345.308   -10472.895   -560.66733     102002.7      46.7237      46.7237      46.7237 
  292000    86.060246   -11355.283   -10534.903   -505.61423     102002.7      46.7237      46.7237      46.7237 
  293000    89.101303   -11346.308   -10496.938    -408.1063     102002.7      46.7237      46.7237      46.7237 
  294000    93.674364   -11355.474   -10462.511   -484.32581     102002.7      46.7237      46.7237      46.7237 
  295000    93.510172   -11321.707   -10430.309   -526.07435     102002.7      46.7237      46.7237      46.7237 
  296000    88.435812   -11364.813   -10521.787   -567.10584     102002.7      46.7237      46.7237      46.7237 
  297000    92.568225   -11357.404   -10474.985   -448.14169     102002.7      46.7237      46.7237      46.7237 
  298000    91.124448   -11364.791   -10496.135   -477.25495     102002.7      46.7237      46.7237      46.7237 
  299000    90.245899   -11333.568   -10473.287   -471.04067     102002.7      46.7237      46.7237      46.7237 
  300000    90.103159   -11347.509   -10488.589   -522.05525     102002.7      46.7237      46.7237      46.7237 
  301000    89.165444   -11359.267   -10509.286   -624.14746     102002.7      46.7237      46.7237      46.7237 
  302000    91.325962   -11343.336   -10472.759   -625.99957     102002.7      46.7237      46.7237      46.7237 
  303000     93.73622   -11356.971   -10463.418   -575.43192     102002.7      46.7237      46.7237      46.7237 
  304000    92.220016   -11361.561   -10482.462    -236.5458     102002.7      46.7237      46.7237      46.7237 
  305000     91.67725   -11342.176   -10468.251   -254.35161     102002.7      46.7237      46.7237      46.7237 
  306000    91.123929   -11337.158   -10468.507   -626.77005     102002.7      46.7237      46.7237      46.7237 
  307000    92.670999   -11355.686   -10472.288   -419.04254     102002.7      46.7237      46.7237      46.7237 
  308000    92.882531   -11383.922   -10498.508   -559.82544     102002.7      46.7237      46.7237      46.7237 
  309000    92.627585   -11349.374    -10466.39   -581.71786     102002.7      46.7237      46.7237      46.7237 
  310000    91.692067   -11347.974   -10473.908   -658.43115     102002.7      46.7237      46.7237      46.7237 
  311000    89.265846   -11359.657   -10508.719   -662.65364     102002.7      46.7237      46.7237      46.7237 
  312000    91.535327   -11363.206   -10490.634   -396.26672     102002.7      46.7237      46.7237      46.7237 
  313000    89.644095   -11361.795   -10507.251   -568.78798     102002.7      46.7237      46.7237      46.7237 
  314000    90.649839   -11372.019   -10507.887   -656.04244     102002.7      46.7237      46.7237      46.7237 
  315000    91.907957   -11353.345    -10477.22   -662.89591     102002.7      46.7237      46.7237      46.7237 
  316000    91.259728     -11361.9   -10491.955   -526.69619     102002.7      46.7237      46.7237      46.7237 
  317000    91.557532   -11361.655   -10488.871   -646.03818     102002.7      46.7237      46.7237      46.7237 
  318000    90.955712   -11365.983   -10498.936   -545.07137     102002.7      46.7237      46.7237      46.7237 
  319000    90.479718   -11341.242   -10478.732   -419.82584     102002.7      46.7237      46.7237      46.7237 
  320000    93.522511   -11354.539   -10463.023   -470.19701     102002.7      46.7237      46.7237      46.7237 
  321000     90.31829   -11358.775   -10497.805   -594.92911     102002.7      46.7237      46.7237      46.7237 
  322000    90.752382   -11351.393   -10486.285   -508.70525     102002.7      46.7237      46.7237      46.7237 
  323000    90.763297   -11374.277   -10509.064   -490.46606     102002.7      46.7237      46.7237      46.7237 
  324000    87.538261   -11357.114   -10522.644   -551.76657     102002.7      46.7237      46.7237      46.7237 
  325000    92.708151   -11379.949   -10496.197   -642.36869     102002.7      46.7237      46.7237      46.7237 
  326000    92.174429   -11352.001   -10473.337   -615.39862     102002.7      46.7237      46.7237      46.7237 
  327000     91.10259   -11348.579   -10480.132   -438.48636     102002.7      46.7237      46.7237      46.7237 
  328000    88.569478   -11364.191   -10519.891   -516.43541     102002.7      46.7237      46.7237      46.7237 
  329000    90.465895   -11357.382   -10495.004   -517.53787     102002.7      46.7237      46.7237      46.7237 
  330000    90.212257   -11378.705   -10518.745   -694.84886     102002.7      46.7237      46.7237      46.7237 
  331000    91.006795    -11345.36   -10477.826    -536.7272     102002.7      46.7237      46.7237      46.7237 
  332000    91.318877   -11352.174   -10481.665   -825.66262     102002.7      46.7237      46.7237      46.7237 
  333000    93.152497   -11352.736   -10464.747   -576.99124     102002.7      46.7237      46.7237      46.7237 
  334000    89.832628   -11354.544   -10498.203   -463.23077     102002.7      46.7237      46.7237      46.7237 
  335000    91.592294   -11349.979   -10476.863    -591.2571     102002.7      46.7237      46.7237      46.7237 
  336000    94.589416   -11377.788   -10476.102   -700.47129     102002.7      46.7237      46.7237      46.7237 
  337000    91.638881    -11330.71    -10457.15   -335.40775     102002.7      46.7237      46.7237      46.7237 
  338000     91.18016   -11357.092   -10487.905   -714.56323     102002.7      46.7237      46.7237      46.7237 
  339000    89.120875   -11348.025   -10498.469    -621.1158     102002.7      46.7237      46.7237      46.7237 
  340000    91.503743   -11366.876   -10494.605   -706.06163     102002.7      46.7237      46.7237      46.7237 
  341000    90.415121   -11333.425   -10471.531   -504.06879     102002.7      46.7237      46.7237      46.7237 
  342000    89.235017   -11365.695   -10515.051    -458.4805     102002.7      46.7237      46.7237      46.7237 
  343000    90.424785   -11364.322   -10502.336   -608.82622     102002.7      46.7237      46.7237      46.7237 
  344000    91.865401   -11352.058   -10476.339   -675.43233     102002.7      46.7237      46.7237      46.7237 
  345000    90.844779   -11344.122   -10478.132   -569.83317     102002.7      46.7237      46.7237      46.7237 
  346000    91.896929    -11363.97    -10487.95   -663.88389     102002.7      46.7237      46.7237      46.7237 
  347000    91.288209   -11333.173   -10462.956   -346.52404     102002.7      46.7237      46.7237      46.7237 
  348000     90.87533   -11356.853   -10490.572    -678.2409     102002.7      46.7237      46.7237      46.7237 
  349000    90.840023    -11347.58   -10481.635   -425.18411     102002.7      46.7237      46.7237      46.7237 
  350000    92.094053   -11368.621   -10490.723   -852.14024     102002.7      46.7237      46.7237      46.7237 
  351000     89.89029   -11358.587   -10501.696   -686.03773     102002.7      46.7237      46.7237      46.7237 
  352000    91.051258   -11331.028    -10463.07   -516.66873     102002.7      46.7237      46.7237      46.7237 
  353000    91.465206   -11339.092   -10467.188   -671.74978     102002.7      46.7237      46.7237      46.7237 
  354000    91.007619   -11348.746   -10481.204   -550.22866     102002.7      46.7237      46.7237      46.7237 
  355000       91.743   -11362.732   -10488.179   -530.40659     102002.7      46.7237      46.7237      46.7237 
  356000    91.643255   -11334.085   -10460.483   -365.85302     102002.7      46.7237      46.7237      46.7237 
  357000    91.551833   -11364.728   -10491.998   -462.36111     102002.7      46.7237      46.7237      46.7237 
  358000    94.739062    -11348.09   -10444.978   -538.31346     102002.7      46.7237      46.7237      46.7237 
  359000    89.313845    -11350.33   -10498.934   -629.19684     102002.7      46.7237      46.7237      46.7237 
  360000    92.126814   -11367.389   -10489.178    -801.2039     102002.7      46.7237      46.7237      46.7237 
  361000    92.738458   -11347.063   -10463.022   -418.30389     102002.7      46.7237      46.7237      46.7237 
  362000    91.715689   -11372.402    -10498.11   -613.23371     102002.7      46.7237      46.7237      46.7237 
  363000    90.602513   -11354.636   -10490.956   -697.79835     102002.7      46.7237      46.7237      46.7237 
  364000    91.955579   -11368.547   -10491.968   -642.53504     102002.7      46.7237      46.7237      46.7237 
  365000    92.772395   -11348.139   -10463.774   -595.01154     102002.7      46.7237      46.7237      46.7237 
  366000    88.941338   -11382.063   -10534.218   -647.44226     102002.7      46.7237      46.7237      46.7237 
  367000    93.091957   -11359.573   -10472.162   -420.74011     102002.7      46.7237      46.7237      46.7237 
  368000    88.861946   -11365.309   -10518.221   -579.93264     102002.7      46.7237      46.7237      46.7237 
  369000    91.122712   -11366.305   -10497.666   -548.75618     102002.7      46.7237      46.7237      46.7237 
  370000    93.978362   -11346.933   -10451.072   -445.08131     102002.7      46.7237      46.7237      46.7237 
  371000    90.993185   -11336.993   -10469.588   -406.25177     102002.7      46.7237      46.7237      46.7237 
  372000    90.517385   -11358.213   -10495.345   -577.32495     102002.7      46.7237      46.7237      46.7237 
  373000    91.836667   -11344.054   -10468.609   -433.33215     102002.7      46.7237      46.7237      46.7237 
  374000    93.481885   -11362.401   -10471.273   -735.48498     102002.7      46.7237      46.7237      46.7237 
  375000    91.852024   -11356.585   -10480.994   -554.30704     102002.7      46.7237      46.7237      46.7237 
  376000    87.994113   -11331.826    -10493.01   -479.03266     102002.7      46.7237      46.7237      46.7237 
  377000    92.623141   -11339.298   -10456.356   -450.39942     102002.7      46.7237      46.7237      46.7237 
  378000    91.788129   -11342.805   -10467.823   -460.69219     102002.7      46.7237      46.7237      46.7237 
  379000    90.268151   -11370.586   -10510.093   -518.61204     102002.7      46.7237      46.7237      46.7237 
  380000    91.300751   -11349.782   -10479.446   -401.05854     102002.7      46.7237      46.7237      46.7237 
  381000    91.119062   -11359.549   -10490.944   -468.76986     102002.7      46.7237      46.7237      46.7237 
  382000    93.656228   -11352.926   -10460.136   -433.57575     102002.7      46.7237      46.7237      46.7237 
  383000    90.992734   -11355.389   -10487.989   -503.30119     102002.7      46.7237      46.7237      46.7237 
  384000     90.40211    -11366.17     -10504.4   -742.37808     102002.7      46.7237      46.7237      46.7237 
  385000     90.45959   -11380.464   -10518.146   -364.08451     102002.7      46.7237      46.7237      46.7237 
  386000    92.369807   -11364.828   -10484.301   -674.90821     102002.7      46.7237      46.7237      46.7237 
  387000    90.485714   -11353.906    -10491.34   -651.58288     102002.7      46.7237      46.7237      46.7237 
  388000    90.013981   -11362.735   -10504.665   -699.37982     102002.7      46.7237      46.7237      46.7237 
  389000    91.894952   -11347.173   -10471.173   -630.15741     102002.7      46.7237      46.7237      46.7237 
  390000    90.431628   -11354.078   -10492.027   -355.06556     102002.7      46.7237      46.7237      46.7237 
  391000     92.10216    -11360.24   -10482.264   -696.58173     102002.7      46.7237      46.7237      46.7237 
  392000    91.580265    -11347.78   -10474.779   -570.39831     102002.7      46.7237      46.7237      46.7237 
  393000    91.426832   -11364.316   -10492.778   -593.11835     102002.7      46.7237      46.7237      46.7237 
  394000    90.855897   -11348.405   -10482.309   -558.51214     102002.7      46.7237      46.7237      46.7237 
  395000    92.928818   -11360.704   -10474.848   -428.51501     102002.7      46.7237      46.7237      46.7237 
  396000     91.13537   -11359.356   -10490.596   -462.88311     102002.7      46.7237      46.7237      46.7237 
  397000    91.040836   -11353.084   -10485.226   -472.06247     102002.7      46.7237      46.7237      46.7237 
  398000    93.024607    -11345.68   -10458.911    -599.8998     102002.7      46.7237      46.7237      46.7237 
  399000    91.419881   -11334.518   -10463.046   -392.00767     102002.7      46.7237      46.7237      46.7237 
  400000    90.020002   -11341.167    -10483.04   -797.37321     102002.7      46.7237      46.7237      46.7237 
  401000    90.635624   -11341.861   -10477.865   -462.38317     102002.7      46.7237      46.7237      46.7237 
  402000    90.925095   -11361.105    -10494.35   -466.98052     102002.7      46.7237      46.7237      46.7237 
  403000    93.055255   -11349.301    -10462.24   -515.85838     102002.7      46.7237      46.7237      46.7237 
  404000    89.962025   -11338.733   -10481.159   -476.61565     102002.7      46.7237      46.7237      46.7237 
  405000    93.221913   -11340.847   -10452.197   -560.52471     102002.7      46.7237      46.7237      46.7237 
  406000    91.369257   -11352.397   -10481.408   -398.13501     102002.7      46.7237      46.7237      46.7237 
  407000    92.973348   -11348.879   -10462.598   -424.98664     102002.7      46.7237      46.7237      46.7237 
  408000    89.766199   -11361.609   -10505.901   -695.41009     102002.7      46.7237      46.7237      46.7237 
  409000    93.812571   -11351.938   -10457.657   -623.48367     102002.7      46.7237      46.7237      46.7237 
  410000    90.034283   -11358.103    -10499.84   -593.07313     102002.7      46.7237      46.7237      46.7237 
  411000    93.867518   -11362.631   -10467.826   -357.25059     102002.7      46.7237      46.7237      46.7237 
  412000    91.893941   -11368.128   -10492.137   -419.53806     102002.7      46.7237      46.7237      46.7237 
  413000    89.484556   -11350.713    -10497.69   -425.87983     102002.7      46.7237      46.7237      46.7237 
  414000     90.07139   -11343.425   -10484.808   -95.560616     102002.7      46.7237      46.7237      46.7237 
  415000    91.006403   -11324.764   -10457.234   -401.02471     102002.7      46.7237      46.7237      46.7237 
  416000    92.060825   -11359.187   -10481.606   -449.05784     102002.7      46.7237      46.7237      46.7237 
  417000    89.036633   -11347.429   -10498.676   -143.19602     102002.7      46.7237      46.7237      46.7237 
  418000    90.097931   -11358.527   -10499.657   -237.20565     102002.7      46.7237      46.7237      46.7237 
  419000    92.311166   -11349.519   -10469.551   -581.79869     102002.7      46.7237      46.7237      46.7237 
  420000    91.659549   -11359.534   -10485.777   -567.78751     102002.7      46.7237      46.7237      46.7237 
  421000     91.17497   -11344.198   -10475.061   -528.95786     102002.7      46.7237      46.7237      46.7237 
  422000    91.833936   -11375.964   -10500.545   -439.41636     102002.7      46.7237      46.7237      46.7237 
  423000    92.230251   -11373.222   -10494.025   -581.92837     102002.7      46.7237      46.7237      46.7237 
  424000    89.972379   -11346.927   -10489.253   -371.89014     102002.7      46.7237      46.7237      46.7237 
  425000    93.764444   -11346.659   -10452.838   -378.98952     102002.7      46.7237      46.7237      46.7237 
  426000    90.793855   -11374.199   -10508.695   -571.34233     102002.7      46.7237      46.7237      46.7237 
  427000    88.915548   -11366.444   -10518.845   -273.07828     102002.7      46.7237      46.7237      46.7237 
  428000    88.243294   -11364.597   -10523.406   -317.53682     102002.7      46.7237      46.7237      46.7237 
  429000    91.907463   -11355.174   -10479.054   -484.21659     102002.7      46.7237      46.7237      46.7237 
  430000    90.677106   -11378.637   -10514.246   -676.00086     102002.7      46.7237      46.7237      46.7237 
  431000    91.581742   -11356.545    -10483.53   -734.15228     102002.7      46.7237      46.7237      46.7237 
  432000    90.994539   -11384.392   -10516.975   -668.04823     102002.7      46.7237      46.7237      46.7237 
  433000    92.611237   -11355.377   -10472.548   -564.08408     102002.7      46.7237      46.7237      46.7237 
  434000    90.767716   -11375.237   -10509.982    -698.9031     102002.7      46.7237      46.7237      46.7237 
  435000      92.1311   -11367.515   -10489.264   -601.44306     102002.7      46.7237      46.7237      46.7237 
  436000    90.575101   -11355.952   -10492.533   -602.84129     102002.7      46.7237      46.7237      46.7237 
  437000    91.515017   -11364.372   -10491.993   -668.62306     102002.7      46.7237      46.7237      46.7237 
  438000    90.617158   -11320.546   -10456.727    -757.2307     102002.7      46.7237      46.7237      46.7237 
  439000    89.561865   -11364.726   -10510.966   -688.19234     102002.7      46.7237      46.7237      46.7237 
  440000     92.98664   -11357.861   -10471.454   -511.27357     102002.7      46.7237      46.7237      46.7237 
  441000    94.693083   -11350.088   -10447.414    -664.2845     102002.7      46.7237      46.7237      46.7237 
  442000    89.356321    -11341.59   -10489.789   -520.66199     102002.7      46.7237      46.7237      46.7237 
  443000    89.489114    -11342.58   -10489.514   -503.37192     102002.7      46.7237      46.7237      46.7237 
  444000    91.060155   -11356.531   -10488.488   -300.25837     102002.7      46.7237      46.7237      46.7237 
  445000    89.719117   -11366.479   -10511.219   -561.99249     102002.7      46.7237      46.7237      46.7237 
  446000    90.868617   -11352.418   -10486.201    -742.8981     102002.7      46.7237      46.7237      46.7237 
  447000    89.736348   -11347.933   -10492.509   -872.80259     102002.7      46.7237      46.7237      46.7237 
  448000    91.032522   -11369.573   -10501.793    -543.0856     102002.7      46.7237      46.7237      46.7237 
  449000    89.754648   -11331.537   -10475.939   -392.82598     102002.7      46.7237      46.7237      46.7237 
  450000    91.666968   -11346.064   -10472.237   -592.13136     102002.7      46.7237      46.7237      46.7237 
  451000    93.660988   -11360.966    -10468.13   -817.90477     102002.7      46.7237      46.7237      46.7237 
  452000    91.511708   -11347.577    -10475.23   -486.10525     102002.7      46.7237      46.7237      46.7237 
  453000     91.39948   -11348.721   -10477.443   -821.61825     102002.7      46.7237      46.7237      46.7237 
  454000    93.258683   -11350.763   -10461.763   -786.90079     102002.7      46.7237      46.7237      46.7237 
  455000    90.569666   -11343.804   -10480.437   -642.68661     102002.7      46.7237      46.7237      46.7237 
  456000     90.16942   -11369.084   -10509.532   -753.43493     102002.7      46.7237      46.7237      46.7237 
  457000    89.552722   -11340.198   -10486.525   -619.73016     102002.7      46.7237      46.7237      46.7237 
  458000    92.551473     -11324.2   -10441.941   -389.56183     102002.7      46.7237      46.7237      46.7237 
  459000    90.617927    -11365.51   -10501.683   -612.84288     102002.7      46.7237      46.7237      46.7237 
  460000    91.441539   -11373.513   -10501.835   -870.02009     102002.7      46.7237      46.7237      46.7237 
  461000    91.024023   -11329.487   -10461.789   -340.91197     102002.7      46.7237      46.7237      46.7237 
  462000     90.12509   -11359.402   -10500.273   -579.61932     102002.7      46.7237      46.7237      46.7237 
  463000    93.356582   -11358.214    -10468.28   -454.15869     102002.7      46.7237      46.7237      46.7237 
  464000    90.410544   -11361.481   -10499.631   -661.26882     102002.7      46.7237      46.7237      46.7237 
  465000     90.23909    -11347.93   -10487.714   -413.70195     102002.7      46.7237      46.7237      46.7237 
  466000    91.315532   -11380.274   -10509.797   -542.36131     102002.7      46.7237      46.7237      46.7237 
  467000    91.493156   -11345.696   -10473.526   -467.96207     102002.7      46.7237      46.7237      46.7237 
  468000     89.62096   -11356.359   -10502.036   -747.12578     102002.7      46.7237      46.7237      46.7237 
  469000    92.830525   -11363.885   -10478.966   -577.23846     102002.7      46.7237      46.7237      46.7237 
  470000    92.509515   -11370.927   -10489.068   -597.90175     102002.7      46.7237      46.7237      46.7237 
  471000    91.710925   -11364.301   -10490.054   -619.23712     102002.7      46.7237      46.7237      46.7237 
  472000    88.015022   -11356.872   -10517.858   -554.04612     102002.7      46.7237      46.7237      46.7237 
  473000    91.191784   -11352.741   -10483.444     -665.335     102002.7      46.7237      46.7237      46.7237 
  474000    93.915655   -11358.654   -10463.391   -554.44811     102002.7      46.7237      46.7237      46.7237 
  475000     89.43034   -11360.055   -10507.548   -660.52605     102002.7      46.7237      46.7237      46.7237 
  476000    93.646999   -11356.048   -10463.345   -340.86802     102002.7      46.7237      46.7237      46.7237 
  477000    92.862299   -11362.119   -10476.897    -275.9128     102002.7      46.7237      46.7237      46.7237 
  478000    88.206124   -11360.743   -10519.907   -531.81449     102002.7      46.7237      46.7237      46.7237 
  479000     93.19638   -11367.862   -10479.456   -518.80204     102002.7      46.7237      46.7237      46.7237 
  480000    89.574877   -11332.417   -10478.533   -327.81456     102002.7      46.7237      46.7237      46.7237 
  481000    88.698554   -11368.605   -10523.074   -625.34099     102002.7      46.7237      46.7237      46.7237 
  482000    89.904445   -11333.677   -10476.651    -568.6059     102002.7      46.7237      46.7237      46.7237 
  483000    90.912793   -11367.958    -10501.32   -608.79089     102002.7      46.7237      46.7237      46.7237 
  484000    88.626409   -11331.348   -10486.505   -634.30974     102002.7      46.7237      46.7237      46.7237 
  485000    90.394742    -11377.95   -10516.251    -719.4374     102002.7      46.7237      46.7237      46.7237 
  486000    90.416839   -11346.965   -10485.055   -680.44474     102002.7      46.7237      46.7237      46.7237 
  487000     89.59016   -11365.392   -10511.362   -688.80433     102002.7      46.7237      46.7237      46.7237 
  488000    92.744033   -11356.044   -10471.949   -579.78213     102002.7      46.7237      46.7237      46.7237 
  489000    91.787589   -11364.185   -10489.208   -641.65351     102002.7      46.7237      46.7237      46.7237 
  490000    90.556407   -11366.188   -10502.947   -425.70401     102002.7      46.7237      46.7237      46.7237 
  491000    90.095474   -11375.047     -10516.2   -252.54949     102002.7      46.7237      46.7237      46.7237 
  492000    92.431919   -11334.512   -10453.392   -490.42724     102002.7      46.7237      46.7237      46.7237 
  493000    89.612113    -11350.95   -10496.711   -464.80415     102002.7      46.7237      46.7237      46.7237 
  494000    94.147249   -11347.416   -10449.945   -793.73492     102002.7      46.7237      46.7237      46.7237 
  495000    92.174569   -11342.216    -10463.55   -581.02613     102002.7      46.7237      46.7237      46.7237 
  496000    89.113772   -11326.853   -10477.364   -500.06929     102002.7      46.7237      46.7237      46.7237 
  497000    90.180582   -11357.471   -10497.813   -265.97318     102002.7      46.7237      46.7237      46.7237 
  498000    90.784996   -11374.406   -10508.986    -613.1935     102002.7      46.7237      46.7237      46.7237 
  499000    90.674896   -11355.231    -10490.86   -590.59905     102002.7      46.7237      46.7237      46.7237 
  500000    90.882488   -11368.607   -10502.258    -643.2321     102002.7      46.7237      46.7237      46.7237 
  500500    92.359814   -11364.759   -10484.327   -584.37377     102002.7      46.7237      46.7237      46.7237 
Loop time of 1950.19 on 16 procs for 500000 steps with 3199 atoms

Performance: 22.152 ns/day, 1.083 hours/ns, 256.386 timesteps/s
99.8% CPU use with 16 MPI tasks x no OpenMP threads

MPI task timing breakdown:
Section |  min time  |  avg time  |  max time  |%varavg| %total
---------------------------------------------------------------
Pair    | 810.56     | 1161.1     | 1522.4     | 639.2 | 59.54
Bond    | 129.49     | 174.67     | 213.91     | 188.8 |  8.96
Neigh   | 15.032     | 15.047     | 15.064     |   0.3 |  0.77
Comm    | 184.21     | 582.58     | 969.11     | 995.1 | 29.87
Output  | 0.021302   | 0.021903   | 0.026062   |   0.7 |  0.00
Modify  | 9.1059     | 9.8504     | 10.605     |  13.4 |  0.51
Other   |            | 6.923      |            |       |  0.35

Nlocal:    199.938 ave 232 max 152 min
Histogram: 1 1 1 0 3 2 1 1 3 3
Nghost:    4018.62 ave 4072 max 3982 min
Histogram: 2 2 2 2 3 3 0 1 0 1
Neighs:    11462.2 ave 18441 max 4180 min
Histogram: 1 3 1 2 1 1 1 1 4 1

Total # of neighbors = 183395
Ave neighs/atom = 57.3289
Ave special neighs/atom = 3.60113
Neighbor list builds = 4211
Dangerous builds = 0
Neighbor list info ...
  update every 1 steps, delay 10 steps, check yes
  max neighbors/atom: 2000, page size: 100000
  master list distance cutoff = 16
  ghost atom cutoff = 16
  binsize = 8, bins = 6 6 6
  3 neighbor lists, perpetual/occasional/extra = 3 0 0
  (1) pair buck6d/coul/gauss/dsf, perpetual, skip from (3)
      attributes: half, newton on
      pair build: skip
      stencil: none
      bin: none
  (2) pair lj/cut, perpetual, skip from (3)
      attributes: half, newton on
      pair build: skip
      stencil: none
      bin: none
  (3) neighbor class addition, perpetual
      attributes: half, newton on
      pair build: half/bin/newton
      stencil: half/bin/3d/newton
      bin: standard
Setting up Verlet run ...
  Unit style    : real
  Current step  : 500500
  Time step     : 1
WARNING: Inconsistent image flags (../domain.cpp:786)
Per MPI rank memory allocation (min/avg/max) = 22.79 | 23.15 | 23.44 Mbytes
Step Time TotEng KinEng PotEng E_mol E_pair Temp Pxx Pyy Pzz Pxy Pxz Pyz Cella Cellb Cellc CellAlpha CellBeta CellGamma Volume Press 
  500500       500000   -10484.327    880.43198   -11364.759    4163.8543   -15528.613    92.359814    -486.1954   -500.94371    -765.9822   -253.27769    214.72275    12.843664      46.7237      46.7237      46.7237           90           90           90     102002.7   -584.37377 
  501000       500500   -10456.124    882.87299   -11338.997    4166.6203   -15505.618    92.615883   -395.53221   -450.04053   -592.36297   -164.05798    -121.9119   -9.7847659      46.7237      46.7237      46.7237           90           90           90     102002.7    -479.3119 
  502000       501500   -10496.917    862.99139   -11359.908    4184.0651   -15543.973    90.530246   -472.30673   -163.61778   -669.58444    184.20341    244.21298   -128.65692      46.7237      46.7237      46.7237           90           90           90     102002.7   -435.16965 
  503000       502500   -10484.144    861.90703   -11346.051    4192.1477   -15538.198    90.416494    -946.1571   -267.73875   -164.20785    59.743835   -132.60652   -299.51869      46.7237      46.7237      46.7237           90           90           90     102002.7    -459.3679 
  504000       503500   -10482.563    887.88145   -11370.445    4173.9065   -15544.351    93.141284   -599.81346    -575.0128   -272.13907    72.014212   -155.52141   -83.481211      46.7237      46.7237      46.7237           90           90           90     102002.7   -482.32178 
  505000       504500   -10471.015    886.56232   -11357.578    4182.2339   -15539.811    93.002904    -562.1297   -769.24873   -391.04949   -235.94029    9.0902113    132.14373      46.7237      46.7237      46.7237           90           90           90     102002.7   -574.14264 
  506000       505500   -10469.265    870.51106   -11339.776    4179.1462   -15518.922    91.319081   -695.65992   -698.53696     -266.782    55.784982    -75.82648   -115.97901      46.7237      46.7237      46.7237           90           90           90     102002.7   -553.65962 
  507000       506500    -10471.35     884.9835   -11356.333    4176.5068    -15532.84    92.837281   -592.98615   -645.53967    -109.1138    82.371248     102.5036   -14.521638      46.7237      46.7237      46.7237           90           90           90     102002.7   -449.21321 
  508000       507500   -10509.389    858.16444   -11367.553    4176.7776   -15544.331    90.023886    -563.8318   -447.72456   -425.17372    50.701076    1.5224481    4.5274351      46.7237      46.7237      46.7237           90           90           90     102002.7   -478.91003 
  509000       508500   -10462.305    880.45896   -11342.764    4202.9627   -15545.727    92.362644   -727.66644   -746.24754   -706.60492    -57.81515    170.98854    154.64328      46.7237      46.7237      46.7237           90           90           90     102002.7   -726.83963 
  510000       509500   -10489.729    880.79877   -11370.528    4177.8418    -15548.37    92.398291   -862.44744   -617.45137   -830.88975   -63.124119    57.690097    91.158845      46.7237      46.7237      46.7237           90           90           90     102002.7   -770.26285 
  511000       510500   -10520.512    852.10323   -11372.615    4158.2734   -15530.888    89.388048   -642.78854   -612.85756   -424.22448    -15.85223   -47.419283   -102.12156      46.7237      46.7237      46.7237           90           90           90     102002.7   -559.95686 
  512000       511500   -10490.114    860.42545    -11350.54    4162.1663   -15512.706    90.261072   -600.55787   -542.54413    84.354312    89.127361   -251.21936   -226.19026      46.7237      46.7237      46.7237           90           90           90     102002.7    -352.9159 
  513000       512500   -10513.532    859.79181   -11373.323    4146.2674   -15519.591    90.194601   -198.13594   -518.57063   -349.54086    159.32799   -132.80692   -34.897207      46.7237      46.7237      46.7237           90           90           90     102002.7   -355.41581 
  514000       513500   -10493.143    867.76289   -11360.906    4180.3428   -15541.249     91.03079    -815.1187   -641.97101   -342.46271     39.40383   -56.132023   -72.706711      46.7237      46.7237      46.7237           90           90           90     102002.7   -599.85081 
  515000       514500   -10492.444    868.79081   -11361.235    4162.0129   -15523.248    91.138622   -684.72634   -434.38754    -440.7661    52.742822   -167.01581    58.448751      46.7237      46.7237      46.7237           90           90           90     102002.7   -519.95999 
  516000       515500   -10465.924    873.79209   -11339.716    4178.2599   -15517.976     91.66327   -751.23252   -875.16926   -596.04385    17.344967   -48.278919   -94.566931      46.7237      46.7237      46.7237           90           90           90     102002.7   -740.81521 
  517000       516500   -10478.429    881.68343   -11360.112     4180.367   -15540.479    92.491095   -116.06511   -568.89664   -222.20713     50.35809    -13.38577   -44.748837      46.7237      46.7237      46.7237           90           90           90     102002.7   -302.38963 
  518000       517500   -10481.398    889.50991   -11370.908    4158.2087   -15529.116    93.312114   -291.95618   -907.18723   -406.01851    70.427653    50.608235   -126.20291      46.7237      46.7237      46.7237           90           90           90     102002.7   -535.05397 
  519000       518500   -10466.311    897.07428   -11363.386     4177.773   -15541.159    94.105639    -171.9869   -743.98894   -75.428338    54.500462    242.57786      71.1093      46.7237      46.7237      46.7237           90           90           90     102002.7   -330.46806 
  520000       519500   -10464.615    893.11695   -11357.732    4178.2334   -15535.965    93.690503   -756.04705   -668.11479   -436.84291   -95.949005   -5.8762692    137.39993      46.7237      46.7237      46.7237           90           90           90     102002.7   -620.33492 
  521000       520500   -10478.113    868.35368   -11346.467    4169.8491   -15516.316    91.092766   -574.68276   -611.23589   -63.130116   -38.583167   -93.873386     114.8975      46.7237      46.7237      46.7237           90           90           90     102002.7   -416.34959 
  522000       521500   -10493.772    865.99831    -11359.77    4172.9479   -15532.718    90.845681   -672.96855   -632.56941   -413.41756    61.853066   -63.485452   -64.615738      46.7237      46.7237      46.7237           90           90           90     102002.7   -572.98517 
  523000       522500   -10505.508    846.70935   -11352.217    4174.2258   -15526.443    88.822214   -922.19983   -746.68503   -539.03262    468.58197    100.81475   -245.32942      46.7237      46.7237      46.7237           90           90           90     102002.7    -735.9725 
  524000       523500   -10490.046    876.96291   -11367.009    4155.1235   -15522.133    91.995898   -781.80277     -657.131   -385.23079   -80.237618   -26.522344    100.57741      46.7237      46.7237      46.7237           90           90           90     102002.7   -608.05485 
  525000       524500   -10458.917    882.71291    -11341.63    4177.4653   -15519.095     92.59909   -659.40109   -660.52187   -523.92293    43.393021   -79.090291    95.599313      46.7237      46.7237      46.7237           90           90           90     102002.7    -614.6153 
  526000       525500    -10468.52    875.53413   -11344.054    4167.9629   -15512.017    91.846015   -714.02949   -358.76341   -566.91269   -157.31709   -169.82232   -257.15411      46.7237      46.7237      46.7237           90           90           90     102002.7   -546.56853 
  527000       526500   -10469.866    872.56404    -11342.43    4161.8946   -15504.325    91.534444   -619.39726   -805.47117   -378.64281   -128.12896   -10.207543   -94.596044      46.7237      46.7237      46.7237           90           90           90     102002.7   -601.17041 
  528000       527500     -10476.9    869.63346   -11346.534    4172.0891   -15518.623    91.227018   -597.97805   -565.63094   -816.11889     252.2439    191.28589   -8.3372839      46.7237      46.7237      46.7237           90           90           90     102002.7    -659.9093 
  529000       528500   -10457.838    883.58189    -11341.42    4171.3346   -15512.755    92.690248   -728.74961   -398.29561   -466.15957    125.68036   -193.39201   -73.015824      46.7237      46.7237      46.7237           90           90           90     102002.7   -531.06826 
  530000       529500   -10484.615    849.24954   -11333.865    4175.1568   -15509.021    89.088687   -264.92073   -973.21348   -324.47709    184.32294   -223.00922   -99.956517      46.7237      46.7237      46.7237           90           90           90     102002.7   -520.87043 
  531000       530500   -10475.396     877.9343   -11353.331    4169.2152   -15522.546      92.0978   -151.49932   -634.73273    -293.5723   -105.97321    195.84525   -29.635639      46.7237      46.7237      46.7237           90           90           90     102002.7   -359.93479 
  532000       531500    -10477.37     854.7865   -11332.156    4177.7847   -15509.941     89.66953   -1108.4174   -911.52987   -338.07818    154.63788     84.89883     25.04238      46.7237      46.7237      46.7237           90           90           90     102002.7   -786.00849 
  533000       532500   -10474.595    877.49364   -11352.088    4166.6202   -15518.708    92.051573   -343.75933   -866.19552   -425.18473    5.5660767   -14.886789    90.636107      46.7237      46.7237      46.7237           90           90           90     102002.7   -545.04653 
  534000       533500   -10481.917    866.01001   -11347.927    4168.6779   -15516.605    90.846908   -361.38889   -153.89593   -564.88646   -304.31854    67.669749    91.252849      46.7237      46.7237      46.7237           90           90           90     102002.7   -360.05709 
  535000       534500   -10492.036    853.29175   -11345.328    4174.5819    -15519.91    89.512726   -539.92793   -981.90794   -607.55516   -25.560772    13.271124    241.51825      46.7237      46.7237      46.7237           90           90           90     102002.7   -709.79701 
  536000       535500   -10501.223    862.83447   -11364.057    4151.9058   -15515.963    90.513785   -542.04506   -284.87588   -440.71803   -87.445286   -110.65429   -106.45381      46.7237      46.7237      46.7237           90           90           90     102002.7   -422.54632 
  537000       536500   -10488.652    858.84751   -11347.499    4178.1069   -15525.606    90.095542    -578.9065   -556.94489    37.802539   -8.7077365   -192.30858    -117.2105      46.7237      46.7237      46.7237           90           90           90     102002.7   -366.01628 
  538000       537500   -10469.679    888.56584   -11358.245    4172.9562   -15531.201    93.213079   -365.41673   -640.35729   -482.79599    311.71937    22.484841   -162.72353      46.7237      46.7237      46.7237           90           90           90     102002.7   -496.19001 
  539000       538500   -10492.327    866.17398   -11358.501    4166.5316   -15525.033    90.864109   -431.79565   -708.19369   -583.09692    39.383523    289.13379   -18.650789      46.7237      46.7237      46.7237           90           90           90     102002.7   -574.36209 
  540000       539500    -10483.32    862.69045    -11346.01    4187.1912   -15533.202    90.498677   -332.16572   -1079.1252   -798.90569    86.045495   -107.13825     104.7945      46.7237      46.7237      46.7237           90           90           90     102002.7   -736.73221 
  541000       540500   -10493.024    855.51695   -11348.541    4178.2191    -15526.76    89.746156   -316.23649   -793.66766   -339.29142   -29.554841    -176.4716   -45.129987      46.7237      46.7237      46.7237           90           90           90     102002.7   -483.06519 
  542000       541500   -10508.535    852.18206   -11360.717    4185.4216   -15546.138    89.396316   -808.53778   -581.42603    48.941474   -135.55722   -97.285444   -99.293371      46.7237      46.7237      46.7237           90           90           90     102002.7   -447.00745 
  543000       542500   -10496.719    863.96382   -11360.683    4186.4761   -15547.159    90.632257   -284.10355   -235.49262   -535.89124    197.98348    21.135501    10.975499      46.7237      46.7237      46.7237           90           90           90     102002.7   -351.82914 
  544000       543500   -10448.031    880.75281   -11328.784    4184.5887   -15513.372     92.39347   -360.41759    129.08232   -192.75975    101.52174    189.47465   -176.53479      46.7237      46.7237      46.7237           90           90           90     102002.7   -141.36501 
  545000       544500   -10496.373    854.79307   -11351.166     4181.126   -15532.292    89.670219   -371.02774   -518.44921   -704.55279   -154.92066   -48.092737    -152.7572      46.7237      46.7237      46.7237           90           90           90     102002.7   -531.34325 
  546000       545500   -10495.362    879.11439   -11374.476    4167.0989   -15541.575    92.221595   -320.79526   -372.97924    -559.8017    123.44514   -14.259196   -73.463891      46.7237      46.7237      46.7237           90           90           90     102002.7   -417.85873 
  547000       546500   -10486.107    866.72002   -11352.827    4186.0693   -15538.897     90.92139   -869.28746   -725.85223   -340.09631    -93.58393    1.1696006    -64.56922      46.7237      46.7237      46.7237           90           90           90     102002.7   -645.07867 
  548000       547500   -10471.245    862.41913   -11333.664    4186.5431   -15520.207    90.470214   -500.86249   -115.89835   -474.82021    184.56043   -70.175657    92.264293      46.7237      46.7237      46.7237           90           90           90     102002.7   -363.86035 
  549000       548500   -10495.413    849.57086   -11344.984    4188.7881   -15533.772    89.122394   -271.36976   -365.61239   -751.44546    145.40521     36.35201    21.253019      46.7237      46.7237      46.7237           90           90           90     102002.7    -462.8092 
  550000       549500   -10469.435    876.48525    -11345.92    4179.1251   -15525.045     91.94579   -257.54158   -599.23012   -521.86157    71.178022    164.20003    174.60014      46.7237      46.7237      46.7237           90           90           90     102002.7   -459.54442 
  551000       550500     -10487.3    869.02281   -11356.323    4154.3757   -15510.698    91.162959   -229.04204   -347.45821    -949.9247   -37.967653    51.305262   -205.44138      46.7237      46.7237      46.7237           90           90           90     102002.7   -508.80831 
  552000       551500   -10498.001    866.65192   -11364.653    4174.4744   -15539.128    90.914246   -686.05883   -257.97388   -625.55174    257.03904    159.99253   -180.11119      46.7237      46.7237      46.7237           90           90           90     102002.7   -523.19482 
  553000       552500   -10511.861     839.2505   -11351.111    4165.3896   -15516.501     88.03976    -524.1523    -446.4615   -550.49842     250.6268    15.614757   -12.623415      46.7237      46.7237      46.7237           90           90           90     102002.7   -507.03741 
  554000       553500   -10486.682    861.25321   -11347.935    4184.3686   -15532.304    90.347906   -578.48873   -902.53763   -590.99771   -41.436835    -75.55825   -74.542671      46.7237      46.7237      46.7237           90           90           90     102002.7   -690.67469 
  555000       554500   -10457.457    874.39842   -11331.856    4200.5998   -15532.456    91.726876   -843.99608   -483.91241   -736.37605   -6.0171869   -49.222923    99.276727      46.7237      46.7237      46.7237           90           90           90     102002.7   -688.09485 
[...]
  936000       935500   -10498.129    868.35323   -11366.482    4172.4512   -15538.933    91.092718   -687.84922   -582.13628   -268.25534    34.567546    167.55275    105.72632      46.7237      46.7237      46.7237           90           90           90     102002.7   -512.74695 
  937000       936500   -10495.196    876.62237   -11371.819    4188.8006   -15560.619    91.960175   -591.86242   -638.64341   -497.22663   -73.815503    54.447618   -18.140936      46.7237      46.7237      46.7237           90           90           90     102002.7   -575.91082 
  938000       937500   -10489.018    876.98101   -11365.999     4180.888   -15546.887    91.997798   -647.40757   -228.29401   -534.67652    73.970619   -141.68437   -252.56486      46.7237      46.7237      46.7237           90           90           90     102002.7   -470.12603 
  939000       938500   -10480.518    874.79353   -11355.312    4175.8314   -15531.143    91.768325   -180.59978    -599.0869   -357.04371    47.074288   -172.99515   -224.81047      46.7237      46.7237      46.7237           90           90           90     102002.7   -378.91013 
  940000       939500   -10523.081    861.83781   -11384.919    4158.3027   -15543.221    90.409233   -656.97387    -497.0646   -1025.3446   -85.821237    76.720856    117.94457      46.7237      46.7237      46.7237           90           90           90     102002.7   -726.46103 
  941000       940500   -10491.167    852.58377   -11343.751    4181.1276   -15524.879    89.438458   -344.19735   -226.13647   -428.47282   -16.505847    67.537378    178.27776      46.7237      46.7237      46.7237           90           90           90     102002.7   -332.93555 
  942000       941500   -10506.475    859.06279   -11365.538    4172.6374   -15538.175    90.118125    -256.4765   -714.67532    -122.0183    75.325716   -20.169243   -38.615894      46.7237      46.7237      46.7237           90           90           90     102002.7   -364.39004 
  943000       942500   -10505.497    850.56798   -11356.065    4196.7589   -15552.823    89.226995   -679.92856   -715.08045   -990.71822    54.256274    54.065596   -206.99177      46.7237      46.7237      46.7237           90           90           90     102002.7   -795.24241 
  944000       943500   -10495.958    866.12672   -11362.085    4196.3573   -15558.442    90.859151   -440.91953   -792.60091   -909.48821   -113.69837    15.556857    46.279975      46.7237      46.7237      46.7237           90           90           90     102002.7   -714.33622 
  945000       944500   -10474.781    871.78684   -11346.568    4187.6589   -15534.226    91.452914   -1029.5967   -1038.0911   -1234.8643    154.31949   -119.03341    165.78806      46.7237      46.7237      46.7237           90           90           90     102002.7   -1100.8507 
  946000       945500   -10487.233    868.12626    -11355.36    4197.1966   -15552.556    91.068909   -965.89139   -608.27732   -1022.3187    97.160735     68.15424    253.96341      46.7237      46.7237      46.7237           90           90           90     102002.7   -865.49581 
  947000       946500   -10495.525    871.96973   -11367.495     4185.456   -15552.951      91.4721   -361.85257   -675.95694   -517.88863   -25.258739    128.28051    -18.16932      46.7237      46.7237      46.7237           90           90           90     102002.7   -518.56605 
  948000       947500    -10470.53    876.71447   -11347.245    4194.0734   -15541.318    91.969836   -460.49674    -610.4396   -935.52165   -28.561824    73.322035   -153.47814      46.7237      46.7237      46.7237           90           90           90     102002.7   -668.81933 
  949000       948500   -10491.184    873.05812   -11364.242    4179.9207   -15544.162    91.586274   -497.18076   -570.95055    -375.1536   -96.590113    109.54483   -223.87549      46.7237      46.7237      46.7237           90           90           90     102002.7   -481.09497 
  950000       949500   -10494.558    856.54128   -11351.099    4198.2673   -15549.366    89.853611   -400.23265   -746.67058   -693.14076    84.259972    215.14106   -178.97537      46.7237      46.7237      46.7237           90           90           90     102002.7     -613.348 
  951000       950500   -10498.905    859.07019   -11357.976    4174.0751   -15532.051    90.118901   -420.67447   -709.38807   -131.00694   -118.64348    286.32746    -125.8663      46.7237      46.7237      46.7237           90           90           90     102002.7   -420.35649 
  952000       951500   -10478.891    869.80182   -11348.693    4182.3333   -15531.027    91.244679   -789.76991   -395.48441   -538.41129   -403.09109    135.11154    41.584719      46.7237      46.7237      46.7237           90           90           90     102002.7    -574.5552 
  953000       952500   -10490.402    873.77179   -11364.174    4178.3029   -15542.477    91.661141   -787.14285    -284.5964   -669.17315    306.51126   -87.522986     77.59031      46.7237      46.7237      46.7237           90           90           90     102002.7   -580.30413 
  954000       953500   -10474.629    878.39438   -11353.023    4198.6179   -15551.641    92.146064   -796.43753   -180.44288   -633.38392    18.653994   -326.13116    164.97393      46.7237      46.7237      46.7237           90           90           90     102002.7   -536.75478 
  955000       954500   -10489.037    880.05672   -11369.094     4184.451   -15553.544    92.320448   -1046.7116   -1135.0519   -586.61977    70.859521   -29.424559    416.71137      46.7237      46.7237      46.7237           90           90           90     102002.7   -922.79441 
  956000       955500   -10514.416    857.74691   -11372.163    4179.7836   -15551.946    89.980086   -693.14063   -552.66198    -733.9798    -11.77792    63.761556   -104.66439      46.7237      46.7237      46.7237           90           90           90     102002.7   -659.92747 
  957000       956500   -10508.893    863.79442   -11372.687    4170.5637   -15543.251    90.614486   -716.93949   -872.18402   -837.74624    58.101211   -76.774211   -226.17241      46.7237      46.7237      46.7237           90           90           90     102002.7   -808.95658 
  958000       957500   -10480.182    888.13178   -11368.314    4186.8989   -15555.213    93.167544   -749.22733   -318.53886   -795.22901    164.05956    200.10647   -161.29696      46.7237      46.7237      46.7237           90           90           90     102002.7    -620.9984 
  959000       958500    -10502.79    860.35046    -11363.14    4181.9051   -15545.046    90.253205    -687.8691   -867.31391   -497.93329   -50.770224   -189.34419    242.11915      46.7237      46.7237      46.7237           90           90           90     102002.7    -684.3721 
  960000       959500   -10489.957    868.56354    -11358.52    4194.5751   -15553.095     91.11478     -913.289   -620.89346   -710.15332    18.641904   -88.766386    56.711216      46.7237      46.7237      46.7237           90           90           90     102002.7   -748.11193 
  961000       960500   -10499.478    853.98176    -11353.46    4190.9796    -15544.44    89.585111   -243.59691     -742.478   -656.99612   -46.094382   -88.069969    60.614965      46.7237      46.7237      46.7237           90           90           90     102002.7   -547.69035 
  962000       961500   -10500.085    858.74982   -11358.835    4183.0085   -15541.843    90.085293   -240.16931   -646.05603   -721.86048   -176.43321   -22.616411   -381.85738      46.7237      46.7237      46.7237           90           90           90     102002.7   -536.02861 
  963000       962500   -10491.083    865.35224   -11356.435    4191.2977   -15547.733    90.777906   -931.60982   -630.36973   -782.55498   -47.869583    15.075667    58.974248      46.7237      46.7237      46.7237           90           90           90     102002.7   -781.51151 
  964000       963500     -10492.9    865.99473   -11358.895    4191.0227   -15549.917    90.845305   -558.56674   -998.77506   -619.52459    59.427399   -44.212345   -86.672458      46.7237      46.7237      46.7237           90           90           90     102002.7   -725.62213 
  965000       964500   -10505.208    860.16838   -11365.377    4167.6455   -15533.022    90.234104    -559.5908   -485.06622   -952.19113   -126.20226   -132.98817   -116.86785      46.7237      46.7237      46.7237           90           90           90     102002.7   -665.61605 
  966000       965500   -10494.999    873.03553   -11368.035    4179.3299   -15547.365    91.583905   -438.78965   -936.45259   -747.73544   -106.72648    157.20549    39.259927      46.7237      46.7237      46.7237           90           90           90     102002.7   -707.65923 
  967000       966500   -10434.258    900.15269   -11334.411    4202.4243   -15536.835    94.428572   -447.57989   -983.35514   -374.52839   -95.381591     133.2721    76.717945      46.7237      46.7237      46.7237           90           90           90     102002.7   -601.82114 
  968000       967500   -10472.884    869.62834   -11342.512    4203.5867   -15546.099    91.226481   -587.25498      -618.85    -784.9316    121.29968   -36.837456   -93.944473      46.7237      46.7237      46.7237           90           90           90     102002.7   -663.67886 
  969000       968500   -10495.794    870.67512   -11366.469    4169.3699   -15535.839    91.336291   -802.02937   -383.60921   -254.91228     36.10396   -100.48706   -37.883272      46.7237      46.7237      46.7237           90           90           90     102002.7   -480.18362 
  970000       969500   -10499.528    874.80145   -11374.329    4176.5661   -15550.895    91.769155    -301.7664   -538.92415   -610.43468   -129.04122   -211.76253    160.13975      46.7237      46.7237      46.7237           90           90           90     102002.7   -483.70841 
  971000       970500   -10468.961    880.45354   -11349.415     4190.274   -15539.689    92.362076   -638.36791   -664.38628   -679.86765    32.841086   -230.28546  -0.55859688      46.7237      46.7237      46.7237           90           90           90     102002.7   -660.87395 
  972000       971500   -10529.846    848.02867   -11377.875    4173.2873   -15551.162    88.960615   -872.24723   -648.90487   -527.40208   -163.91235   -4.3988782    246.56178      46.7237      46.7237      46.7237           90           90           90     102002.7   -682.85139 
  973000       972500   -10450.884    875.52463   -11326.409    4185.4902   -15511.899    91.845019   -173.15445   -79.604535    -704.3354  -0.70870026    236.94258    94.552186      46.7237      46.7237      46.7237           90           90           90     102002.7   -319.03146 
  974000       973500   -10463.789    891.20371   -11354.992    4186.9442   -15541.937    93.489799   -386.04941   -860.08548   -1022.8692   -237.54003   -204.92855   -36.270672      46.7237      46.7237      46.7237           90           90           90     102002.7   -756.33471 
  975000       974500   -10494.643    860.42353   -11355.067     4169.707   -15524.774     90.26087   -688.24701   -674.91237   -400.68226    33.493327   -150.20005   -239.37007      46.7237      46.7237      46.7237           90           90           90     102002.7   -587.94721 
  976000       975500   -10469.809    865.69426   -11335.503    4192.9655   -15528.468    90.813785   -639.04227   -379.80817    -618.4583   -147.54391   -159.99964    302.90198      46.7237      46.7237      46.7237           90           90           90     102002.7   -545.76958 
  977000       976500   -10499.917    857.41362    -11357.33    4176.1228   -15533.453    89.945122   -471.61308   -716.11861   -1200.8886    164.46709   -20.385092   -348.00649      46.7237      46.7237      46.7237           90           90           90     102002.7   -796.20676 
  978000       977500   -10511.881     862.3045   -11374.185    4155.5608   -15529.746     90.45819   -374.72314   -640.53828   -630.07107    121.72229    222.93811   -48.880469      46.7237      46.7237      46.7237           90           90           90     102002.7   -548.44416 
  979000       978500   -10471.355    879.44568   -11350.801    4191.2493    -15542.05    92.256348   -805.58933   -562.11453   -981.30167    76.517223     30.21522   -491.88869      46.7237      46.7237      46.7237           90           90           90     102002.7   -783.00184 
  980000       979500   -10483.632    874.60396   -11358.236    4163.6434    -15521.88    91.748438      -721.36   -1173.4883   -627.60476    180.88265    59.808205    53.521301      46.7237      46.7237      46.7237           90           90           90     102002.7   -840.81768 
  981000       980500   -10494.936    862.59392    -11357.53    4170.4317   -15527.962    90.488551   -325.15691   -396.74343      -211.44   -76.789073   -16.645342    196.76663      46.7237      46.7237      46.7237           90           90           90     102002.7   -311.11345 
  982000       981500   -10481.878    866.01947   -11347.898    4170.3751   -15518.273    90.847901    -706.4229   -917.87272   -524.95032   -182.26527   -104.56957     22.73211      46.7237      46.7237      46.7237           90           90           90     102002.7   -716.41531 
  983000       982500   -10498.536    859.10589   -11357.642    4174.7544   -15532.396    90.122646   -662.45785   -609.28407    -470.9929   -115.19438   -97.727153    163.93755      46.7237      46.7237      46.7237           90           90           90     102002.7   -580.91161 
  984000       983500   -10482.268    871.11175    -11353.38    4172.1175   -15525.498    91.382095   -645.23984   -481.49018    -559.2837    7.1330916    59.514789    274.58953      46.7237      46.7237      46.7237           90           90           90     102002.7   -562.00458 
  985000       984500   -10498.075    864.23545   -11362.311    4181.4453   -15543.756    90.660751   -635.78975   -1130.0109   -200.76398    41.540922   -181.84345   -190.95893      46.7237      46.7237      46.7237           90           90           90     102002.7   -655.52154 
  986000       985500   -10476.667    868.66346    -11345.33    4190.5399    -15535.87    91.125262   -639.22828   -211.47482   -380.88768    164.09755    94.130362     138.2097      46.7237      46.7237      46.7237           90           90           90     102002.7   -410.53026 
  987000       986500   -10527.309    851.84817   -11379.157    4170.2544   -15549.411    89.361291   -564.15967   -252.30726   -602.18522    30.725472    17.881339    187.11422      46.7237      46.7237      46.7237           90           90           90     102002.7   -472.88405 
  988000       987500   -10476.694    874.86031   -11351.554    4181.6058    -15533.16    91.775329   -463.11863   -849.17767   -629.63848   -74.067092   -122.74441    138.75789      46.7237      46.7237      46.7237           90           90           90     102002.7   -647.31159 
  989000       988500   -10503.026    857.09914   -11360.125    4174.6447   -15534.769    89.912132   -294.66672   -442.03649     -410.282    173.86751     -87.6321    210.89433      46.7237      46.7237      46.7237           90           90           90     102002.7    -382.3284 
  990000       989500   -10519.086    860.96666   -11380.053    4151.9956   -15532.048    90.317846   -484.23653   -473.19359   -847.45624    146.76892   -33.330614    211.72794      46.7237      46.7237      46.7237           90           90           90     102002.7   -601.62879 
  991000       990500   -10486.043    885.95327   -11371.996    4177.1734   -15549.169    92.939013   -629.21436   -452.28154    -920.1821    241.92145    57.945262    109.70497      46.7237      46.7237      46.7237           90           90           90     102002.7     -667.226 
  992000       991500   -10486.711    852.83873   -11339.549    4207.4446   -15546.994    89.465204    -702.0108   -513.08368   -656.67378    10.648867    84.402963    61.943033      46.7237      46.7237      46.7237           90           90           90     102002.7   -623.92275 
  993000       992500   -10519.552    847.87434   -11367.426    4165.7648   -15533.191    88.944425   -801.22932   -808.25525   -698.26978    23.693529   -194.57418    10.615423      46.7237      46.7237      46.7237           90           90           90     102002.7   -769.25145 
  994000       993500   -10481.183    887.05281   -11368.236    4188.9458   -15557.181    93.054357   -359.02188   -810.16875   -769.57507    51.447896   -86.764197   -53.682897      46.7237      46.7237      46.7237           90           90           90     102002.7   -646.25523 
  995000       994500   -10454.865    877.84979   -11332.715    4201.2211   -15533.936    92.088935   -684.50733   -1098.7565   -842.50524   -65.229955   -15.624864   -25.605448      46.7237      46.7237      46.7237           90           90           90     102002.7   -875.25636 
  996000       995500   -10523.288    846.17315   -11369.461    4168.9246   -15538.386    88.765965    -348.5976   -886.95788   -690.17356   -49.793385    210.29799   -145.54699      46.7237      46.7237      46.7237           90           90           90     102002.7   -641.90968 
  997000       996500   -10483.252    870.45093   -11353.703    4170.5536   -15524.257    91.312773   -798.67054    -426.6387   -504.01143   -50.281438    227.27079   -29.071282      46.7237      46.7237      46.7237           90           90           90     102002.7   -576.44022 
  998000       997500   -10511.676    860.80776   -11372.484    4155.3077   -15527.792    90.301177   -571.72732   -818.56658   -543.00885    128.02974    36.638311    -61.57169      46.7237      46.7237      46.7237           90           90           90     102002.7   -644.43425 
  999000       998500   -10495.286    881.86714   -11377.153    4153.7283   -15530.881    92.510366   -671.94886   -862.38422    -527.2495   -250.59248    97.837543   -171.12886      46.7237      46.7237      46.7237           90           90           90     102002.7   -687.19419 
 1000000       999500   -10547.969    835.83988   -11383.809    4162.7307    -15546.54    87.681976   -665.48213   -882.24967   -1341.6354    -72.34759    2.5057455    47.563658      46.7237      46.7237      46.7237           90           90           90     102002.7   -963.12239 
 1000500      1000000   -10474.281    861.98066   -11336.262    4203.4517   -15539.714    90.424217   -584.15196   -415.14605   -381.20115    5.3129197   -242.63358    22.294802      46.7237      46.7237      46.7237           90           90           90     102002.7   -460.16639 
Loop time of 2431.74 on 16 procs for 500000 steps with 3199 atoms

Performance: 17.765 ns/day, 1.351 hours/ns, 205.614 timesteps/s
99.8% CPU use with 16 MPI tasks x no OpenMP threads

MPI task timing breakdown:
Section |  min time  |  avg time  |  max time  |%varavg| %total
---------------------------------------------------------------
Pair    | 941.38     | 1470.2     | 1966.3     | 826.1 | 60.46
Bond    | 119.2      | 183.93     | 241.73     | 299.2 |  7.56
Neigh   | 15.173     | 15.197     | 15.219     |   0.3 |  0.62
Comm    | 178.13     | 730.93     | 1323.8     |1314.1 | 30.06
Output  | 0.13338    | 0.14106    | 0.14181    |   0.5 |  0.01
Modify  | 23.469     | 24.523     | 25.623     |  14.5 |  1.01
Other   |            | 6.821      |            |       |  0.28

Nlocal:    199.938 ave 243 max 168 min
Histogram: 5 0 1 2 2 1 2 1 1 1
Nghost:    4037.62 ave 4086 max 4001 min
Histogram: 3 2 2 1 0 4 1 0 1 2
Neighs:    11456.1 ave 17648 max 5555 min
Histogram: 4 1 2 1 0 0 3 0 2 3

Total # of neighbors = 183297
Ave neighs/atom = 57.2982
Ave special neighs/atom = 3.60113
Neighbor list builds = 4204
Dangerous builds = 0
Total wall time: 1:13:06
