LAMMPS (30 Mar 2018)
Reading data file ...
  orthogonal box = (0 0 0) to (46.7237 46.7237 46.7237)
  2 by 2 by 4 MPI processor grid
  reading atoms ...
  3355 atoms
  scanning bonds ...
  5 = max bonds/atom
  scanning angles ...
  10 = max angles/atom
  scanning dihedrals ...
  32 = max dihedrals/atom
  scanning impropers ...
  3 = max impropers/atom
  reading bonds ...
  2064 bonds
  reading angles ...
  3696 angles
  reading dihedrals ...
  6240 dihedrals
  reading impropers ...
  1008 impropers
Finding 1-2 1-3 1-4 neighbors ...
  special bond factors lj:   0          0          0         
  special bond factors coul: 0          0          0         
  5 = max # of 1-2 neighbors
  8 = max # of 1-3 neighbors
  20 = max # of 1-4 neighbors
  19 = max # of special neighbors
Finding 1-2 1-3 1-4 neighbors ...
  special bond factors lj:   0          0          1         
  special bond factors coul: 1          1          1         
  5 = max # of 1-2 neighbors
  8 = max # of 1-3 neighbors
  19 = max # of special neighbors
WARNING: Using 'neigh_modify every 1 delay 0 check yes' setting during minimization (../min.cpp:168)
Neighbor list info ...
  update every 1 steps, delay 0 steps, check yes
  max neighbors/atom: 2000, page size: 100000
  master list distance cutoff = 16
  ghost atom cutoff = 16
  binsize = 8, bins = 6 6 6
  3 neighbor lists, perpetual/occasional/extra = 3 0 0
  (1) pair buck6d/coul/gauss/dsf, perpetual, skip from (3)
      attributes: half, newton on
      pair build: skip
      stencil: none
      bin: none
  (2) pair lj/cut, perpetual, skip from (3)
      attributes: half, newton on
      pair build: skip
      stencil: none
      bin: none
  (3) neighbor class addition, perpetual
      attributes: half, newton on
      pair build: half/bin/newton
      stencil: half/bin/3d/newton
      bin: standard
Setting up cg style minimization ...
  Unit style    : real
  Current step  : 0
WARNING: Inconsistent image flags (../domain.cpp:786)
Per MPI rank memory allocation (min/avg/max) = 23.03 | 23.48 | 23.93 Mbytes
Step Temp E_pair E_mol TotEng Press 
       0            0   -16073.305    6482.8914   -9590.4134    7043.7506 
     500            0   -16485.906    3830.1311   -12655.775   -906.55004 
Loop time of 4.68069 on 16 procs for 500 steps with 3355 atoms

99.9% CPU use with 16 MPI tasks x no OpenMP threads

Minimization stats:
  Stopping criterion = max force evaluations
  Energy initial, next-to-last, final = 
        -9590.41338271     -12655.7383953     -12655.7745097
  Force two-norm initial, final = 2574.79 9.71525
  Force max component initial, final = 152.034 1.48348
  Final line search alpha, max atom move = 0.00808736 0.0119974
  Iterations, force evaluations = 500 1000

MPI task timing breakdown:
Section |  min time  |  avg time  |  max time  |%varavg| %total
---------------------------------------------------------------
Pair    | 2.287      | 3.1725     | 3.6935     |  18.3 | 67.78
Bond    | 0.24783    | 0.35982    | 0.49303    |   9.7 |  7.69
Neigh   | 0.030234   | 0.030318   | 0.030379   |   0.0 |  0.65
Comm    | 0.50609    | 1.0706     | 2.0611     |  34.1 | 22.87
Output  | 0          | 0          | 0          |   0.0 |  0.00
Modify  | 0          | 0          | 0          |   0.0 |  0.00
Other   |            | 0.04744    |            |       |  1.01

Nlocal:    209.688 ave 242 max 175 min
Histogram: 1 0 2 0 3 5 3 1 0 1
Nghost:    4189.81 ave 4219 max 4164 min
Histogram: 1 1 2 1 3 6 0 0 0 2
Neighs:    11503.1 ave 17136 max 4727 min
Histogram: 1 0 0 3 2 4 2 2 1 1

Total # of neighbors = 184049
Ave neighs/atom = 54.8581
Ave special neighs/atom = 3.43368
Neighbor list builds = 8
Dangerous builds = 0
Neighbor list info ...
  update every 1 steps, delay 10 steps, check yes
  max neighbors/atom: 2000, page size: 100000
  master list distance cutoff = 16
  ghost atom cutoff = 16
  binsize = 8, bins = 6 6 6
  3 neighbor lists, perpetual/occasional/extra = 3 0 0
  (1) pair buck6d/coul/gauss/dsf, perpetual, skip from (3)
      attributes: half, newton on
      pair build: skip
      stencil: none
      bin: none
  (2) pair lj/cut, perpetual, skip from (3)
      attributes: half, newton on
      pair build: skip
      stencil: none
      bin: none
  (3) neighbor class addition, perpetual
      attributes: half, newton on
      pair build: half/bin/newton
      stencil: half/bin/3d/newton
      bin: standard
Setting up Verlet run ...
  Unit style    : real
  Current step  : 500
  Time step     : 1
WARNING: Inconsistent image flags (../domain.cpp:786)
Per MPI rank memory allocation (min/avg/max) = 22.67 | 22.75 | 22.99 Mbytes
Step Temp PotEng TotEng Press Volume Lx Ly Lz 
     500           91   -12655.775    -11745.99     -498.832     102002.7      46.7237      46.7237      46.7237 
    1000    77.110807   -11907.993   -11137.068    644.66276     102002.7      46.7237      46.7237      46.7237 
    2000    92.699296   -11754.232   -10827.458      793.268     102002.7      46.7237      46.7237      46.7237 
    3000    92.469624   -11799.152   -10874.674    1006.2839     102002.7      46.7237      46.7237      46.7237 
    4000    92.693918    -11781.91    -10855.19    1135.3544     102002.7      46.7237      46.7237      46.7237 
    5000    90.940624   -11786.271    -10877.08    936.83006     102002.7      46.7237      46.7237      46.7237 
    6000    92.022974   -11801.742    -10881.73    1077.5936     102002.7      46.7237      46.7237      46.7237 
    7000    89.019161   -11784.665   -10894.684    943.02673     102002.7      46.7237      46.7237      46.7237 
    8000    91.911012   -11795.775   -10876.882    1051.5237     102002.7      46.7237      46.7237      46.7237 
    9000    93.513912   -11804.101   -10869.183    757.57665     102002.7      46.7237      46.7237      46.7237 
   10000    90.207585   -11795.369   -10893.506     970.1366     102002.7      46.7237      46.7237      46.7237 
   11000     91.25586   -11773.105   -10860.762    1154.7862     102002.7      46.7237      46.7237      46.7237 
   12000    91.525347   -11780.075   -10865.038    869.52423     102002.7      46.7237      46.7237      46.7237 
   13000    91.099278   -11820.147    -10909.37    965.13282     102002.7      46.7237      46.7237      46.7237 
   14000    89.721619   -11804.768   -10907.763    975.31386     102002.7      46.7237      46.7237      46.7237 
   15000     94.47539   -11797.157   -10852.626    872.01089     102002.7      46.7237      46.7237      46.7237 
   16000    91.729601    -11794.59   -10877.511    1043.3381     102002.7      46.7237      46.7237      46.7237 
   17000    92.183875   -11787.752   -10866.131    818.98401     102002.7      46.7237      46.7237      46.7237 
   18000    89.557933   -11806.665   -10911.297    1379.9398     102002.7      46.7237      46.7237      46.7237 
   19000      91.8344   -11793.529   -10875.402    1013.1558     102002.7      46.7237      46.7237      46.7237 
   20000    89.392087   -11835.368   -10941.658    771.89638     102002.7      46.7237      46.7237      46.7237 
   21000    92.854718   -11808.254   -10879.926    1046.7688     102002.7      46.7237      46.7237      46.7237 
   22000     90.98494   -11823.112   -10913.478    747.58925     102002.7      46.7237      46.7237      46.7237 
   23000    92.187028   -11813.467   -10891.814    970.89104     102002.7      46.7237      46.7237      46.7237 
   24000    88.874451   -11797.214    -10908.68    1393.2064     102002.7      46.7237      46.7237      46.7237 
   25000    91.245917   -11788.701   -10876.458    1004.9846     102002.7      46.7237      46.7237      46.7237 
   26000    89.420284   -11826.547   -10932.556    1058.4142     102002.7      46.7237      46.7237      46.7237 
   27000    90.259633   -11815.645   -10913.262    1039.9079     102002.7      46.7237      46.7237      46.7237 
   28000    90.022193    -11810.96   -10910.951    844.43105     102002.7      46.7237      46.7237      46.7237 
   29000    92.456569   -11814.192   -10889.845    984.42729     102002.7      46.7237      46.7237      46.7237 
   30000    91.710915   -11843.675   -10926.783    1145.4481     102002.7      46.7237      46.7237      46.7237 
   31000    91.786641    -11802.88    -10885.23    924.01233     102002.7      46.7237      46.7237      46.7237 
   32000    88.848988   -11801.539   -10913.259    798.39118     102002.7      46.7237      46.7237      46.7237 
   33000    89.869868   -11817.254   -10918.768    760.77881     102002.7      46.7237      46.7237      46.7237 
   34000    92.998672   -11820.803   -10891.036    916.75998     102002.7      46.7237      46.7237      46.7237 
   35000     90.70748   -11815.518   -10908.657     878.4251     102002.7      46.7237      46.7237      46.7237 
   36000    89.302617   -11813.398   -10920.583    922.94707     102002.7      46.7237      46.7237      46.7237 
   37000     93.25323   -11815.612     -10883.3    967.06771     102002.7      46.7237      46.7237      46.7237 
   38000     89.01544   -11802.476   -10912.532    1144.6185     102002.7      46.7237      46.7237      46.7237 
   39000    89.101042   -11817.667   -10926.867    896.51552     102002.7      46.7237      46.7237      46.7237 
   40000    90.839999   -11843.032   -10934.846    846.09338     102002.7      46.7237      46.7237      46.7237 
   41000    90.283781   -11823.668   -10921.043    1038.0961     102002.7      46.7237      46.7237      46.7237 
   42000    90.928853   -11805.121   -10896.048    1003.7928     102002.7      46.7237      46.7237      46.7237 
   43000    91.144831   -11830.864   -10919.631      943.065     102002.7      46.7237      46.7237      46.7237 
   44000    90.507541   -11850.446   -10945.584    998.23223     102002.7      46.7237      46.7237      46.7237 
   45000    89.736145   -11822.133   -10924.984    1031.1948     102002.7      46.7237      46.7237      46.7237 
   46000    89.283961   -11825.308    -10932.68    1063.0661     102002.7      46.7237      46.7237      46.7237 
   47000    91.761024   -11812.893   -10895.499     872.6698     102002.7      46.7237      46.7237      46.7237 
   48000    90.757076   -11809.248   -10901.892    1268.9622     102002.7      46.7237      46.7237      46.7237 
   49000     91.03993   -11827.941   -10917.757    1070.9265     102002.7      46.7237      46.7237      46.7237 
   50000    91.823622   -11847.904   -10929.885    1138.3306     102002.7      46.7237      46.7237      46.7237 
   51000    91.450215   -11828.628   -10914.342    1071.4441     102002.7      46.7237      46.7237      46.7237 
   52000    90.153326   -11817.733   -10916.412    933.16298     102002.7      46.7237      46.7237      46.7237 
   53000    91.437611   -11809.285   -10895.125    1042.3736     102002.7      46.7237      46.7237      46.7237 
   54000    88.122772   -11848.726   -10967.707    978.70884     102002.7      46.7237      46.7237      46.7237 
   55000    93.317645   -11817.645   -10884.689    1004.7023     102002.7      46.7237      46.7237      46.7237 
   56000     90.52218   -11825.577   -10920.569    1126.4621     102002.7      46.7237      46.7237      46.7237 
   57000    90.344268   -11800.309    -10897.08    992.98977     102002.7      46.7237      46.7237      46.7237 
   58000    91.860254   -11828.689   -10910.303    798.00842     102002.7      46.7237      46.7237      46.7237 
   59000    91.050209   -11814.269   -10903.982    954.07719     102002.7      46.7237      46.7237      46.7237 
   60000    89.872759    -11820.32   -10921.804    969.80233     102002.7      46.7237      46.7237      46.7237 
   61000     90.51186    -11804.63   -10899.725    906.12632     102002.7      46.7237      46.7237      46.7237 
   62000    91.899184   -11824.986   -10906.212    978.75576     102002.7      46.7237      46.7237      46.7237 
   63000    92.634715   -11821.943   -10895.815    792.21491     102002.7      46.7237      46.7237      46.7237 
   64000     89.28699   -11821.029    -10928.37    977.68613     102002.7      46.7237      46.7237      46.7237 
   65000    91.749472   -11813.013   -10895.735    994.91982     102002.7      46.7237      46.7237      46.7237 
   66000    91.480806   -11818.643   -10904.051    1163.0238     102002.7      46.7237      46.7237      46.7237 
   67000    91.424596   -11825.173   -10911.143    800.56341     102002.7      46.7237      46.7237      46.7237 
   68000    88.727492   -11811.775    -10924.71    1063.5277     102002.7      46.7237      46.7237      46.7237 
   69000    91.719777   -11823.568   -10906.587     1138.004     102002.7      46.7237      46.7237      46.7237 
   70000    90.215858    -11826.92   -10924.974    967.53332     102002.7      46.7237      46.7237      46.7237 
   71000    89.299013   -11836.503   -10943.724    1040.0191     102002.7      46.7237      46.7237      46.7237 
   72000    88.953767   -11837.821   -10948.494     973.2466     102002.7      46.7237      46.7237      46.7237 
   73000    89.496607   -11816.119   -10921.364    770.67816     102002.7      46.7237      46.7237      46.7237 
   74000    91.321593   -11833.838   -10920.838    913.40401     102002.7      46.7237      46.7237      46.7237 
   75000    93.181266   -11829.905   -10898.313    969.56835     102002.7      46.7237      46.7237      46.7237 
   76000    93.858652    -11827.75   -10889.386    1323.1184     102002.7      46.7237      46.7237      46.7237 
   77000    90.502276     -11848.6   -10943.791    800.16884     102002.7      46.7237      46.7237      46.7237 
   78000    89.905416   -11828.208   -10929.366    1040.0283     102002.7      46.7237      46.7237      46.7237 
   79000    88.102718   -11833.586   -10952.767    946.60829     102002.7      46.7237      46.7237      46.7237 
   80000     90.01205   -11812.363   -10912.456     1344.183     102002.7      46.7237      46.7237      46.7237 
   81000    90.048618   -11838.771   -10938.497    1060.1845     102002.7      46.7237      46.7237      46.7237 
   82000    90.458286    -11833.62    -10929.25    1019.4636     102002.7      46.7237      46.7237      46.7237 
   83000    91.278807    -11810.31   -10897.738    1216.7814     102002.7      46.7237      46.7237      46.7237 
   84000    89.873924   -11830.033   -10931.506     880.7188     102002.7      46.7237      46.7237      46.7237 
   85000    91.424951   -11838.695   -10924.661    1244.7579     102002.7      46.7237      46.7237      46.7237 
   86000    91.904983   -11792.722   -10873.889    1113.7287     102002.7      46.7237      46.7237      46.7237 
   87000    90.037674   -11825.641   -10925.477    808.66558     102002.7      46.7237      46.7237      46.7237 
   88000    91.588822   -11839.034   -10923.363    1047.3708     102002.7      46.7237      46.7237      46.7237 
   89000    90.544678   -11820.803    -10915.57    1393.3263     102002.7      46.7237      46.7237      46.7237 
   90000    90.673074   -11846.559   -10940.043    1232.8337     102002.7      46.7237      46.7237      46.7237 
   91000    91.865184   -11826.915    -10908.48    1097.4343     102002.7      46.7237      46.7237      46.7237 
   92000     90.40973   -11844.041   -10940.157    1087.0419     102002.7      46.7237      46.7237      46.7237 
   93000     89.22412   -11823.067   -10931.037     1124.384     102002.7      46.7237      46.7237      46.7237 
   94000      94.2505   -11816.626   -10874.343    1112.8881     102002.7      46.7237      46.7237      46.7237 
   95000     92.64321   -11834.759   -10908.546     970.0727     102002.7      46.7237      46.7237      46.7237 
   96000     92.05938    -11814.24   -10893.864    814.81655     102002.7      46.7237      46.7237      46.7237 
   97000    91.425264   -11832.274   -10918.237    892.08067     102002.7      46.7237      46.7237      46.7237 
   98000    90.538729   -11847.661   -10942.488    830.01363     102002.7      46.7237      46.7237      46.7237 
   99000    93.154212   -11829.944   -10898.622    771.51671     102002.7      46.7237      46.7237      46.7237 
  100000    92.676481   -11838.535   -10911.989    784.80905     102002.7      46.7237      46.7237      46.7237 
  101000    91.857636    -11836.36   -10918.001    855.53348     102002.7      46.7237      46.7237      46.7237 
  102000    88.615251   -11832.804   -10946.861    925.23795     102002.7      46.7237      46.7237      46.7237 
  103000     90.71337   -11838.107   -10931.187    926.73152     102002.7      46.7237      46.7237      46.7237 
  104000    92.904713   -11848.791   -10919.963     914.5176     102002.7      46.7237      46.7237      46.7237 
  105000     90.58735   -11843.014   -10937.354    870.01269     102002.7      46.7237      46.7237      46.7237 
  106000    93.145159   -11831.867   -10900.635    776.04926     102002.7      46.7237      46.7237      46.7237 
  107000    88.325896   -11827.136   -10944.086     836.0743     102002.7      46.7237      46.7237      46.7237 
  108000    90.560908    -11816.57   -10911.175    749.76658     102002.7      46.7237      46.7237      46.7237 
  109000    89.910129   -11832.467   -10933.578     1122.283     102002.7      46.7237      46.7237      46.7237 
  110000    93.375663   -11843.629   -10910.093    1231.2211     102002.7      46.7237      46.7237      46.7237 
  111000    90.442975   -11820.419   -10916.203    956.33842     102002.7      46.7237      46.7237      46.7237 
  112000    89.569609   -11835.762   -10940.278    724.00953     102002.7      46.7237      46.7237      46.7237 
  113000     90.93134   -11846.107   -10937.008    804.24983     102002.7      46.7237      46.7237      46.7237 
  114000    91.667236   -11832.484   -10916.029    813.26531     102002.7      46.7237      46.7237      46.7237 
  115000    88.742211   -11853.269   -10966.057    654.70065     102002.7      46.7237      46.7237      46.7237 
  116000     91.84508   -11838.193   -10919.959    1140.3241     102002.7      46.7237      46.7237      46.7237 
  117000    91.749181   -11860.497   -10943.222    949.51121     102002.7      46.7237      46.7237      46.7237 
  118000    90.650325   -11847.848   -10941.559     879.8016     102002.7      46.7237      46.7237      46.7237 
  119000    90.133878   -11844.519   -10943.393    876.40279     102002.7      46.7237      46.7237      46.7237 
  120000    91.096454   -11823.531   -10912.782    605.04402     102002.7      46.7237      46.7237      46.7237 
  121000    90.380584   -11852.439   -10948.846    693.65528     102002.7      46.7237      46.7237      46.7237 
  122000    92.903807   -11829.035   -10900.217    924.17195     102002.7      46.7237      46.7237      46.7237 
  123000    91.224577   -11832.885   -10920.854    1011.3951     102002.7      46.7237      46.7237      46.7237 
  124000    93.595306   -11831.755   -10896.023    1004.2251     102002.7      46.7237      46.7237      46.7237 
  125000     90.11725   -11828.371   -10927.411     1023.776     102002.7      46.7237      46.7237      46.7237 
  126000    92.092399   -11828.671   -10907.964    1344.0969     102002.7      46.7237      46.7237      46.7237 
  127000       90.354   -11829.718   -10926.392    1049.0529     102002.7      46.7237      46.7237      46.7237 
  128000    92.007175   -11827.278   -10907.423    988.03329     102002.7      46.7237      46.7237      46.7237 
  129000    90.035999   -11839.199   -10939.051    910.81285     102002.7      46.7237      46.7237      46.7237 
  130000    92.196757   -11837.943   -10916.193    905.90515     102002.7      46.7237      46.7237      46.7237 
  131000    90.124037   -11841.174   -10940.147    798.10564     102002.7      46.7237      46.7237      46.7237 
  132000    89.216292   -11825.273   -10933.321    911.66597     102002.7      46.7237      46.7237      46.7237 
  133000    90.100641   -11839.724   -10938.931    784.12039     102002.7      46.7237      46.7237      46.7237 
  134000    90.637029   -11878.772   -10972.616     1025.245     102002.7      46.7237      46.7237      46.7237 
  135000    90.958245   -11841.883   -10932.516    1079.3568     102002.7      46.7237      46.7237      46.7237 
  136000    92.020623   -11842.628   -10922.639    1184.8452     102002.7      46.7237      46.7237      46.7237 
  137000     92.32054   -11838.508   -10915.521     932.6861     102002.7      46.7237      46.7237      46.7237 
  138000    90.314419    -11856.16   -10953.229    1020.1284     102002.7      46.7237      46.7237      46.7237 
  139000     90.54978   -11843.695   -10938.411    844.90282     102002.7      46.7237      46.7237      46.7237 
  140000    88.565847   -11856.036   -10970.587     785.7328     102002.7      46.7237      46.7237      46.7237 
  141000    91.911718   -11846.298   -10927.398    917.79107     102002.7      46.7237      46.7237      46.7237 
  142000    91.505468   -11858.111   -10943.272     693.1784     102002.7      46.7237      46.7237      46.7237 
  143000     89.90719   -11822.104   -10923.245    834.78909     102002.7      46.7237      46.7237      46.7237 
  144000    92.100099   -11836.816   -10916.032    819.73306     102002.7      46.7237      46.7237      46.7237 
  145000    90.083787   -11835.724   -10935.099    940.19306     102002.7      46.7237      46.7237      46.7237 
  146000    89.323854   -11834.602   -10941.574    939.29256     102002.7      46.7237      46.7237      46.7237 
  147000      91.2797   -11834.523   -10921.942    926.80042     102002.7      46.7237      46.7237      46.7237 
  148000    93.059308   -11816.711   -10886.337     958.8465     102002.7      46.7237      46.7237      46.7237 
  149000    90.686773   -11844.088   -10937.434    790.45195     102002.7      46.7237      46.7237      46.7237 
  150000    89.898408   -11858.651   -10959.879    1058.3517     102002.7      46.7237      46.7237      46.7237 
  151000    90.661947   -11841.709   -10935.304    822.20732     102002.7      46.7237      46.7237      46.7237 
  152000    91.001976   -11831.394    -10921.59     812.9449     102002.7      46.7237      46.7237      46.7237 
  153000    89.585593   -11829.898   -10934.254    720.32428     102002.7      46.7237      46.7237      46.7237 
  154000    88.927698   -11852.293   -10963.226     572.8675     102002.7      46.7237      46.7237      46.7237 
  155000     91.90615       -11817   -10898.155    1318.4075     102002.7      46.7237      46.7237      46.7237 
  156000    89.420769   -11843.343   -10949.346    915.59367     102002.7      46.7237      46.7237      46.7237 
  157000    92.558768   -11823.746   -10898.377    1154.4012     102002.7      46.7237      46.7237      46.7237 
  158000    90.838531   -11857.594   -10949.424    1365.5701     102002.7      46.7237      46.7237      46.7237 
  159000    92.196601   -11827.267   -10905.519    1149.9257     102002.7      46.7237      46.7237      46.7237 
  160000    91.238954   -11850.681   -10938.507    954.77995     102002.7      46.7237      46.7237      46.7237 
  161000    91.328354   -11856.566   -10943.498    1008.0351     102002.7      46.7237      46.7237      46.7237 
  162000    91.122481   -11844.157   -10933.148    672.36335     102002.7      46.7237      46.7237      46.7237 
  163000    91.015606   -11853.762   -10943.821    736.88378     102002.7      46.7237      46.7237      46.7237 
  164000    92.087087   -11847.385   -10926.732    833.08694     102002.7      46.7237      46.7237      46.7237 
  165000    89.421687   -11855.474   -10961.468    888.39785     102002.7      46.7237      46.7237      46.7237 
  166000    90.430015   -11851.149   -10947.063     986.3853     102002.7      46.7237      46.7237      46.7237 
  167000    92.881433   -11837.457   -10908.862    874.91482     102002.7      46.7237      46.7237      46.7237 
  168000    90.545498   -11850.708   -10945.467    579.49559     102002.7      46.7237      46.7237      46.7237 
  169000    90.208996   -11828.103   -10926.227    405.51796     102002.7      46.7237      46.7237      46.7237 
  170000     92.94631   -11858.812   -10929.568    871.17819     102002.7      46.7237      46.7237      46.7237 
  171000    92.676716   -11852.155   -10925.606     1057.129     102002.7      46.7237      46.7237      46.7237 
  172000    89.114583   -11870.944   -10980.008    765.54212     102002.7      46.7237      46.7237      46.7237 
  173000    89.554452     -11844.8   -10949.467    663.79926     102002.7      46.7237      46.7237      46.7237 
  174000    91.920511   -11861.187   -10942.199    829.49499     102002.7      46.7237      46.7237      46.7237 
  175000    90.705768   -11859.859   -10953.016    761.22926     102002.7      46.7237      46.7237      46.7237 
  176000    89.183471   -11822.371   -10930.748    892.87208     102002.7      46.7237      46.7237      46.7237 
  177000    91.840688    -11852.64    -10934.45    695.99342     102002.7      46.7237      46.7237      46.7237 
  178000    91.484951   -11859.936   -10945.303     664.5505     102002.7      46.7237      46.7237      46.7237 
  179000    89.247821   -11864.601   -10972.333    744.49797     102002.7      46.7237      46.7237      46.7237 
  180000    92.355476   -11830.406   -10907.069    1135.4493     102002.7      46.7237      46.7237      46.7237 
  181000    88.717968    -11855.47     -10968.5    747.02955     102002.7      46.7237      46.7237      46.7237 
  182000    91.752484   -11852.078    -10934.77    674.64102     102002.7      46.7237      46.7237      46.7237 
  183000    90.374625   -11832.053    -10928.52    803.73677     102002.7      46.7237      46.7237      46.7237 
  184000    93.342167   -11848.797   -10915.596    980.64779     102002.7      46.7237      46.7237      46.7237 
  185000     92.16729   -11875.995   -10954.539     655.3222     102002.7      46.7237      46.7237      46.7237 
  186000    90.884893    -11866.93   -10958.296    779.02072     102002.7      46.7237      46.7237      46.7237 
  187000    90.703635     -11857.9   -10951.078    1048.2386     102002.7      46.7237      46.7237      46.7237 
  188000    92.201034   -11852.651   -10930.858    723.10396     102002.7      46.7237      46.7237      46.7237 
  189000    90.124015   -11857.664   -10956.637    772.03381     102002.7      46.7237      46.7237      46.7237 
  190000    91.184508   -11841.902   -10930.273    661.67813     102002.7      46.7237      46.7237      46.7237 
  191000    90.464486    -11831.64   -10927.209    947.63998     102002.7      46.7237      46.7237      46.7237 
  192000    91.153308   -11839.444   -10928.126    731.00517     102002.7      46.7237      46.7237      46.7237 
  193000    92.174821   -11836.024   -10914.493    850.12437     102002.7      46.7237      46.7237      46.7237 
  194000    89.645384   -11842.996   -10946.754    922.85489     102002.7      46.7237      46.7237      46.7237 
  195000    89.767967   -11864.347   -10966.879    991.96981     102002.7      46.7237      46.7237      46.7237 
  196000     90.18088   -11849.717   -10948.121    1017.1556     102002.7      46.7237      46.7237      46.7237 
  197000    90.173098   -11836.741   -10935.223    1079.3671     102002.7      46.7237      46.7237      46.7237 
  198000    90.267161   -11872.403   -10969.945    940.56648     102002.7      46.7237      46.7237      46.7237 
  199000    88.650878   -11862.743   -10976.443     676.8362     102002.7      46.7237      46.7237      46.7237 
  200000    91.109427   -11838.863   -10927.984    737.59324     102002.7      46.7237      46.7237      46.7237 
  201000    90.479632   -11866.235   -10961.652    719.87943     102002.7      46.7237      46.7237      46.7237 
  202000    90.136214   -11845.272   -10944.123    797.94667     102002.7      46.7237      46.7237      46.7237 
  203000    91.250758   -11866.214   -10953.922    908.59778     102002.7      46.7237      46.7237      46.7237 
  204000    90.510149   -11863.135   -10958.247     880.9465     102002.7      46.7237      46.7237      46.7237 
  205000    91.817596   -11852.686   -10934.727    1165.2816     102002.7      46.7237      46.7237      46.7237 
  206000    89.480779   -11854.633   -10960.037    1320.0947     102002.7      46.7237      46.7237      46.7237 
  207000    90.496828   -11871.339   -10966.584    1025.8819     102002.7      46.7237      46.7237      46.7237 
  208000    91.779039   -11840.426   -10922.852    870.27213     102002.7      46.7237      46.7237      46.7237 
  209000    90.110468   -11849.703   -10948.811     876.3203     102002.7      46.7237      46.7237      46.7237 
  210000    91.783385   -11849.699   -10932.082    955.45005     102002.7      46.7237      46.7237      46.7237 
  211000    89.482228   -11852.164   -10957.553    676.63185     102002.7      46.7237      46.7237      46.7237 
  212000    89.436321    -11859.41   -10965.258     967.5073     102002.7      46.7237      46.7237      46.7237 
  213000    92.029218   -11857.441   -10937.367    1063.0083     102002.7      46.7237      46.7237      46.7237 
  214000    90.809206   -11845.515   -10937.637    926.72632     102002.7      46.7237      46.7237      46.7237 
  215000    88.947698   -11862.803   -10973.536    1083.0999     102002.7      46.7237      46.7237      46.7237 
  216000    91.316257   -11855.326   -10942.379    929.10676     102002.7      46.7237      46.7237      46.7237 
  217000    91.428387   -11868.014   -10953.946    786.57145     102002.7      46.7237      46.7237      46.7237 
  218000    93.103755   -11840.502   -10909.684    990.91253     102002.7      46.7237      46.7237      46.7237 
  219000    90.057299   -11839.524   -10939.164    754.60778     102002.7      46.7237      46.7237      46.7237 
  220000    91.719415    -11861.35   -10944.373    530.32705     102002.7      46.7237      46.7237      46.7237 
  221000    92.952445   -11848.548   -10919.243    856.97612     102002.7      46.7237      46.7237      46.7237 
  222000    92.044702   -11850.122   -10929.893     978.0665     102002.7      46.7237      46.7237      46.7237 
  223000    89.572611     -11895.4   -10999.885    928.92978     102002.7      46.7237      46.7237      46.7237 
  224000    88.534194   -11831.841   -10946.708    1047.8206     102002.7      46.7237      46.7237      46.7237 
  225000    90.874644   -11861.217   -10952.686    865.76276     102002.7      46.7237      46.7237      46.7237 
  226000    90.857953   -11826.872   -10918.507    956.39332     102002.7      46.7237      46.7237      46.7237 
  227000    90.313015    -11871.13   -10968.213    766.41763     102002.7      46.7237      46.7237      46.7237 
  228000    91.732199   -11848.026    -10930.92    820.73337     102002.7      46.7237      46.7237      46.7237 
  229000    93.152968   -11846.234   -10914.925    789.42788     102002.7      46.7237      46.7237      46.7237 
  230000    90.426055   -11860.655   -10956.608    884.56724     102002.7      46.7237      46.7237      46.7237 
  231000    92.615078   -11847.549   -10921.617    1002.3775     102002.7      46.7237      46.7237      46.7237 
  232000    90.525912   -11862.434   -10957.389    812.95972     102002.7      46.7237      46.7237      46.7237 
  233000    92.730803   -11853.936   -10926.847     808.5359     102002.7      46.7237      46.7237      46.7237 
  234000    90.795593   -11855.069   -10947.327     966.7652     102002.7      46.7237      46.7237      46.7237 
  235000    86.939401   -11833.641   -10964.452    878.26875     102002.7      46.7237      46.7237      46.7237 
  236000    93.700371   -11859.418   -10922.636    1036.5203     102002.7      46.7237      46.7237      46.7237 
  237000    93.696905   -11850.442   -10913.694     970.7743     102002.7      46.7237      46.7237      46.7237 
  238000    89.270769    -11851.47   -10958.973    737.65255     102002.7      46.7237      46.7237      46.7237 
  239000     91.38212   -11854.732   -10941.126    846.37647     102002.7      46.7237      46.7237      46.7237 
  240000    89.909434   -11851.563   -10952.681    623.81522     102002.7      46.7237      46.7237      46.7237 
  241000    91.289662    -11854.99   -10942.309    536.74634     102002.7      46.7237      46.7237      46.7237 
  242000    91.143513   -11843.403   -10932.184    531.13863     102002.7      46.7237      46.7237      46.7237 
  243000    88.943971   -11856.707   -10967.478    894.50692     102002.7      46.7237      46.7237      46.7237 
  244000    94.401754   -11825.196   -10881.401    1220.8114     102002.7      46.7237      46.7237      46.7237 
  245000    90.108648   -11849.882   -10949.009    951.94216     102002.7      46.7237      46.7237      46.7237 
  246000    93.189585   -11856.261   -10924.585    582.47847     102002.7      46.7237      46.7237      46.7237 
  247000    90.651509    -11839.28   -10932.979    693.93852     102002.7      46.7237      46.7237      46.7237 
  248000    92.729274   -11860.167   -10933.094    477.60298     102002.7      46.7237      46.7237      46.7237 
  249000    92.144331   -11836.392   -10915.167    948.71229     102002.7      46.7237      46.7237      46.7237 
  250000    91.213585    -11839.92       -10928    929.38864     102002.7      46.7237      46.7237      46.7237 
  251000    92.224086   -11856.433   -10934.411    816.55346     102002.7      46.7237      46.7237      46.7237 
  252000    89.250414   -11857.972   -10965.679    924.91158     102002.7      46.7237      46.7237      46.7237 
  253000    90.674031   -11852.904   -10946.378    776.78289     102002.7      46.7237      46.7237      46.7237 
  254000    90.905108   -11836.902   -10928.065    795.92999     102002.7      46.7237      46.7237      46.7237 
  255000    92.656178   -11872.963    -10946.62    721.10857     102002.7      46.7237      46.7237      46.7237 
  256000    91.143268   -11871.882   -10960.664    656.53611     102002.7      46.7237      46.7237      46.7237 
  257000    89.685196   -11853.757   -10957.117    1099.5083     102002.7      46.7237      46.7237      46.7237 
  258000    89.449932   -11861.124   -10966.836    716.41225     102002.7      46.7237      46.7237      46.7237 
  259000    91.010763   -11861.203    -10951.31    746.77644     102002.7      46.7237      46.7237      46.7237 
  260000    91.663847   -11822.586   -10906.164    864.24427     102002.7      46.7237      46.7237      46.7237 
  261000    91.461625   -11873.861   -10959.461    762.51681     102002.7      46.7237      46.7237      46.7237 
  262000    88.972327   -11842.189   -10952.676    781.00207     102002.7      46.7237      46.7237      46.7237 
  263000    90.988667   -11841.514   -10931.842    941.14328     102002.7      46.7237      46.7237      46.7237 
  264000    91.663158   -11856.022   -10939.607    989.41489     102002.7      46.7237      46.7237      46.7237 
  265000    90.527919   -11857.499   -10952.434    1042.7002     102002.7      46.7237      46.7237      46.7237 
  266000    93.904074   -11853.062   -10914.243    936.05721     102002.7      46.7237      46.7237      46.7237 
  267000    90.794073   -11853.249   -10945.522     952.2662     102002.7      46.7237      46.7237      46.7237 
  268000    90.347093   -11836.929   -10933.671    980.15545     102002.7      46.7237      46.7237      46.7237 
  269000    90.854449   -11845.133   -10936.803     881.8704     102002.7      46.7237      46.7237      46.7237 
  270000    93.458086    -11854.21    -10919.85    732.42178     102002.7      46.7237      46.7237      46.7237 
  271000    90.383825   -11859.945    -10956.32    885.26625     102002.7      46.7237      46.7237      46.7237 
  272000    92.875635   -11841.402   -10912.865    945.28407     102002.7      46.7237      46.7237      46.7237 
  273000     91.31799   -11851.507   -10938.543    1083.7063     102002.7      46.7237      46.7237      46.7237 
  274000    87.424942   -11842.553   -10968.511    728.69894     102002.7      46.7237      46.7237      46.7237 
  275000    93.306825   -11880.374   -10947.526    912.07965     102002.7      46.7237      46.7237      46.7237 
  276000    90.004346   -11872.589   -10972.759    784.53534     102002.7      46.7237      46.7237      46.7237 
  277000    90.830648   -11860.175   -10952.083    871.62684     102002.7      46.7237      46.7237      46.7237 
  278000    91.774138   -11842.981   -10925.456    951.58355     102002.7      46.7237      46.7237      46.7237 
  279000     91.29857   -11856.314   -10943.544    756.66046     102002.7      46.7237      46.7237      46.7237 
  280000    91.463496   -11860.969    -10946.55    776.39166     102002.7      46.7237      46.7237      46.7237 
  281000    90.794387   -11864.788   -10957.058    636.04514     102002.7      46.7237      46.7237      46.7237 
  282000    90.258312   -11843.821   -10941.451    771.31469     102002.7      46.7237      46.7237      46.7237 
  283000    89.715051   -11849.769   -10952.831    903.34339     102002.7      46.7237      46.7237      46.7237 
  284000    89.263588   -11850.095    -10957.67    740.68947     102002.7      46.7237      46.7237      46.7237 
  285000    92.398353    -11862.28   -10938.515    917.18271     102002.7      46.7237      46.7237      46.7237 
  286000     92.75568   -11867.517   -10940.179    1063.3038     102002.7      46.7237      46.7237      46.7237 
  287000    91.534561   -11832.952   -10917.822    830.91134     102002.7      46.7237      46.7237      46.7237 
  288000    91.157353   -11877.582   -10966.224    609.90398     102002.7      46.7237      46.7237      46.7237 
  289000     90.30812   -11858.242   -10955.374    890.70298     102002.7      46.7237      46.7237      46.7237 
  290000    89.888408   -11846.457   -10947.786    877.26373     102002.7      46.7237      46.7237      46.7237 
  291000    89.330288   -11884.739   -10991.647    706.99959     102002.7      46.7237      46.7237      46.7237 
  292000    92.595605   -11855.427    -10929.69    792.36937     102002.7      46.7237      46.7237      46.7237 
  293000    91.457541   -11862.903   -10948.543    1005.7979     102002.7      46.7237      46.7237      46.7237 
  294000    91.392244    -11868.54   -10954.833     963.6927     102002.7      46.7237      46.7237      46.7237 
  295000    93.468313   -11844.219   -10909.757    1090.5021     102002.7      46.7237      46.7237      46.7237 
  296000    89.038854   -11863.903   -10973.725      1165.92     102002.7      46.7237      46.7237      46.7237 
  297000    89.885346   -11855.117   -10956.476    905.85202     102002.7      46.7237      46.7237      46.7237 
  298000    92.686687    -11865.97   -10939.323    972.52744     102002.7      46.7237      46.7237      46.7237 
  299000    91.484712   -11847.925   -10933.294    837.56359     102002.7      46.7237      46.7237      46.7237 
  300000     90.61196   -11845.072   -10939.167    801.76411     102002.7      46.7237      46.7237      46.7237 
  301000    91.308516   -11849.006   -10936.137    859.62506     102002.7      46.7237      46.7237      46.7237 
  302000    89.429763   -11852.228   -10958.142    977.90818     102002.7      46.7237      46.7237      46.7237 
  303000    90.651529   -11850.199   -10943.898    981.54607     102002.7      46.7237      46.7237      46.7237 
  304000    90.487279   -11847.813   -10943.154    1098.1594     102002.7      46.7237      46.7237      46.7237 
  305000    89.460928   -11862.554   -10968.156    814.70637     102002.7      46.7237      46.7237      46.7237 
  306000    90.432821   -11843.314     -10939.2    999.68482     102002.7      46.7237      46.7237      46.7237 
  307000    92.359413   -11888.336    -10964.96    788.99975     102002.7      46.7237      46.7237      46.7237 
  308000    91.830651   -11862.391   -10944.302     531.6215     102002.7      46.7237      46.7237      46.7237 
  309000    91.830027   -11849.362   -10931.279    620.41365     102002.7      46.7237      46.7237      46.7237 
  310000    88.299863   -11854.369   -10971.579    785.18199     102002.7      46.7237      46.7237      46.7237 
  311000    92.842354   -11856.651   -10928.447    713.11404     102002.7      46.7237      46.7237      46.7237 
  312000    92.819101   -11845.406   -10917.434    917.30317     102002.7      46.7237      46.7237      46.7237 
  313000    90.291332   -11855.139   -10952.439    1200.3595     102002.7      46.7237      46.7237      46.7237 
  314000    91.823064    -11859.07   -10941.056    982.43511     102002.7      46.7237      46.7237      46.7237 
  315000    89.607263   -11824.564   -10928.703    1018.8692     102002.7      46.7237      46.7237      46.7237 
  316000    92.224174   -11858.761   -10936.738    587.90307     102002.7      46.7237      46.7237      46.7237 
  317000    91.643517   -11876.466   -10960.247    936.07032     102002.7      46.7237      46.7237      46.7237 
  318000    92.072512   -11843.373   -10922.866    1029.5797     102002.7      46.7237      46.7237      46.7237 
  319000    88.742146    -11856.84   -10969.628    852.00089     102002.7      46.7237      46.7237      46.7237 
  320000    92.269373   -11856.921   -10934.445     691.7047     102002.7      46.7237      46.7237      46.7237 
  321000    91.126388   -11882.962   -10971.913    676.55763     102002.7      46.7237      46.7237      46.7237 
  322000    91.495912   -11843.454   -10928.711    920.87516     102002.7      46.7237      46.7237      46.7237 
  323000    92.366149   -11844.667   -10921.223    851.36609     102002.7      46.7237      46.7237      46.7237 
  324000     89.95946   -11842.559   -10943.177    902.29165     102002.7      46.7237      46.7237      46.7237 
  325000    91.026919   -11863.502   -10953.448    722.92332     102002.7      46.7237      46.7237      46.7237 
  326000    92.050649   -11848.776   -10928.487    863.70108     102002.7      46.7237      46.7237      46.7237 
  327000    91.188507    -11876.94   -10965.271    384.10348     102002.7      46.7237      46.7237      46.7237 
  328000    89.317238   -11853.626   -10960.665    881.40958     102002.7      46.7237      46.7237      46.7237 
  329000    91.261542   -11871.185   -10958.786    815.96447     102002.7      46.7237      46.7237      46.7237 
  330000    91.570183   -11874.099   -10958.614     803.7743     102002.7      46.7237      46.7237      46.7237 
  331000    90.542081   -11858.087   -10952.881    842.70278     102002.7      46.7237      46.7237      46.7237 
  332000    90.773625   -11847.563   -10940.041    812.04703     102002.7      46.7237      46.7237      46.7237 
  333000    90.576902   -11878.591   -10973.036     807.1182     102002.7      46.7237      46.7237      46.7237 
  334000    92.258203   -11869.893   -10947.529    805.42581     102002.7      46.7237      46.7237      46.7237 
  335000    90.971778   -11845.961   -10936.458    772.06736     102002.7      46.7237      46.7237      46.7237 
  336000    88.751138   -11878.361   -10991.059    703.47734     102002.7      46.7237      46.7237      46.7237 
  337000    89.143555   -11849.632   -10958.407    707.77221     102002.7      46.7237      46.7237      46.7237 
  338000    90.671328   -11855.325   -10948.826    775.16453     102002.7      46.7237      46.7237      46.7237 
  339000    92.893262   -11865.356   -10936.642    1017.7309     102002.7      46.7237      46.7237      46.7237 
  340000       89.473   -11864.718   -10970.199    859.53063     102002.7      46.7237      46.7237      46.7237 
  341000    91.417984   -11829.012   -10915.048    790.94923     102002.7      46.7237      46.7237      46.7237 
  342000    92.838067   -11869.602   -10941.441    684.10468     102002.7      46.7237      46.7237      46.7237 
  343000    91.542355   -11833.241   -10918.033    811.16241     102002.7      46.7237      46.7237      46.7237 
  344000    90.389504   -11847.428   -10943.747    900.43515     102002.7      46.7237      46.7237      46.7237 
  345000    91.083757   -11866.227   -10955.605    749.11013     102002.7      46.7237      46.7237      46.7237 
  346000    93.278537   -11851.819   -10919.254    838.74742     102002.7      46.7237      46.7237      46.7237 
  347000    89.373685   -11874.028   -10980.502    709.96693     102002.7      46.7237      46.7237      46.7237 
  348000     89.65187    -11838.51   -10942.203    825.98106     102002.7      46.7237      46.7237      46.7237 
  349000    91.537693   -11866.355   -10951.195    776.72768     102002.7      46.7237      46.7237      46.7237 
  350000    91.059381   -11835.862   -10925.483    943.32827     102002.7      46.7237      46.7237      46.7237 
  351000    90.915641   -11859.525   -10950.584    757.33686     102002.7      46.7237      46.7237      46.7237 
  352000    90.193609   -11854.491   -10952.768    835.06315     102002.7      46.7237      46.7237      46.7237 
  353000    89.778778   -11855.164   -10957.588    1104.7967     102002.7      46.7237      46.7237      46.7237 
  354000    89.376593   -11845.285    -10951.73    927.56469     102002.7      46.7237      46.7237      46.7237 
  355000    91.878695   -11862.425   -10943.855    1070.3721     102002.7      46.7237      46.7237      46.7237 
  356000     91.30728   -11871.532   -10958.675    833.45463     102002.7      46.7237      46.7237      46.7237 
  357000    91.061693   -11873.114   -10962.712    536.50182     102002.7      46.7237      46.7237      46.7237 
  358000    91.338219   -11863.496    -10950.33    700.14909     102002.7      46.7237      46.7237      46.7237 
  359000    88.943383   -11856.887   -10967.663    671.07675     102002.7      46.7237      46.7237      46.7237 
  360000    91.335378   -11834.744   -10921.606    884.60154     102002.7      46.7237      46.7237      46.7237 
  361000    91.063776   -11863.426   -10953.003    918.84139     102002.7      46.7237      46.7237      46.7237 
  362000    92.770687   -11836.316   -10908.829    542.56872     102002.7      46.7237      46.7237      46.7237 
  363000    89.302702   -11862.001   -10969.185    876.26147     102002.7      46.7237      46.7237      46.7237 
  364000    89.849282   -11842.051    -10943.77    884.84751     102002.7      46.7237      46.7237      46.7237 
  365000    89.470576   -11863.564   -10969.069    677.02516     102002.7      46.7237      46.7237      46.7237 
  366000    90.418009   -11841.082   -10937.115    972.32698     102002.7      46.7237      46.7237      46.7237 
  367000    90.246766   -11840.338   -10938.083    592.41333     102002.7      46.7237      46.7237      46.7237 
  368000    89.019233   -11842.319   -10952.337    563.41649     102002.7      46.7237      46.7237      46.7237 
  369000    90.871709   -11862.872    -10954.37    930.80269     102002.7      46.7237      46.7237      46.7237 
  370000    88.791286   -11838.339   -10950.636    724.07856     102002.7      46.7237      46.7237      46.7237 
  371000    90.125281    -11879.26    -10978.22    886.28272     102002.7      46.7237      46.7237      46.7237 
  372000    89.594483   -11855.545   -10959.812    680.84506     102002.7      46.7237      46.7237      46.7237 
  373000    91.312955   -11883.103   -10970.189    646.85675     102002.7      46.7237      46.7237      46.7237 
  374000    92.004753   -11855.331     -10935.5    643.24676     102002.7      46.7237      46.7237      46.7237 
  375000    93.271299   -11844.541   -10912.048    612.65422     102002.7      46.7237      46.7237      46.7237 
  376000    90.114777   -11858.016   -10957.082    640.23573     102002.7      46.7237      46.7237      46.7237 
  377000    89.638824   -11841.902   -10945.726    977.82173     102002.7      46.7237      46.7237      46.7237 
  378000    90.529333     -11869.3   -10964.221    566.69493     102002.7      46.7237      46.7237      46.7237 
  379000    89.961617   -11884.053    -10984.65    895.72208     102002.7      46.7237      46.7237      46.7237 
  380000    90.275994   -11859.733   -10957.186      898.718     102002.7      46.7237      46.7237      46.7237 
  381000    89.374876   -11851.125   -10957.587    1141.4546     102002.7      46.7237      46.7237      46.7237 
  382000    91.383652   -11884.113   -10970.492    889.11343     102002.7      46.7237      46.7237      46.7237 
  383000    90.941036   -11862.142   -10952.946     952.3075     102002.7      46.7237      46.7237      46.7237 
  384000    90.926161   -11840.652   -10931.605    615.60964     102002.7      46.7237      46.7237      46.7237 
  385000    89.617142   -11866.304   -10970.344    598.20141     102002.7      46.7237      46.7237      46.7237 
  386000    92.377772   -11865.091   -10941.532    688.88424     102002.7      46.7237      46.7237      46.7237 
  387000    91.702363   -11846.082   -10929.275    403.77023     102002.7      46.7237      46.7237      46.7237 
  388000    89.579994   -11850.987   -10955.399    737.28522     102002.7      46.7237      46.7237      46.7237 
  389000     93.37099   -11874.269    -10940.78    824.14468     102002.7      46.7237      46.7237      46.7237 
  390000    88.176207   -11864.325   -10982.771    748.36477     102002.7      46.7237      46.7237      46.7237 
  391000     92.18383   -11867.763   -10946.142    689.55102     102002.7      46.7237      46.7237      46.7237 
  392000    91.474005   -11859.916   -10945.392    995.37639     102002.7      46.7237      46.7237      46.7237 
  393000    91.144369   -11849.714   -10938.486    605.56521     102002.7      46.7237      46.7237      46.7237 
  394000    90.222826   -11867.539   -10965.524    1115.2234     102002.7      46.7237      46.7237      46.7237 
  395000      91.6422   -11857.363   -10941.157    876.33094     102002.7      46.7237      46.7237      46.7237 
  396000     93.65081   -11854.998   -10918.711    804.04869     102002.7      46.7237      46.7237      46.7237 
  397000    89.457694   -11827.033   -10932.667    884.03386     102002.7      46.7237      46.7237      46.7237 
  398000    90.505671   -11846.057   -10941.214    680.50517     102002.7      46.7237      46.7237      46.7237 
  399000    92.611556   -11850.869   -10924.972    742.95475     102002.7      46.7237      46.7237      46.7237 
  400000    89.889987   -11854.173   -10955.486     1005.901     102002.7      46.7237      46.7237      46.7237 
  401000    94.349772   -11859.328   -10916.053    837.55668     102002.7      46.7237      46.7237      46.7237 
  402000    93.118869   -11880.641   -10949.673    645.80548     102002.7      46.7237      46.7237      46.7237 
  403000    90.694043   -11854.915   -10948.189    807.31947     102002.7      46.7237      46.7237      46.7237 
  404000    89.591539   -11849.545   -10953.841    527.26797     102002.7      46.7237      46.7237      46.7237 
  405000    90.912717   -11839.156   -10930.244    797.88055     102002.7      46.7237      46.7237      46.7237 
  406000    90.502501   -11859.261   -10954.449    1028.3946     102002.7      46.7237      46.7237      46.7237 
  407000    90.844425   -11862.722   -10954.493    641.80932     102002.7      46.7237      46.7237      46.7237 
  408000    89.421033   -11871.131   -10977.132    732.48022     102002.7      46.7237      46.7237      46.7237 
  409000    91.033869   -11862.893    -10952.77    591.68839     102002.7      46.7237      46.7237      46.7237 
  410000     90.76213   -11852.029   -10944.622    727.37706     102002.7      46.7237      46.7237      46.7237 
  411000    90.896875   -11857.134    -10948.38    902.74517     102002.7      46.7237      46.7237      46.7237 
  412000    89.446846   -11852.886   -10958.629    880.99466     102002.7      46.7237      46.7237      46.7237 
  413000    91.481651   -11833.201   -10918.601    708.29884     102002.7      46.7237      46.7237      46.7237 
  414000     91.31422   -11858.183   -10945.256    1063.9725     102002.7      46.7237      46.7237      46.7237 
  415000    92.069556    -11865.05   -10944.572    654.39353     102002.7      46.7237      46.7237      46.7237 
  416000    91.601318   -11882.301   -10966.505    771.62101     102002.7      46.7237      46.7237      46.7237 
  417000     91.89762   -11873.491   -10954.732     1053.581     102002.7      46.7237      46.7237      46.7237 
  418000    90.748276    -11870.14   -10962.872    814.76158     102002.7      46.7237      46.7237      46.7237 
  419000    90.086622   -11838.858   -10938.204    825.27474     102002.7      46.7237      46.7237      46.7237 
  420000    89.715422   -11893.368   -10996.426    555.72973     102002.7      46.7237      46.7237      46.7237 
  421000    90.773628   -11858.755   -10951.233    571.49545     102002.7      46.7237      46.7237      46.7237 
  422000    90.770567   -11845.373   -10937.882    752.01529     102002.7      46.7237      46.7237      46.7237 
  423000    89.820257   -11859.261    -10961.27    959.69801     102002.7      46.7237      46.7237      46.7237 
  424000    90.273529   -11873.591   -10971.069    899.99609     102002.7      46.7237      46.7237      46.7237 
  425000    92.218837   -11863.932   -10941.962    786.42969     102002.7      46.7237      46.7237      46.7237 
  426000    91.825225   -11848.034   -10929.999    769.16752     102002.7      46.7237      46.7237      46.7237 
  427000    92.010792   -11862.096   -10942.205    863.17899     102002.7      46.7237      46.7237      46.7237 
  428000    89.292189   -11889.423   -10996.712    784.88351     102002.7      46.7237      46.7237      46.7237 
  429000    92.309088   -11874.652   -10951.779    757.89638     102002.7      46.7237      46.7237      46.7237 
  430000    90.143833   -11866.145   -10964.919    774.58614     102002.7      46.7237      46.7237      46.7237 
  431000    89.766101    -11841.72   -10944.271    984.71411     102002.7      46.7237      46.7237      46.7237 
  432000    91.372351   -11857.156   -10943.649    671.41713     102002.7      46.7237      46.7237      46.7237 
  433000    91.799708   -11866.174   -10948.394    618.55728     102002.7      46.7237      46.7237      46.7237 
  434000    91.901351   -11847.488   -10928.691    748.72846     102002.7      46.7237      46.7237      46.7237 
  435000    92.197912   -11870.631    -10948.87    831.27166     102002.7      46.7237      46.7237      46.7237 
  436000    89.682144   -11859.388   -10962.779     791.2295     102002.7      46.7237      46.7237      46.7237 
  437000    91.858902   -11851.181   -10932.809     582.5942     102002.7      46.7237      46.7237      46.7237 
  438000    91.489561   -11850.269    -10935.59     1025.955     102002.7      46.7237      46.7237      46.7237 
  439000    90.795656    -11857.93   -10950.188     904.5661     102002.7      46.7237      46.7237      46.7237 
  440000    91.044984   -11838.872   -10928.638    812.33606     102002.7      46.7237      46.7237      46.7237 
  441000    89.890393   -11838.243   -10939.552    659.96937     102002.7      46.7237      46.7237      46.7237 
  442000    89.014069   -11867.233   -10977.302    662.93718     102002.7      46.7237      46.7237      46.7237 
  443000    91.190135   -11848.731   -10937.045    987.17751     102002.7      46.7237      46.7237      46.7237 
  444000    91.162532   -11859.712   -10948.302    708.32808     102002.7      46.7237      46.7237      46.7237 
  445000    89.838796   -11853.876     -10955.7    991.63056     102002.7      46.7237      46.7237      46.7237 
  446000    92.050973   -11873.267   -10952.974    793.73947     102002.7      46.7237      46.7237      46.7237 
  447000      90.1095   -11867.712    -10966.83    811.29113     102002.7      46.7237      46.7237      46.7237 
  448000    91.077413   -11839.032   -10928.473    888.15877     102002.7      46.7237      46.7237      46.7237 
  449000    89.727462   -11857.271   -10960.208    561.10009     102002.7      46.7237      46.7237      46.7237 
  450000     88.83803    -11847.77   -10959.599    959.57171     102002.7      46.7237      46.7237      46.7237 
  451000    92.125183   -11870.316   -10949.282    1104.1616     102002.7      46.7237      46.7237      46.7237 
  452000    92.934025   -11851.083   -10921.962    675.57566     102002.7      46.7237      46.7237      46.7237 
  453000    91.210659   -11868.659   -10956.768     989.2308     102002.7      46.7237      46.7237      46.7237 
  454000     90.88981   -11855.687   -10947.004    930.57755     102002.7      46.7237      46.7237      46.7237 
  455000    90.062386   -11867.045   -10966.634    655.97369     102002.7      46.7237      46.7237      46.7237 
  456000    90.012572    -11850.58   -10950.667    691.22765     102002.7      46.7237      46.7237      46.7237 
  457000    90.268258     -11880.5   -10978.031    624.47415     102002.7      46.7237      46.7237      46.7237 
  458000    91.249404   -11852.593   -10940.315    705.45905     102002.7      46.7237      46.7237      46.7237 
  459000    90.824477   -11843.303   -10935.273    947.31451     102002.7      46.7237      46.7237      46.7237 
  460000    92.545017   -11852.731     -10927.5    748.58395     102002.7      46.7237      46.7237      46.7237 
  461000    91.427763    -11861.85   -10947.789    519.04555     102002.7      46.7237      46.7237      46.7237 
  462000     93.65257   -11866.288   -10929.983    752.64417     102002.7      46.7237      46.7237      46.7237 
  463000    90.766626   -11859.507   -10952.055    820.50669     102002.7      46.7237      46.7237      46.7237 
  464000     92.95781   -11878.967   -10949.609    922.49102     102002.7      46.7237      46.7237      46.7237 
  465000     90.92768   -11865.864   -10956.802    798.74239     102002.7      46.7237      46.7237      46.7237 
  466000    91.096607   -11852.166   -10941.415    1018.6731     102002.7      46.7237      46.7237      46.7237 
  467000    91.832928   -11857.712   -10939.599    785.45066     102002.7      46.7237      46.7237      46.7237 
  468000    90.774968   -11854.345    -10946.81    850.36083     102002.7      46.7237      46.7237      46.7237 
  469000    91.786789   -11859.565   -10941.914    727.42204     102002.7      46.7237      46.7237      46.7237 
  470000    92.008495    -11878.91   -10959.042    836.38003     102002.7      46.7237      46.7237      46.7237 
  471000    91.642904    -11842.71   -10926.497    623.17605     102002.7      46.7237      46.7237      46.7237 
  472000     90.61044   -11872.441    -10966.55    910.21136     102002.7      46.7237      46.7237      46.7237 
  473000    91.518657   -11874.628   -10959.658    808.64705     102002.7      46.7237      46.7237      46.7237 
  474000    94.828653   -11881.254   -10933.192    1014.9993     102002.7      46.7237      46.7237      46.7237 
  475000    92.206228   -11847.296   -10925.452     592.7751     102002.7      46.7237      46.7237      46.7237 
  476000    92.338845   -11859.326   -10936.156    985.73007     102002.7      46.7237      46.7237      46.7237 
  477000    94.331389   -11853.119   -10910.028    852.28839     102002.7      46.7237      46.7237      46.7237 
  478000    92.269263   -11879.744   -10957.269    719.96518     102002.7      46.7237      46.7237      46.7237 
  479000     93.84216   -11869.058   -10930.858    773.22863     102002.7      46.7237      46.7237      46.7237 
  480000    92.093444   -11845.206   -10924.489    769.95641     102002.7      46.7237      46.7237      46.7237 
  481000    91.656824   -11877.266   -10960.914    693.31969     102002.7      46.7237      46.7237      46.7237 
  482000    87.958921   -11859.875   -10980.493    801.18843     102002.7      46.7237      46.7237      46.7237 
  483000    90.543184   -11852.107    -10946.89    767.75989     102002.7      46.7237      46.7237      46.7237 
  484000    91.121862   -11872.654   -10961.651    568.68697     102002.7      46.7237      46.7237      46.7237 
  485000    91.608202   -11857.866       -10942    707.61236     102002.7      46.7237      46.7237      46.7237 
  486000    89.365904   -11846.771   -10953.323    527.49379     102002.7      46.7237      46.7237      46.7237 
  487000    92.244737    -11834.97   -10912.741      593.988     102002.7      46.7237      46.7237      46.7237 
  488000     90.76018   -11864.806   -10957.419    855.19972     102002.7      46.7237      46.7237      46.7237 
  489000    90.844633   -11838.425   -10930.194    898.50893     102002.7      46.7237      46.7237      46.7237 
  490000    90.799164   -11873.639   -10965.862    767.79555     102002.7      46.7237      46.7237      46.7237 
  491000    92.577765   -11868.288   -10942.729    1092.9639     102002.7      46.7237      46.7237      46.7237 
  492000    91.634429   -11870.641   -10954.513    776.76527     102002.7      46.7237      46.7237      46.7237 
  493000    92.795569   -11866.934   -10939.197    802.50562     102002.7      46.7237      46.7237      46.7237 
  494000    90.502527   -11852.499   -10947.688    887.46234     102002.7      46.7237      46.7237      46.7237 
  495000    91.844983   -11863.782   -10945.549    702.84594     102002.7      46.7237      46.7237      46.7237 
  496000    92.957022    -11849.76   -10920.409    698.69011     102002.7      46.7237      46.7237      46.7237 
  497000     90.30048   -11864.014   -10961.223     828.8254     102002.7      46.7237      46.7237      46.7237 
  498000    89.987578   -11841.323    -10941.66    651.96355     102002.7      46.7237      46.7237      46.7237 
  499000    91.861885    -11844.98   -10926.578    698.15438     102002.7      46.7237      46.7237      46.7237 
  500000    90.038206   -11871.191   -10971.022    1096.3235     102002.7      46.7237      46.7237      46.7237 
  500500    90.924658    -11829.14   -10920.108    1176.8938     102002.7      46.7237      46.7237      46.7237 
Loop time of 1982.44 on 16 procs for 500000 steps with 3355 atoms

Performance: 21.791 ns/day, 1.101 hours/ns, 252.215 timesteps/s
99.8% CPU use with 16 MPI tasks x no OpenMP threads

MPI task timing breakdown:
Section |  min time  |  avg time  |  max time  |%varavg| %total
---------------------------------------------------------------
Pair    | 985.61     | 1229.1     | 1554.3     | 512.5 | 62.00
Bond    | 116.94     | 174.77     | 225.35     | 261.2 |  8.82
Neigh   | 15.323     | 15.38      | 15.423     |   0.8 |  0.78
Comm    | 203.1      | 544.27     | 815.8      | 868.2 | 27.45
Output  | 0.021415   | 0.022371   | 0.026545   |   0.8 |  0.00
Modify  | 9.9826     | 11.551     | 13.551     |  38.6 |  0.58
Other   |            | 7.326      |            |       |  0.37

Nlocal:    209.688 ave 245 max 174 min
Histogram: 3 1 2 1 0 2 2 1 2 2
Nghost:    4221.19 ave 4259 max 4182 min
Histogram: 2 2 2 2 1 0 1 1 3 2
Neighs:    11463.6 ave 17679 max 6399 min
Histogram: 2 0 2 2 4 2 1 2 0 1

Total # of neighbors = 183418
Ave neighs/atom = 54.67
Ave special neighs/atom = 3.43368
Neighbor list builds = 4027
Dangerous builds = 0
Neighbor list info ...
  update every 1 steps, delay 10 steps, check yes
  max neighbors/atom: 2000, page size: 100000
  master list distance cutoff = 16
  ghost atom cutoff = 16
  binsize = 8, bins = 6 6 6
  3 neighbor lists, perpetual/occasional/extra = 3 0 0
  (1) pair buck6d/coul/gauss/dsf, perpetual, skip from (3)
      attributes: half, newton on
      pair build: skip
      stencil: none
      bin: none
  (2) pair lj/cut, perpetual, skip from (3)
      attributes: half, newton on
      pair build: skip
      stencil: none
      bin: none
  (3) neighbor class addition, perpetual
      attributes: half, newton on
      pair build: half/bin/newton
      stencil: half/bin/3d/newton
      bin: standard
Setting up Verlet run ...
  Unit style    : real
  Current step  : 500500
  Time step     : 1
WARNING: Inconsistent image flags (../domain.cpp:786)
Per MPI rank memory allocation (min/avg/max) = 22.68 | 23.1 | 23.45 Mbytes
Step Time TotEng KinEng PotEng E_mol E_pair Temp Pxx Pyy Pzz Pxy Pxz Pyz Cella Cellb Cellc CellAlpha CellBeta CellGamma Volume Press 
  500500       500000   -10920.108    909.03171    -11829.14    4180.4158   -16009.555    90.924658    1288.4542     1156.372    1085.8552    114.28869    125.13278    120.52111      46.7237      46.7237      46.7237           90           90           90     102002.7    1176.8938 
  501000       500500   -10937.703    917.93541   -11855.638    4154.0538   -16009.692    91.815238    770.88352    671.54005    967.89293   -155.22734    9.6574268    102.86886      46.7237      46.7237      46.7237           90           90           90     102002.7    803.43883 
  502000       501500   -10939.442    921.67376   -11861.115    4174.2076   -16035.323    92.189161    610.56499    1230.5856    765.75322    51.431419   -1.4241001    55.146852      46.7237      46.7237      46.7237           90           90           90     102002.7    868.96794 
  503000       502500   -10958.909    902.11661   -11861.026    4184.7972   -16045.823    90.232984    468.82254    286.84933    642.35506   -10.845629   -155.68816   -178.30761      46.7237      46.7237      46.7237           90           90           90     102002.7    466.00898 
  504000       503500   -10905.142    941.10826    -11846.25     4198.309   -16044.559    94.133071    791.00752     289.0782    679.35646   -189.18433    42.638309    16.545858      46.7237      46.7237      46.7237           90           90           90     102002.7    586.48073 
  505000       504500   -10942.562    910.05656   -11852.619    4173.4743   -16026.093    91.027167    731.08584    1244.3995    1289.3736   -21.470209    27.695247    152.33992      46.7237      46.7237      46.7237           90           90           90     102002.7    1088.2863 
  506000       505500   -10971.587    913.78729   -11885.374     4155.879   -16041.253    91.400328    800.58373    1084.5201    1165.5565    118.30854    295.95949    260.31426      46.7237      46.7237      46.7237           90           90           90     102002.7    1016.8868 
  507000       506500   -10927.341    917.58538   -11844.927    4193.6291   -16038.556    91.780227    608.94016    506.58831    1108.8009    30.111439    108.60734   -9.1239846      46.7237      46.7237      46.7237           90           90           90     102002.7    741.44312 
  508000       507500   -10943.684    912.72575    -11856.41    4165.5485   -16021.959    91.294149    962.85263    851.87558     939.5511   -174.91594    11.198613   -1.3549622      46.7237      46.7237      46.7237           90           90           90     102002.7     918.0931 
  509000       508500     -10926.6    940.91436   -11867.514    4156.8002   -16024.314    94.113676    980.54356    416.86532    1129.8756   -59.400437    76.268253     327.2543      46.7237      46.7237      46.7237           90           90           90     102002.7    842.42815 
  510000       509500   -10957.521    902.42276   -11859.944    4167.4087   -16027.352    90.263606    1120.8248    612.13101    1010.4323    93.257087   -101.70383   -206.30471      46.7237      46.7237      46.7237           90           90           90     102002.7     914.4627 
  511000       510500   -10953.884    891.60018   -11845.484    4168.6909   -16014.175    89.181092    621.45708     729.8935     1089.644   -140.66008    299.83473    -150.4334      46.7237      46.7237      46.7237           90           90           90     102002.7    813.66488 
  512000       511500   -10947.278     906.1151   -11853.393    4178.6157   -16032.008    90.632928    785.03239    562.43586    1002.5006    111.96801   -58.367363   -9.3748103      46.7237      46.7237      46.7237           90           90           90     102002.7    783.32294 
  513000       512500   -10927.722    933.74631   -11861.468    4160.0167   -16021.485    93.396702    780.17804    1119.1721    1000.1878   -120.61041   -142.19382    65.036722      46.7237      46.7237      46.7237           90           90           90     102002.7    966.51266 
  514000       513500   -10942.952    917.62137   -11860.574    4167.8647   -16028.438    91.783827    1181.3504    750.11262    825.07757   -39.140087    -28.26814    264.89924      46.7237      46.7237      46.7237           90           90           90     102002.7    918.84687 
  515000       514500   -10932.138    921.92823   -11854.066    4184.6874   -16038.753    92.214614    698.33116     951.9765    860.53693    149.49872   -120.33628    299.44018      46.7237      46.7237      46.7237           90           90           90     102002.7     836.9482 
  516000       515500   -10951.484    920.54064   -11872.025     4190.172   -16062.197    92.075822    904.44986    889.58871    438.60747   -139.58055    133.32577    14.392055      46.7237      46.7237      46.7237           90           90           90     102002.7    744.21535 
  517000       516500   -10927.945    919.04432   -11846.989     4186.557   -16033.546    91.926155    1071.3508    1235.6327    827.39684   -151.34631   -26.153132    98.123682      46.7237      46.7237      46.7237           90           90           90     102002.7    1044.7934 
  518000       517500   -10952.552     914.1464   -11866.698    4186.4279   -16053.126    91.436247    1282.5705    487.57919    1459.1261    6.4777514   -120.80939    81.744184      46.7237      46.7237      46.7237           90           90           90     102002.7    1076.4253 
  519000       518500   -10986.062    899.42383   -11885.486     4149.699   -16035.185    89.963642     739.1262    1108.7498    1043.9398    76.582333    244.60369     78.80823      46.7237      46.7237      46.7237           90           90           90     102002.7    963.93859 
  520000       519500   -10948.098    931.76348   -11879.862    4146.8046   -16026.666    93.198371     998.2633    564.40959    963.10177   -85.278264   -59.901457    -51.90014      46.7237      46.7237      46.7237           90           90           90     102002.7    841.92489 
  521000       520500   -10940.421    912.43596   -11852.857    4178.7023   -16031.559    91.265163    1039.4428    1008.5318    622.33848    171.40139   -182.86637   -38.306838      46.7237      46.7237      46.7237           90           90           90     102002.7    890.10435 
  522000       521500   -10964.893    886.03002   -11850.923    4186.8172    -16037.74    88.623944    1309.4205      693.352    796.28289     72.75901    66.750315    2.2124046      46.7237      46.7237      46.7237           90           90           90     102002.7    933.01847 
  523000       522500   -10923.494    916.31915   -11839.813    4182.7621   -16022.575    91.653574    507.51545    890.25675    794.23821    107.52506    -7.933403   -174.65077      46.7237      46.7237      46.7237           90           90           90     102002.7    730.67014 
  524000       523500   -10961.678      904.465   -11866.143    4163.7491   -16029.892    90.467878     769.4298    481.68924     786.1196   -24.975937   -43.556087    183.39185      46.7237      46.7237      46.7237           90           90           90     102002.7    679.07955 
  525000       524500   -10961.007    888.85485   -11849.862     4182.049   -16031.911    88.906494    591.27775    934.34722    1055.7809   -54.176168   -184.61131    148.75851      46.7237      46.7237      46.7237           90           90           90     102002.7    860.46861 
  526000       525500   -10971.337    895.70911   -11867.046    4150.9265   -16017.972    89.592082    759.48824     556.8727    674.49636   -22.112563    151.26335   -96.279085      46.7237      46.7237      46.7237           90           90           90     102002.7     663.6191 
  527000       526500   -10930.856    925.99122   -11856.847    4170.1925   -16027.039    92.621009    787.95536    904.23107    1064.4966     324.6819   -84.051527    -48.49112      46.7237      46.7237      46.7237           90           90           90     102002.7    918.89436 
  528000       527500   -10975.782    902.04773    -11877.83    4171.5458   -16049.376    90.226094    773.36747    911.86042    571.74342   -335.72843    148.38588   -114.57381      46.7237      46.7237      46.7237           90           90           90     102002.7    752.32377 
  529000       528500   -10969.355    906.08192   -11875.437     4156.097   -16031.534    90.629609    924.89075    1129.0466    724.57345    60.886831   -40.925292    -125.4645      46.7237      46.7237      46.7237           90           90           90     102002.7    926.17025 
  530000       529500   -10965.011     917.2844   -11882.295    4154.3354   -16036.631    91.750122    860.54396    796.89916    1015.2518   -247.77949   -320.50034    129.67496      46.7237      46.7237      46.7237           90           90           90     102002.7    890.89832 
  531000       530500    -10946.12     901.1319   -11847.251    4189.8507   -16037.102     90.13449    832.52606    1058.2047    894.18751   -164.11617   -74.403826    124.98645      46.7237      46.7237      46.7237           90           90           90     102002.7    928.30611 
  532000       531500   -10952.124    926.32327   -11878.447    4179.3424    -16057.79    92.654222    558.97316    512.78484    487.06661   -88.124214    90.013394    7.4701817      46.7237      46.7237      46.7237           90           90           90     102002.7     519.6082 
  533000       532500   -10951.026    925.05892   -11876.085    4165.3549    -16041.44    92.527757    882.95423     898.8264    615.84765    112.06482    181.32411    3.7402509      46.7237      46.7237      46.7237           90           90           90     102002.7    799.20943 
  534000       533500   -10971.856    894.48987   -11866.346    4168.4745   -16034.821     89.47013    880.40429     974.2637    804.72794   -1.8623064    264.40632    -41.00301      46.7237      46.7237      46.7237           90           90           90     102002.7    886.46531 
  535000       534500   -10939.911    926.57267   -11866.483    4164.3931   -16030.876    92.679168    482.68752     790.4453    473.20872     11.37108   -230.13197   -39.746347      46.7237      46.7237      46.7237           90           90           90     102002.7    582.11385 
  536000       535500   -10951.751    914.20464   -11865.955    4163.7769   -16029.732    91.442072    948.84662    302.42556    1114.0217    35.666357   -24.973024    40.853887      46.7237      46.7237      46.7237           90           90           90     102002.7     788.4313 
  537000       536500   -10928.113    922.29627   -11850.409    4171.8557   -16022.265    92.251427    604.80889    1157.2859    1389.6612   -123.90854    89.851515   -35.435563      46.7237      46.7237      46.7237           90           90           90     102002.7    1050.5853 
  538000       537500   -10951.112    903.83316   -11854.945    4169.0146   -16023.959    90.404679    750.00443    734.65715     1445.258    290.55536    230.73306    39.702593      46.7237      46.7237      46.7237           90           90           90     102002.7    976.63987 
  539000       538500   -10957.077    904.29102   -11861.368    4168.7495   -16030.118    90.450476    1041.9128    998.49635    1007.4136   -46.343245    30.352504    113.99412      46.7237      46.7237      46.7237           90           90           90     102002.7    1015.9409 
  540000       539500   -10950.736     914.7407   -11865.477    4165.6199   -16031.097    91.495691    994.42718    721.29155    402.41844    28.141113     5.335511     148.1331      46.7237      46.7237      46.7237           90           90           90     102002.7    706.04572 
  541000       540500   -10961.496     906.9294   -11868.425    4168.3603   -16036.786    90.714377    774.46119    832.42622    392.97477   -62.981202   -56.679395    14.087298      46.7237      46.7237      46.7237           90           90           90     102002.7    666.62072 
  542000       541500   -10972.799    899.33324   -11872.133    4168.6123   -16040.745    89.954581    1017.0596    846.86425    1191.4493   -181.26255   -8.5038975   0.64656075      46.7237      46.7237      46.7237           90           90           90     102002.7    1018.4577 
  543000       542500   -10939.007    909.33858   -11848.345     4176.592   -16024.937    90.955352    658.42933    1121.4172    1182.7277   -37.559732   -134.05622   -89.662205      46.7237      46.7237      46.7237           90           90           90     102002.7    987.52477 
  544000       543500   -10924.725    929.93735   -11854.662    4158.1578    -16012.82    93.015715     81.62681    914.13115    1050.9596    57.069992   -85.391881    31.266324      46.7237      46.7237      46.7237           90           90           90     102002.7     682.2392 
  545000       544500   -10972.875    908.32682   -11881.202     4163.573   -16044.775    90.854152    726.23969    582.39536    808.79107    172.32324    8.5287166    63.348394      46.7237      46.7237      46.7237           90           90           90     102002.7    705.80871 
  546000       545500   -10932.527    915.52975   -11848.057    4184.8423   -16032.899    91.574615     523.9157    1245.1274    626.96301   -45.953639    49.905098    168.33405      46.7237      46.7237      46.7237           90           90           90     102002.7    798.66871 
  547000       546500   -10979.222    886.41733   -11865.639    4175.0009    -16040.64    88.662685    514.09803    892.48051    1038.4819    310.65018   -17.903103    182.35522      46.7237      46.7237      46.7237           90           90           90     102002.7    815.02015 
  548000       547500   -10942.238    924.81769   -11867.056    4146.0575   -16013.113    92.503628    1188.8369    1130.0372    547.57434    18.079608      6.29048   -62.048402      46.7237      46.7237      46.7237           90           90           90     102002.7    955.48282 
  549000       548500   -10975.673    896.06034   -11871.733    4169.2817   -16041.015    89.627214    810.63593    1213.0201    978.59193   -77.181599   -73.618317   -3.4789824      46.7237      46.7237      46.7237           90           90           90     102002.7    1000.7493 
  550000       549500   -10951.562    908.61956   -11860.182    4184.8358   -16045.018    90.883433    302.85209    791.70286    509.12859    118.22496   -129.47401   -94.737843      46.7237      46.7237      46.7237           90           90           90     102002.7    534.56118 
  551000       550500   -10954.014    901.48236   -11855.497     4183.264   -16038.761    90.169544    1303.6202     767.2303    484.78299    123.94734   -114.98052    192.67357      46.7237      46.7237      46.7237           90           90           90     102002.7    851.87784 
  552000       551500   -10942.556    925.54505   -11868.101    4171.5371   -16039.638    92.576382    1334.3214    1121.6491    218.80991    133.56007    24.478284    111.60989      46.7237      46.7237      46.7237           90           90           90     102002.7    891.59347 
  553000       552500   -10979.724    893.55015   -11873.274    4154.4026   -16027.676    89.376135    740.15376    671.57539    827.84295   -140.78787   -21.652793   -66.307097      46.7237      46.7237      46.7237           90           90           90     102002.7    746.52403 
  554000       553500   -10952.454    910.78731   -11863.241    4165.7864   -16029.028    91.100259    467.31715    880.64924    480.90109   -34.023231    35.564935    300.08526      46.7237      46.7237      46.7237           90           90           90     102002.7    609.62249 
  555000       554500   -10954.723    911.32384   -11866.047    4179.8736    -16045.92    91.153925     842.9808    592.30659    803.18683    201.67738    6.7735057    37.050127      46.7237      46.7237      46.7237           90           90           90     102002.7    746.15807 
[...]
  936000       935500   -10919.911    929.55026   -11849.462    4176.5873   -16026.049    92.976997      1299.47    765.19272    651.15819    245.53763    94.386383    119.16135      46.7237      46.7237      46.7237           90           90           90     102002.7    905.27364 
  937000       936500   -10952.054     918.2034   -11870.257    4167.8311   -16038.088    91.842043     799.6708    988.71599    532.68425   -24.558749    -129.0114    39.228227      46.7237      46.7237      46.7237           90           90           90     102002.7    773.69035 
  938000       937500   -10963.989    896.99274   -11860.982    4173.1872   -16034.169    89.720476    540.53165    744.88727    503.99074    167.52583    6.5239665    16.091909      46.7237      46.7237      46.7237           90           90           90     102002.7    596.46988 
  939000       938500    -10952.87    892.05468   -11844.924     4175.923   -16020.847    89.226553    1148.1583    957.81033    990.04118    42.786624   -155.74479   -47.383999      46.7237      46.7237      46.7237           90           90           90     102002.7    1032.0033 
  940000       939500   -10993.878    895.76186    -11889.64    4163.2385   -16052.879    89.597358    896.91067    773.69622    545.96929    422.46658   -156.17347   -336.02275      46.7237      46.7237      46.7237           90           90           90     102002.7    738.85873 
  941000       940500   -10953.426    912.31867   -11865.744    4175.2695   -16041.014    91.253431     818.1482    586.72754    814.30828    76.412613    145.47962   -89.630752      46.7237      46.7237      46.7237           90           90           90     102002.7    739.72801 
  942000       941500   -10979.671    895.06326   -11874.734    4151.5857   -16026.319    89.527482    839.45204    1127.7188    1105.4118    221.39392   -54.764656    -120.5407      46.7237      46.7237      46.7237           90           90           90     102002.7    1024.1942 
  943000       942500   -10959.743    893.99863   -11853.742    4178.6499   -16032.392    89.420994    1383.9426    632.04502    844.64692   -163.63255   -27.377184    116.85559      46.7237      46.7237      46.7237           90           90           90     102002.7    953.54485 
  944000       943500   -10957.997    923.61882   -11881.616    4164.2481   -16045.864    92.383713    765.61292    769.17185    1193.4902    173.39003    73.390856    220.62914      46.7237      46.7237      46.7237           90           90           90     102002.7      909.425 
  945000       944500   -10927.875    946.83197   -11874.707      4175.43   -16050.137    94.705576    991.46733    1077.9002    786.59816    150.87077    96.133902   -43.230077      46.7237      46.7237      46.7237           90           90           90     102002.7    951.98856 
  946000       945500   -10961.082    914.91303   -11875.995    4165.5145   -16041.509    91.512928    789.60501    727.50338    648.28846    162.45345    95.702774   -101.45386      46.7237      46.7237      46.7237           90           90           90     102002.7    721.79895 
  947000       946500   -10952.457    911.45099   -11863.908    4163.2056   -16027.114    91.166642    812.68989    521.49043    1047.8294    44.939316    152.09674    215.16502      46.7237      46.7237      46.7237           90           90           90     102002.7    794.00324 
  948000       947500   -10927.548    917.65017   -11845.198    4171.1187   -16016.317    91.786707    983.52415    882.67892    1129.7922    35.825292    -63.90405    14.703348      46.7237      46.7237      46.7237           90           90           90     102002.7    998.66509 
  949000       948500   -10964.165    904.11429   -11868.279    4170.9204   -16039.199    90.432799    1094.8581    750.55336    1008.4105    140.13995   -129.00115   -28.589375      46.7237      46.7237      46.7237           90           90           90     102002.7      951.274 
  950000       949500   -10981.471    891.79234   -11873.263    4154.2428   -16027.506    89.200313    733.39376    1364.2534    1285.0142   -24.314105   -18.052576   -208.10268      46.7237      46.7237      46.7237           90           90           90     102002.7    1127.5538 
  951000       950500   -10954.429     920.7806   -11875.209    4166.3281   -16041.538    92.099824    914.64089    824.74958    697.33276    79.493572    -122.2462   -70.018269      46.7237      46.7237      46.7237           90           90           90     102002.7    812.24108 
  952000       951500   -10935.004    928.77378   -11863.778     4179.665   -16043.443    92.899331    329.07846    941.31225    943.28132     128.1375    56.954906    120.37117      46.7237      46.7237      46.7237           90           90           90     102002.7    737.89068 
  953000       952500   -10938.593    914.92003   -11853.513    4167.1344   -16020.647    91.513629    547.34256    969.96701    1272.3695    85.398175    93.778607    192.12942      46.7237      46.7237      46.7237           90           90           90     102002.7    929.89303 
  954000       953500   -10971.357    902.04954   -11873.407    4169.5152   -16042.922    90.226276    700.14925    605.26426    1006.1749    112.23516    230.16976   -86.069733      46.7237      46.7237      46.7237           90           90           90     102002.7    770.52948 
  955000       954500   -10944.548     917.2647   -11861.812     4178.561   -16040.373     91.74815    614.82681    427.57908    942.64985    57.150099    93.051085   -115.69194      46.7237      46.7237      46.7237           90           90           90     102002.7    661.68525 
  956000       955500   -10957.315     901.9899   -11859.305    4153.0232   -16012.328     90.22031    1046.3093    991.30122    1082.0586   -272.84267    2.8655514   -256.14928      46.7237      46.7237      46.7237           90           90           90     102002.7    1039.8897 
  957000       956500   -10943.323    918.17613   -11861.499    4160.3886   -16021.888    91.839315    662.12052    1181.3138    760.03825   -43.655964   -153.27929   -75.173795      46.7237      46.7237      46.7237           90           90           90     102002.7     867.8242 
  958000       957500   -10949.908    907.72332   -11857.632    4163.8068   -16021.438    90.793788    856.97075    1138.8563    1035.0952    40.326612   -112.58749   -157.92754      46.7237      46.7237      46.7237           90           90           90     102002.7    1010.3074 
  959000       958500   -10927.418    914.53814   -11841.956    4166.1473   -16008.103     91.47543     1061.957    936.90235    713.74722    103.90151    31.662894   -106.07018      46.7237      46.7237      46.7237           90           90           90     102002.7    904.20219 
  960000       959500   -10956.246    915.26517   -11871.511    4155.4171   -16026.928     91.54815    740.45464    894.69949    716.60249    18.898261   -94.685787    281.30652      46.7237      46.7237      46.7237           90           90           90     102002.7    783.91887 
  961000       960500   -10934.324    932.93919   -11867.263    4170.5992   -16037.862     93.31597    776.60366    714.53785    781.06804    42.425461    -207.2442    108.97862      46.7237      46.7237      46.7237           90           90           90     102002.7    757.40319 
  962000       961500   -10948.548    902.42456   -11850.973    4176.2243   -16027.197    90.263786    651.60393    589.33899    865.81512     61.36786   -33.062244    242.00075      46.7237      46.7237      46.7237           90           90           90     102002.7    702.25268 
  963000       962500   -10963.185    905.55674   -11868.742    4168.1312   -16036.873    90.577078    774.98203    786.31592    930.33721    129.26883   -104.25686    24.400778      46.7237      46.7237      46.7237           90           90           90     102002.7    830.54505 
  964000       963500   -10945.441     914.1521   -11859.593    4150.2536   -16009.846    91.436817     1386.589    1301.8844    1261.4312   -26.382518   -149.43376    15.018955      46.7237      46.7237      46.7237           90           90           90     102002.7    1316.6349 
  965000       964500   -10968.578     895.4259   -11864.004    4154.5277   -16018.532    89.563755    376.11429    1187.5319    1095.4442   -84.747907   -56.619734    205.23317      46.7237      46.7237      46.7237           90           90           90     102002.7    886.36346 
  966000       965500   -10940.014    914.20365   -11854.218    4162.6253   -16016.843    91.441974    825.66136    679.79382    1123.5314    24.662344   -2.0753086   -130.48799      46.7237      46.7237      46.7237           90           90           90     102002.7    876.32886 
  967000       966500   -10960.512    899.57906   -11860.092    4185.7201   -16045.812    89.979169    1178.7118    1031.9225    824.24472    122.17144   -263.19688   -47.916092      46.7237      46.7237      46.7237           90           90           90     102002.7    1011.6263 
  968000       967500   -10935.302     923.3763   -11858.678     4176.683   -16035.361    92.359455    919.61166    599.17505    676.74448    74.897418   -53.613669   -48.891749      46.7237      46.7237      46.7237           90           90           90     102002.7    731.84373 
  969000       968500   -11005.592    881.01254   -11886.604    4150.6612   -16037.265    88.122078    758.36832    796.92467    758.07473   -291.15067    207.03878    54.045965      46.7237      46.7237      46.7237           90           90           90     102002.7    771.12257 
  970000       969500   -10943.114     914.8387   -11857.953    4170.7312   -16028.684    91.505494    1082.2226    633.72863    900.72745   -24.931806  -0.40717284    70.937311      46.7237      46.7237      46.7237           90           90           90     102002.7    872.22624 
  971000       970500   -10934.712    909.49872   -11844.211    4181.2764   -16025.487     90.97137    1040.9903    938.16574    622.55096   -76.354115    90.162915    131.46564      46.7237      46.7237      46.7237           90           90           90     102002.7    867.23567 
  972000       971500   -10974.929     898.9093   -11873.838    4165.2629   -16039.101    89.912177    447.88456    1221.0759    953.10653    84.281172    102.76448   -118.89152      46.7237      46.7237      46.7237           90           90           90     102002.7    874.02234 
  973000       972500   -10940.798     928.9863   -11869.784     4172.556    -16042.34    92.920588    697.53829     1155.838    1389.5906   -380.86608   -67.925243    188.61222      46.7237      46.7237      46.7237           90           90           90     102002.7     1080.989 
  974000       973500   -10969.233    884.74656    -11853.98    4168.8483   -16022.828    88.495568    851.63031    1530.1573    1161.9205    21.053721   -236.21187     88.29196      46.7237      46.7237      46.7237           90           90           90     102002.7     1181.236 
  975000       974500   -10964.069    892.13768   -11856.207    4149.7761   -16005.983    89.234855    839.30885    1126.7746    1563.8163   -83.778339   -159.05893   -93.690799      46.7237      46.7237      46.7237           90           90           90     102002.7    1176.6333 
  976000       975500   -10978.423     906.2621   -11884.685    4163.3827   -16048.067    90.647631    1030.6897    297.38734    1156.7499    140.10051    24.706016   -91.469127      46.7237      46.7237      46.7237           90           90           90     102002.7    828.27564 
  977000       976500   -10929.424    928.83022   -11858.254    4167.7868   -16026.041    92.904977    1023.0023    1155.0245    1362.1123    212.91094    134.62231   -61.732915      46.7237      46.7237      46.7237           90           90           90     102002.7    1180.0464 
  978000       977500   -10950.682    903.62546   -11854.307    4180.9299   -16035.237    90.383905    1114.1875    786.75824    663.23677   -92.375349    130.85079    164.06641      46.7237      46.7237      46.7237           90           90           90     102002.7    854.72751 
  979000       978500   -10972.358    896.07772   -11868.436    4176.3042    -16044.74    89.628952    509.78246    376.46321    306.21158    176.49786    84.355246    22.551635      46.7237      46.7237      46.7237           90           90           90     102002.7    397.48575 
  980000       979500   -10925.681    909.33718   -11835.018    4183.9198   -16018.938    90.955211    1207.1591    879.75022    791.33234    81.090305   -70.789882    17.412694      46.7237      46.7237      46.7237           90           90           90     102002.7    959.41387 
  981000       980500   -10963.564    899.24132   -11862.806    4159.0736   -16021.879    89.945387    986.80324    1093.2836    579.22234     -16.1654    123.25313   -87.028894      46.7237      46.7237      46.7237           90           90           90     102002.7    886.43639 
  982000       981500   -10951.295    909.68957   -11860.985    4177.3597   -16038.345    90.990458    662.21508    730.38224    626.26938   -40.238089    120.79443    67.635293      46.7237      46.7237      46.7237           90           90           90     102002.7    672.95557 
  983000       982500   -10927.092    928.27513   -11855.367    4149.2452   -16004.612    92.849454    1199.8044    958.56573    1085.8827   -260.92702   -176.33213    155.53302      46.7237      46.7237      46.7237           90           90           90     102002.7    1081.4176 
  984000       983500    -10971.14     896.8774   -11868.017    4160.0478   -16028.065    89.708939    948.94037    1308.2744     552.7259   -97.514767   -134.76115    139.74054      46.7237      46.7237      46.7237           90           90           90     102002.7    936.64687 
  985000       984500   -10930.696     930.8988   -11861.595    4180.4261   -16042.021    93.111884    482.48117    883.31963    878.18972   -11.194834    124.79655   -67.888605      46.7237      46.7237      46.7237           90           90           90     102002.7    747.99684 
  986000       985500   -10955.012    901.11082   -11856.122     4179.394   -16035.516    90.132381    1026.5265     908.0747    1009.4463    112.51251    3.9806968    40.387887      46.7237      46.7237      46.7237           90           90           90     102002.7    981.34916 
  987000       986500   -10945.305    926.92707   -11872.232    4166.1936   -16038.426    92.714617    571.50721    800.38888    918.35265   -5.6072392    102.92637    79.974968      46.7237      46.7237      46.7237           90           90           90     102002.7    763.41625 
  988000       987500   -10954.186    898.67858   -11852.865     4175.005    -16027.87      89.8891    774.24405    780.88683    669.22923   -86.737527    37.526367    -36.91328      46.7237      46.7237      46.7237           90           90           90     102002.7    741.45337 
  989000       988500   -10949.924    910.97656     -11860.9    4177.6206   -16038.521    91.119188     260.2113    931.30052    517.51361    73.149864    44.664743     57.69722      46.7237      46.7237      46.7237           90           90           90     102002.7    569.67514 
  990000       989500   -10932.478    931.33552   -11863.814    4171.9167    -16035.73    93.155566    197.07591    579.69202    756.71098    -92.11917   -233.51807    -125.0805      46.7237      46.7237      46.7237           90           90           90     102002.7    511.15964 
  991000       990500   -10940.592    920.44387   -11861.036    4177.8294   -16038.865    92.066143    942.18107    396.50256    678.29031   -5.0067922    343.07956    46.171324      46.7237      46.7237      46.7237           90           90           90     102002.7    672.32465 
  992000       991500   -10943.174    899.58492   -11842.759    4170.3469   -16013.106    89.979755    781.56942    1033.0115    893.18328    177.19592    116.92799    65.867182      46.7237      46.7237      46.7237           90           90           90     102002.7    902.58807 
  993000       992500   -10925.869     938.1572   -11864.026    4172.4058   -16036.432    93.837895     903.0527    517.14013    1096.3768    65.452033    166.30567    4.5066302      46.7237      46.7237      46.7237           90           90           90     102002.7    838.85654 
  994000       993500   -10988.995    877.25512    -11866.25    4172.6817   -16038.931    87.746247    1083.4592    949.86001    928.25862   -115.77479    37.638184    91.400002      46.7237      46.7237      46.7237           90           90           90     102002.7    987.19262 
  995000       994500   -10936.407    904.24786   -11840.655    4188.2209   -16028.876     90.44616    859.78865    1115.3389    757.07227    109.93474    32.740754    309.20216      46.7237      46.7237      46.7237           90           90           90     102002.7    910.73326 
  996000       995500   -10967.033    904.87066   -11871.904    4167.4733   -16039.377    90.508454    573.88886    683.56794    1247.3026   -78.520213    126.10661    107.73822      46.7237      46.7237      46.7237           90           90           90     102002.7    834.91979 
  997000       996500   -10980.662    892.09856   -11872.761    4165.9865   -16038.747    89.230943    537.27262    723.63129    882.75053   -243.85704     136.1273   -61.887697      46.7237      46.7237      46.7237           90           90           90     102002.7    714.55148 
  998000       997500   -10936.622     916.4984   -11853.121    4174.6314   -16027.752    91.671503    546.21011    416.88061    570.68259    167.15099    59.454175    126.93542      46.7237      46.7237      46.7237           90           90           90     102002.7    511.25777 
  999000       998500   -10970.569    895.78617   -11866.355    4170.1159   -16036.471     89.59979    1469.1886    504.39454    1087.6553    198.88115   -96.325421    125.61393      46.7237      46.7237      46.7237           90           90           90     102002.7    1020.4128 
 1000000       999500   -10935.673    924.99706    -11860.67    4175.3683   -16036.038     92.52157    1123.2106    801.66736    931.09628   -9.7440367    132.73445    54.905063      46.7237      46.7237      46.7237           90           90           90     102002.7    951.99141 
 1000500      1000000   -10934.481    911.01959   -11845.501    4178.3532   -16023.854    91.123493     584.5464    975.67938    1245.7437    47.317838    166.91006   -159.55778      46.7237      46.7237      46.7237           90           90           90     102002.7    935.32317 
Loop time of 2386.27 on 16 procs for 500000 steps with 3355 atoms

Performance: 18.104 ns/day, 1.326 hours/ns, 209.532 timesteps/s
99.8% CPU use with 16 MPI tasks x no OpenMP threads

MPI task timing breakdown:
Section |  min time  |  avg time  |  max time  |%varavg| %total
---------------------------------------------------------------
Pair    | 1264.9     | 1564       | 1966.4     | 517.1 | 65.54
Bond    | 125.55     | 184.12     | 248.21     | 281.8 |  7.72
Neigh   | 15.302     | 15.335     | 15.36      |   0.4 |  0.64
Comm    | 165.68     | 589.21     | 908.5      | 943.4 | 24.69
Output  | 0.13774    | 0.14528    | 0.14599    |   0.5 |  0.01
Modify  | 24.264     | 26.307     | 28.68      |  29.8 |  1.10
Other   |            | 7.144      |            |       |  0.30

Nlocal:    209.688 ave 241 max 175 min
Histogram: 2 1 3 1 0 1 2 1 3 2
Nghost:    4226.38 ave 4259 max 4180 min
Histogram: 1 1 0 2 2 2 2 2 1 3
Neighs:    11465.7 ave 17464 max 6598 min
Histogram: 1 1 3 2 2 3 1 1 1 1

Total # of neighbors = 183451
Ave neighs/atom = 54.6799
Ave special neighs/atom = 3.43368
Neighbor list builds = 4030
Dangerous builds = 0
Total wall time: 1:12:53
