LAMMPS (30 Mar 2018)
Reading data file ...
  orthogonal box = (0 0 0) to (46.7237 46.7237 46.7237)
  2 by 2 by 4 MPI processor grid
  reading atoms ...
  3204 atoms
  scanning bonds ...
  5 = max bonds/atom
  scanning angles ...
  10 = max angles/atom
  scanning dihedrals ...
  32 = max dihedrals/atom
  scanning impropers ...
  3 = max impropers/atom
  reading bonds ...
  2064 bonds
  reading angles ...
  3696 angles
  reading dihedrals ...
  6240 dihedrals
  reading impropers ...
  1008 impropers
Finding 1-2 1-3 1-4 neighbors ...
  special bond factors lj:   0          0          0         
  special bond factors coul: 0          0          0         
  5 = max # of 1-2 neighbors
  8 = max # of 1-3 neighbors
  20 = max # of 1-4 neighbors
  19 = max # of special neighbors
Finding 1-2 1-3 1-4 neighbors ...
  special bond factors lj:   0          0          1         
  special bond factors coul: 1          1          1         
  5 = max # of 1-2 neighbors
  8 = max # of 1-3 neighbors
  19 = max # of special neighbors
WARNING: Using 'neigh_modify every 1 delay 0 check yes' setting during minimization (../min.cpp:168)
Neighbor list info ...
  update every 1 steps, delay 0 steps, check yes
  max neighbors/atom: 2000, page size: 100000
  master list distance cutoff = 16
  ghost atom cutoff = 16
  binsize = 8, bins = 6 6 6
  3 neighbor lists, perpetual/occasional/extra = 3 0 0
  (1) pair buck6d/coul/gauss/dsf, perpetual, skip from (3)
      attributes: half, newton on
      pair build: skip
      stencil: none
      bin: none
  (2) pair lj/cut, perpetual, skip from (3)
      attributes: half, newton on
      pair build: skip
      stencil: none
      bin: none
  (3) neighbor class addition, perpetual
      attributes: half, newton on
      pair build: half/bin/newton
      stencil: half/bin/3d/newton
      bin: standard
Setting up cg style minimization ...
  Unit style    : real
  Current step  : 0
WARNING: Inconsistent image flags (../domain.cpp:786)
Per MPI rank memory allocation (min/avg/max) = 23.02 | 23.47 | 23.91 Mbytes
Step Temp E_pair E_mol TotEng Press 
       0            0   -15404.664    6482.8914   -8921.7725    6551.0737 
     500            0   -15906.604     3748.467   -12158.137   -1881.3726 
Loop time of 4.749 on 16 procs for 500 steps with 3204 atoms

99.9% CPU use with 16 MPI tasks x no OpenMP threads

Minimization stats:
  Stopping criterion = max force evaluations
  Energy initial, next-to-last, final = 
        -8921.77252753     -12158.0404216      -12158.137259
  Force two-norm initial, final = 2575.55 14.7989
  Force max component initial, final = 152.143 3.48212
  Final line search alpha, max atom move = 0.00873562 0.0304185
  Iterations, force evaluations = 500 1000

MPI task timing breakdown:
Section |  min time  |  avg time  |  max time  |%varavg| %total
---------------------------------------------------------------
Pair    | 2.4865     | 2.9712     | 3.8958     |  22.2 | 62.57
Bond    | 0.2425     | 0.36035    | 0.47143    |   9.8 |  7.59
Neigh   | 0.036212   | 0.036397   | 0.036548   |   0.1 |  0.77
Comm    | 0.30987    | 1.3357     | 1.8717     |  36.1 | 28.13
Output  | 0          | 0          | 0          |   0.0 |  0.00
Modify  | 0          | 0          | 0          |   0.0 |  0.00
Other   |            | 0.04528    |            |       |  0.95

Nlocal:    200.25 ave 230 max 177 min
Histogram: 3 1 2 1 1 2 3 2 0 1
Nghost:    4007.12 ave 4027 max 3981 min
Histogram: 1 2 1 1 2 1 1 3 1 3
Neighs:    11474.9 ave 16505 max 7656 min
Histogram: 4 1 1 4 1 0 0 2 1 2

Total # of neighbors = 183598
Ave neighs/atom = 57.3027
Ave special neighs/atom = 3.59551
Neighbor list builds = 10
Dangerous builds = 0
Neighbor list info ...
  update every 1 steps, delay 10 steps, check yes
  max neighbors/atom: 2000, page size: 100000
  master list distance cutoff = 16
  ghost atom cutoff = 16
  binsize = 8, bins = 6 6 6
  3 neighbor lists, perpetual/occasional/extra = 3 0 0
  (1) pair buck6d/coul/gauss/dsf, perpetual, skip from (3)
      attributes: half, newton on
      pair build: skip
      stencil: none
      bin: none
  (2) pair lj/cut, perpetual, skip from (3)
      attributes: half, newton on
      pair build: skip
      stencil: none
      bin: none
  (3) neighbor class addition, perpetual
      attributes: half, newton on
      pair build: half/bin/newton
      stencil: half/bin/3d/newton
      bin: standard
Setting up Verlet run ...
  Unit style    : real
  Current step  : 500
  Time step     : 1
WARNING: Inconsistent image flags (../domain.cpp:786)
Per MPI rank memory allocation (min/avg/max) = 22.66 | 22.78 | 23.01 Mbytes
Step Temp PotEng TotEng Press Volume Lx Ly Lz 
     500          130   -12158.137   -10916.958   -1325.1409     102002.7      46.7237      46.7237      46.7237 
    1000    109.70445   -11131.238   -10083.831   -67.123062     102002.7      46.7237      46.7237      46.7237 
    2000    130.29241   -10952.566   -9708.5946     150.8623     102002.7      46.7237      46.7237      46.7237 
    3000    132.55861   -10977.392   -9711.7839    59.022244     102002.7      46.7237      46.7237      46.7237 
    4000    129.84018   -10985.644   -9745.9903    319.77546     102002.7      46.7237      46.7237      46.7237 
    5000    127.79917   -10990.396   -9770.2286    630.94194     102002.7      46.7237      46.7237      46.7237 
    6000    131.05853   -10970.631   -9719.3454    679.09441     102002.7      46.7237      46.7237      46.7237 
    7000    128.22551   -10967.187   -9742.9497   -39.115339     102002.7      46.7237      46.7237      46.7237 
    8000    132.36257   -10983.402   -9719.6657    383.24663     102002.7      46.7237      46.7237      46.7237 
    9000    128.68292    -10988.94    -9760.335    436.80698     102002.7      46.7237      46.7237      46.7237 
   10000    130.75246   -10959.645   -9711.2816    136.10925     102002.7      46.7237      46.7237      46.7237 
   11000    128.23027   -10999.381   -9775.0984    386.11392     102002.7      46.7237      46.7237      46.7237 
   12000    133.92884   -11002.286   -9723.5955    92.127526     102002.7      46.7237      46.7237      46.7237 
   13000    128.82554    -10980.27   -9750.3038    418.01797     102002.7      46.7237      46.7237      46.7237 
   14000    129.59658   -10968.065   -9730.7374    178.91257     102002.7      46.7237      46.7237      46.7237 
   15000    128.99499   -10964.325   -9732.7411     243.8249     102002.7      46.7237      46.7237      46.7237 
   16000    129.74168   -11010.825   -9772.1115     588.0781     102002.7      46.7237      46.7237      46.7237 
   17000    130.61246   -10978.941    -9731.914    389.10963     102002.7      46.7237      46.7237      46.7237 
   18000    130.32372   -11015.413   -9771.1428    133.28216     102002.7      46.7237      46.7237      46.7237 
   19000    129.50714   -10972.571   -9736.0974   -20.351664     102002.7      46.7237      46.7237      46.7237 
   20000    131.71668   -10998.484   -9740.9146    240.41394     102002.7      46.7237      46.7237      46.7237 
   21000    129.46063   -10991.983   -9755.9536    603.24135     102002.7      46.7237      46.7237      46.7237 
   22000    129.76842   -10988.474   -9749.5055    475.69274     102002.7      46.7237      46.7237      46.7237 
   23000    131.30692   -10984.272   -9730.6145     390.0552     102002.7      46.7237      46.7237      46.7237 
   24000    130.70033   -10981.156   -9733.2902    209.35184     102002.7      46.7237      46.7237      46.7237 
   25000    130.12238   -11001.682   -9759.3346    197.68209     102002.7      46.7237      46.7237      46.7237 
   26000    132.62014   -11004.105     -9737.91    85.936804     102002.7      46.7237      46.7237      46.7237 
   27000    128.23802   -11005.607   -9781.2502    313.87309     102002.7      46.7237      46.7237      46.7237 
   28000    127.78439   -10944.954   -9724.9277    239.12902     102002.7      46.7237      46.7237      46.7237 
   29000     129.7984   -10979.098    -9739.843    227.57506     102002.7      46.7237      46.7237      46.7237 
   30000    129.16227   -10981.338   -9748.1572    592.27515     102002.7      46.7237      46.7237      46.7237 
   31000    131.93359   -10987.038   -9727.3971    582.88534     102002.7      46.7237      46.7237      46.7237 
   32000    128.36256   -10981.999   -9756.4531    315.38189     102002.7      46.7237      46.7237      46.7237 
   33000    134.26133   -10987.737   -9705.8726    740.14695     102002.7      46.7237      46.7237      46.7237 
   34000    129.72973    -10962.27    -9723.671    463.18773     102002.7      46.7237      46.7237      46.7237 
   35000    129.27294   -10997.926   -9763.6877    469.60437     102002.7      46.7237      46.7237      46.7237 
   36000    134.16179   -10995.828   -9714.9138    112.30075     102002.7      46.7237      46.7237      46.7237 
   37000     130.9922   -10988.484   -9737.8315    278.94438     102002.7      46.7237      46.7237      46.7237 
   38000    128.64681   -10972.489   -9744.2296    162.76597     102002.7      46.7237      46.7237      46.7237 
   39000    128.12637    -11008.92   -9785.6292    25.082207     102002.7      46.7237      46.7237      46.7237 
   40000    131.50491   -10990.427   -9734.8792    179.16469     102002.7      46.7237      46.7237      46.7237 
   41000    129.72043   -10963.254   -9724.7437    111.83106     102002.7      46.7237      46.7237      46.7237 
   42000    129.14833   -11011.442   -9778.3935     19.82985     102002.7      46.7237      46.7237      46.7237 
   43000    128.45677   -10955.994   -9729.5481    284.24992     102002.7      46.7237      46.7237      46.7237 
   44000    128.08232   -10987.181   -9764.3105     317.9776     102002.7      46.7237      46.7237      46.7237 
   45000    128.80569   -11008.061   -9778.2839    505.71405     102002.7      46.7237      46.7237      46.7237 
   46000    128.09859    -10984.96   -9761.9341    315.66203     102002.7      46.7237      46.7237      46.7237 
   47000     127.7592   -11014.279   -9794.4935     297.6952     102002.7      46.7237      46.7237      46.7237 
   48000    130.01612   -11008.413   -9767.0794    257.92894     102002.7      46.7237      46.7237      46.7237 
   49000    130.25105   -10990.212    -9746.636    380.71789     102002.7      46.7237      46.7237      46.7237 
   50000    132.48829    -10980.99    -9716.053    79.403955     102002.7      46.7237      46.7237      46.7237 
   51000    129.05789   -11004.675     -9772.49    243.51119     102002.7      46.7237      46.7237      46.7237 
   52000    129.35879   -10979.939   -9744.8811    432.81579     102002.7      46.7237      46.7237      46.7237 
   53000    128.66116   -10972.081   -9743.6837    564.15217     102002.7      46.7237      46.7237      46.7237 
   54000    130.02628    -10964.64   -9723.2094    809.56615     102002.7      46.7237      46.7237      46.7237 
   55000    128.76705   -10979.058   -9749.6502    65.037856     102002.7      46.7237      46.7237      46.7237 
   56000    133.28869   -10990.391   -9717.8128    334.33608     102002.7      46.7237      46.7237      46.7237 
   57000    130.99793   -11009.466   -9758.7583    417.88125     102002.7      46.7237      46.7237      46.7237 
   58000    127.46825   -11001.711   -9784.7036    307.04118     102002.7      46.7237      46.7237      46.7237 
   59000    130.44879   -10996.062   -9750.5978    614.25491     102002.7      46.7237      46.7237      46.7237 
   60000    129.18827   -10947.695   -9714.2659    168.11248     102002.7      46.7237      46.7237      46.7237 
   61000     129.8116   -10961.442   -9722.0613    414.61621     102002.7      46.7237      46.7237      46.7237 
   62000    130.91859   -10982.405   -9732.4553    691.55322     102002.7      46.7237      46.7237      46.7237 
   63000    132.06944   -10999.912   -9738.9742    278.42997     102002.7      46.7237      46.7237      46.7237 
   64000    130.15969   -10973.861   -9731.1565    168.76478     102002.7      46.7237      46.7237      46.7237 
   65000    128.87511   -10979.674   -9749.2348    29.939861     102002.7      46.7237      46.7237      46.7237 
   66000    127.97584   -10999.247   -9777.3931    33.581259     102002.7      46.7237      46.7237      46.7237 
   67000    128.61201   -11003.429   -9775.5017     594.1084     102002.7      46.7237      46.7237      46.7237 
   68000    131.92634    -10990.48   -9730.9084    468.25726     102002.7      46.7237      46.7237      46.7237 
   69000    128.94741    -10963.94   -9732.8106     159.7579     102002.7      46.7237      46.7237      46.7237 
   70000    130.61835   -10965.175    -9718.092    435.21197     102002.7      46.7237      46.7237      46.7237 
   71000    131.02204   -10986.466   -9735.5286    443.29715     102002.7      46.7237      46.7237      46.7237 
   72000    129.70145    -10990.07   -9751.7409    366.55731     102002.7      46.7237      46.7237      46.7237 
   73000    131.11859    -10971.94   -9720.0808    537.12469     102002.7      46.7237      46.7237      46.7237 
   74000    130.43128   -10984.762   -9739.4645    350.28434     102002.7      46.7237      46.7237      46.7237 
   75000    129.40433   -10982.262   -9746.7699    216.18875     102002.7      46.7237      46.7237      46.7237 
   76000    128.51594   -10997.175   -9770.1649     473.4652     102002.7      46.7237      46.7237      46.7237 
   77000    133.42308   -10986.502   -9712.6404    244.07904     102002.7      46.7237      46.7237      46.7237 
   78000    130.95937   -10974.715   -9724.3756    339.91514     102002.7      46.7237      46.7237      46.7237 
   79000    127.89497    -10958.62   -9737.5381    249.27073     102002.7      46.7237      46.7237      46.7237 
   80000    131.46318   -11013.321   -9758.1716     231.9949     102002.7      46.7237      46.7237      46.7237 
   81000     133.3583   -10995.073     -9721.83    689.03471     102002.7      46.7237      46.7237      46.7237 
   82000     127.7987   -10965.308    -9745.146    261.68705     102002.7      46.7237      46.7237      46.7237 
   83000    128.94933   -11008.584   -9777.4358    254.97673     102002.7      46.7237      46.7237      46.7237 
   84000    131.85598   -10975.668   -9716.7689    235.34026     102002.7      46.7237      46.7237      46.7237 
   85000    129.84545   -10981.233   -9741.5291    259.20132     102002.7      46.7237      46.7237      46.7237 
   86000    130.16798   -11020.646   -9777.8626    321.71198     102002.7      46.7237      46.7237      46.7237 
   87000     130.2648   -10995.474   -9751.7659    282.05706     102002.7      46.7237      46.7237      46.7237 
   88000    132.38082   -10952.839   -9688.9289    341.33502     102002.7      46.7237      46.7237      46.7237 
   89000    133.41713   -10993.183   -9719.3782      375.582     102002.7      46.7237      46.7237      46.7237 
   90000    128.07683   -11004.417   -9781.5995    423.90643     102002.7      46.7237      46.7237      46.7237 
   91000    129.46711   -11013.648    -9777.556    320.43766     102002.7      46.7237      46.7237      46.7237 
   92000     132.7872   -10971.593    -9703.803    318.47043     102002.7      46.7237      46.7237      46.7237 
   93000    125.93686   -10950.881   -9748.4945    121.28356     102002.7      46.7237      46.7237      46.7237 
   94000    127.54323   -10953.273   -9735.5499    221.93907     102002.7      46.7237      46.7237      46.7237 
   95000     130.6279     -10982.4   -9735.2256    220.61402     102002.7      46.7237      46.7237      46.7237 
   96000    126.97489   -10992.121   -9779.8239    422.39418     102002.7      46.7237      46.7237      46.7237 
   97000    130.80178   -11014.311   -9765.4767    514.69413     102002.7      46.7237      46.7237      46.7237 
   98000    131.72563   -10967.352   -9709.6974    446.60048     102002.7      46.7237      46.7237      46.7237 
   99000     129.4975   -11028.103   -9791.7207    431.17108     102002.7      46.7237      46.7237      46.7237 
  100000    129.36049    -11005.68    -9770.606    215.50503     102002.7      46.7237      46.7237      46.7237 
  101000    130.44154   -11001.298   -9755.9031    267.85786     102002.7      46.7237      46.7237      46.7237 
  102000    129.38634   -11019.685   -9784.3641    351.12968     102002.7      46.7237      46.7237      46.7237 
  103000    130.54391   -10982.472   -9736.0993    440.12447     102002.7      46.7237      46.7237      46.7237 
  104000    128.25195   -10992.568   -9768.0782    405.89994     102002.7      46.7237      46.7237      46.7237 
  105000    129.83327    -10974.76   -9735.1722    172.15408     102002.7      46.7237      46.7237      46.7237 
  106000    130.77593   -10975.573   -9726.9855    340.63771     102002.7      46.7237      46.7237      46.7237 
  107000    130.95256   -10978.523   -9728.2492    319.83778     102002.7      46.7237      46.7237      46.7237 
  108000    128.12299   -10988.907   -9765.6479    155.00673     102002.7      46.7237      46.7237      46.7237 
  109000    134.26799   -11028.276   -9746.3482    216.50289     102002.7      46.7237      46.7237      46.7237 
  110000    130.78305    -10990.03   -9741.3744    43.441299     102002.7      46.7237      46.7237      46.7237 
  111000    128.88972   -10999.154   -9768.5749    246.98932     102002.7      46.7237      46.7237      46.7237 
  112000    130.45926   -10989.768   -9744.2037    206.28865     102002.7      46.7237      46.7237      46.7237 
  113000    130.30008   -10956.997   -9712.9522    427.27806     102002.7      46.7237      46.7237      46.7237 
  114000    126.97861   -10999.882   -9787.5489    167.21569     102002.7      46.7237      46.7237      46.7237 
  115000    131.59842   -10973.712   -9717.2711    81.887439     102002.7      46.7237      46.7237      46.7237 
  116000    128.64581   -10999.189   -9770.9384    468.26899     102002.7      46.7237      46.7237      46.7237 
  117000     131.4125   -10970.599   -9715.9332    342.35311     102002.7      46.7237      46.7237      46.7237 
  118000    131.47222   -10981.511   -9726.2755    199.01092     102002.7      46.7237      46.7237      46.7237 
  119000    129.58026    -10993.46   -9756.2883     663.3713     102002.7      46.7237      46.7237      46.7237 
  120000      130.754   -11000.943   -9752.5648    68.956918     102002.7      46.7237      46.7237      46.7237 
  121000    133.40882   -11004.736   -9731.0108    158.10591     102002.7      46.7237      46.7237      46.7237 
  122000    129.43452   -10969.693   -9733.9123    481.70039     102002.7      46.7237      46.7237      46.7237 
  123000    129.64984   -10972.948   -9735.1115    420.53253     102002.7      46.7237      46.7237      46.7237 
  124000    132.32365   -10968.414   -9705.0495    711.12177     102002.7      46.7237      46.7237      46.7237 
  125000    131.06325   -11000.647    -9749.316    235.28282     102002.7      46.7237      46.7237      46.7237 
  126000    131.91152    -10992.76   -9733.3297    130.47449     102002.7      46.7237      46.7237      46.7237 
  127000    132.44948   -11006.216   -9741.6504    480.44693     102002.7      46.7237      46.7237      46.7237 
  128000    129.41549   -10975.697   -9740.0981    712.34244     102002.7      46.7237      46.7237      46.7237 
  129000    129.21096   -10982.929   -9749.2826    614.58565     102002.7      46.7237      46.7237      46.7237 
  130000    131.18486   -10977.341   -9724.8487    361.51191     102002.7      46.7237      46.7237      46.7237 
  131000    127.97161   -10969.546   -9747.7329    491.87798     102002.7      46.7237      46.7237      46.7237 
  132000     127.6029   -10974.602   -9756.3088    345.14801     102002.7      46.7237      46.7237      46.7237 
  133000    129.09461   -10977.745   -9745.2095     15.61033     102002.7      46.7237      46.7237      46.7237 
  134000    129.67289   -10951.548   -9713.4919    270.30062     102002.7      46.7237      46.7237      46.7237 
  135000    129.20339   -10962.914   -9729.3405    622.52647     102002.7      46.7237      46.7237      46.7237 
  136000    128.62672   -10985.861   -9757.7926    349.66248     102002.7      46.7237      46.7237      46.7237 
  137000    131.64829   -11007.698   -9750.7819    592.27667     102002.7      46.7237      46.7237      46.7237 
  138000      130.636   -10993.463    -9746.211     461.9968     102002.7      46.7237      46.7237      46.7237 
  139000    131.90822   -10997.647   -9738.2492   -2.4303399     102002.7      46.7237      46.7237      46.7237 
  140000      131.934   -10976.305   -9716.6603     192.1139     102002.7      46.7237      46.7237      46.7237 
  141000    131.17467   -10974.895   -9722.5003    542.65248     102002.7      46.7237      46.7237      46.7237 
  142000    130.30871   -11023.428   -9779.3013    180.89168     102002.7      46.7237      46.7237      46.7237 
  143000    129.65444   -10969.315    -9731.435    286.90732     102002.7      46.7237      46.7237      46.7237 
  144000    129.50636    -10990.18   -9753.7136    202.69287     102002.7      46.7237      46.7237      46.7237 
  145000     127.7061   -10998.017    -9778.739    9.2731836     102002.7      46.7237      46.7237      46.7237 
  146000    130.77074   -10971.436   -9722.8981    287.46119     102002.7      46.7237      46.7237      46.7237 
  147000    130.80044   -10961.142   -9712.3202    442.52761     102002.7      46.7237      46.7237      46.7237 
  148000    128.62939   -10947.793   -9719.6996    477.33635     102002.7      46.7237      46.7237      46.7237 
  149000    127.03967   -10997.108   -9784.1923     377.4006     102002.7      46.7237      46.7237      46.7237 
  150000    130.12083   -10994.954   -9752.6207    364.73809     102002.7      46.7237      46.7237      46.7237 
  151000    127.91339   -11001.544   -9780.2863    148.37238     102002.7      46.7237      46.7237      46.7237 
  152000    129.66845   -11002.233   -9764.2185    332.52848     102002.7      46.7237      46.7237      46.7237 
  153000    132.90419   -11002.489   -9733.5819    360.49445     102002.7      46.7237      46.7237      46.7237 
  154000    131.12737   -10975.028   -9723.0844    159.65276     102002.7      46.7237      46.7237      46.7237 
  155000    128.95156   -11014.608   -9783.4386    473.58512     102002.7      46.7237      46.7237      46.7237 
  156000    127.50365   -10976.545   -9759.1994    553.67563     102002.7      46.7237      46.7237      46.7237 
  157000    129.34161   -10982.835   -9747.9415    278.88741     102002.7      46.7237      46.7237      46.7237 
  158000    131.22207   -10992.152   -9739.3043    75.862686     102002.7      46.7237      46.7237      46.7237 
  159000    130.12575    -10983.79   -9741.4101    625.86723     102002.7      46.7237      46.7237      46.7237 
  160000    128.03913    -10955.25   -9732.7917     627.2797     102002.7      46.7237      46.7237      46.7237 
  161000    132.33252   -11000.839   -9737.3896    362.88067     102002.7      46.7237      46.7237      46.7237 
  162000    129.68535   -10979.152   -9740.9763    677.47309     102002.7      46.7237      46.7237      46.7237 
  163000    129.76143   -10988.063   -9749.1609     587.5551     102002.7      46.7237      46.7237      46.7237 
  164000    130.11483   -10963.039   -9720.7627     116.3867     102002.7      46.7237      46.7237      46.7237 
  165000    128.57643   -10981.008   -9753.4204   -39.647122     102002.7      46.7237      46.7237      46.7237 
  166000    131.31366   -10999.181   -9745.4592    221.99483     102002.7      46.7237      46.7237      46.7237 
  167000    132.36521   -10987.889   -9724.1277    205.45243     102002.7      46.7237      46.7237      46.7237 
  168000    129.71377   -10989.373   -9750.9259    324.05032     102002.7      46.7237      46.7237      46.7237 
  169000    127.57405   -10993.919   -9775.9013    184.57893     102002.7      46.7237      46.7237      46.7237 
  170000    131.39472   -10959.242   -9704.7465    175.85067     102002.7      46.7237      46.7237      46.7237 
  171000    127.53989   -10987.307   -9769.6153    471.23009     102002.7      46.7237      46.7237      46.7237 
  172000    134.00065   -10966.908   -9687.5321    274.87898     102002.7      46.7237      46.7237      46.7237 
  173000    128.32824   -11010.096   -9784.8778    249.12052     102002.7      46.7237      46.7237      46.7237 
  174000    127.55265   -10978.311   -9760.4974    115.10386     102002.7      46.7237      46.7237      46.7237 
  175000    130.12643   -10977.795   -9735.4085    274.22931     102002.7      46.7237      46.7237      46.7237 
  176000     131.9501   -10973.129   -9713.3311     173.1061     102002.7      46.7237      46.7237      46.7237 
  177000    128.67544   -10999.714   -9771.1807   -11.601388     102002.7      46.7237      46.7237      46.7237 
  178000    128.80825   -10962.939   -9733.1377    246.88275     102002.7      46.7237      46.7237      46.7237 
  179000     130.2518   -10962.915   -9719.3314    336.34684     102002.7      46.7237      46.7237      46.7237 
  180000    132.31292   -11008.325   -9745.0623    189.03267     102002.7      46.7237      46.7237      46.7237 
  181000    126.98878   -10986.519   -9774.0891    387.43399     102002.7      46.7237      46.7237      46.7237 
  182000    131.42365   -10966.147    -9711.375    321.43405     102002.7      46.7237      46.7237      46.7237 
  183000    128.68676   -10992.235   -9763.5939    435.43247     102002.7      46.7237      46.7237      46.7237 
  184000    129.08813    -11000.13   -9767.6568    328.96869     102002.7      46.7237      46.7237      46.7237 
  185000    126.76846   -10962.237   -9751.9107    351.93442     102002.7      46.7237      46.7237      46.7237 
  186000    131.16822   -11021.254   -9768.9205    194.11462     102002.7      46.7237      46.7237      46.7237 
  187000    128.60209    -10964.89   -9737.0575     263.2651     102002.7      46.7237      46.7237      46.7237 
  188000    131.07141   -10989.113    -9737.704    112.97585     102002.7      46.7237      46.7237      46.7237 
  189000    129.42524   -10970.513    -9734.821    156.88375     102002.7      46.7237      46.7237      46.7237 
  190000    130.10269   -11025.853   -9783.6935    314.35947     102002.7      46.7237      46.7237      46.7237 
  191000    130.02173   -10992.298   -9750.9114   -73.554817     102002.7      46.7237      46.7237      46.7237 
  192000    130.21749   -11014.654   -9771.3977     505.8617     102002.7      46.7237      46.7237      46.7237 
  193000    129.49198    -10976.43   -9740.1013    137.42201     102002.7      46.7237      46.7237      46.7237 
  194000     128.9731   -10970.637   -9739.2614   -90.431028     102002.7      46.7237      46.7237      46.7237 
  195000    130.78006   -11008.644   -9760.0166   -45.793265     102002.7      46.7237      46.7237      46.7237 
  196000    127.97988   -10988.018   -9766.1261    349.06308     102002.7      46.7237      46.7237      46.7237 
  197000    126.16236   -10990.151   -9785.6119    276.37668     102002.7      46.7237      46.7237      46.7237 
  198000    129.23534   -10998.912   -9765.0329   -213.73322     102002.7      46.7237      46.7237      46.7237 
  199000    130.86559   -10984.917   -9735.4736   -175.22886     102002.7      46.7237      46.7237      46.7237 
  200000     126.2076   -10990.371   -9785.3991    5.7182142     102002.7      46.7237      46.7237      46.7237 
  201000    132.44474   -11005.455   -9740.9342    399.17912     102002.7      46.7237      46.7237      46.7237 
  202000    132.41618   -11003.001   -9738.7528    251.56429     102002.7      46.7237      46.7237      46.7237 
  203000    128.78621   -10983.291   -9753.6999   -85.913594     102002.7      46.7237      46.7237      46.7237 
  204000    132.87709   -11006.968   -9738.3193    173.88596     102002.7      46.7237      46.7237      46.7237 
  205000     133.1348   -10992.963   -9721.8542    496.11128     102002.7      46.7237      46.7237      46.7237 
  206000      127.479   -11004.047   -9786.9366   -31.511316     102002.7      46.7237      46.7237      46.7237 
  207000    131.91648   -10975.351   -9715.8744    451.63096     102002.7      46.7237      46.7237      46.7237 
  208000    131.44877   -10974.311   -9719.2998    284.10851     102002.7      46.7237      46.7237      46.7237 
  209000     131.8817   -10985.964   -9726.8193    381.36359     102002.7      46.7237      46.7237      46.7237 
  210000    130.68885   -11025.114    -9777.358    397.73005     102002.7      46.7237      46.7237      46.7237 
  211000    131.99551   -10974.773   -9714.5409    105.29111     102002.7      46.7237      46.7237      46.7237 
  212000    127.60028    -10984.57    -9766.302    307.39881     102002.7      46.7237      46.7237      46.7237 
  213000    129.53359   -10993.406   -9756.6798    40.501414     102002.7      46.7237      46.7237      46.7237 
  214000    130.73211   -10989.494   -9741.3246   -69.023057     102002.7      46.7237      46.7237      46.7237 
  215000    126.97377   -10961.177   -9748.8902    122.44107     102002.7      46.7237      46.7237      46.7237 
  216000    127.45274   -10969.544    -9752.685    86.284205     102002.7      46.7237      46.7237      46.7237 
  217000     129.6627   -11004.808   -9766.8488    216.84547     102002.7      46.7237      46.7237      46.7237 
  218000    129.92183   -10965.488   -9725.0545    523.36065     102002.7      46.7237      46.7237      46.7237 
  219000    129.00931   -10982.609   -9750.8881    571.36731     102002.7      46.7237      46.7237      46.7237 
  220000     128.7184   -10980.151   -9751.2076    572.75351     102002.7      46.7237      46.7237      46.7237 
  221000    131.29471   -10994.832   -9741.2915    357.64389     102002.7      46.7237      46.7237      46.7237 
  222000    127.02722   -10975.396   -9762.5993    665.54507     102002.7      46.7237      46.7237      46.7237 
  223000    131.97012   -11001.248   -9741.2591    449.76272     102002.7      46.7237      46.7237      46.7237 
  224000    131.00812   -10963.407   -9712.6026    575.03827     102002.7      46.7237      46.7237      46.7237 
  225000    131.15379   -10983.931   -9731.7354    144.67563     102002.7      46.7237      46.7237      46.7237 
  226000    131.81731   -10976.196   -9717.6657    165.05981     102002.7      46.7237      46.7237      46.7237 
  227000    129.72096   -10973.074   -9734.5587     337.7209     102002.7      46.7237      46.7237      46.7237 
  228000    131.70806   -10983.523   -9726.0356    156.49068     102002.7      46.7237      46.7237      46.7237 
  229000    129.71661   -10977.482   -9739.0079    145.35988     102002.7      46.7237      46.7237      46.7237 
  230000    129.01696   -10998.435   -9766.6407    340.98843     102002.7      46.7237      46.7237      46.7237 
  231000    125.94978       -10994   -9791.4899    118.99386     102002.7      46.7237      46.7237      46.7237 
  232000    130.51803    -10981.49   -9735.3648    433.00757     102002.7      46.7237      46.7237      46.7237 
  233000    129.81393   -10974.947   -9735.5437    398.34178     102002.7      46.7237      46.7237      46.7237 
  234000    128.80615   -10961.523   -9731.7422    341.89847     102002.7      46.7237      46.7237      46.7237 
  235000    130.98817   -10945.412   -9694.7981     376.3771     102002.7      46.7237      46.7237      46.7237 
  236000    128.55629   -10992.816   -9765.4199    172.60935     102002.7      46.7237      46.7237      46.7237 
  237000    128.84611   -10992.915   -9762.7524    81.181645     102002.7      46.7237      46.7237      46.7237 
  238000    128.38107   -10990.715   -9764.9926    157.91271     102002.7      46.7237      46.7237      46.7237 
  239000    128.21536   -11010.741   -9786.6008    488.18693     102002.7      46.7237      46.7237      46.7237 
  240000    127.79973   -10966.544   -9746.3714     202.5608     102002.7      46.7237      46.7237      46.7237 
  241000     129.8002   -10935.964   -9696.6917    406.80277     102002.7      46.7237      46.7237      46.7237 
  242000    129.76543   -10972.244   -9733.3038     327.7391     102002.7      46.7237      46.7237      46.7237 
  243000    131.33807   -10990.938    -9736.983    372.16502     102002.7      46.7237      46.7237      46.7237 
  244000    127.33869   -10983.127   -9767.3562    238.61678     102002.7      46.7237      46.7237      46.7237 
  245000    134.31683   -11018.499   -9736.1046    362.39473     102002.7      46.7237      46.7237      46.7237 
  246000    132.43289   -11003.575   -9739.1673     398.5238     102002.7      46.7237      46.7237      46.7237 
  247000    128.64642   -10995.092   -9766.8362    468.40973     102002.7      46.7237      46.7237      46.7237 
  248000    129.56478   -11012.234   -9775.2101    404.46206     102002.7      46.7237      46.7237      46.7237 
  249000    131.74874   -10990.734   -9732.8586    468.16623     102002.7      46.7237      46.7237      46.7237 
  250000    131.97695   -10992.534   -9732.4798    293.51528     102002.7      46.7237      46.7237      46.7237 
  251000    133.32614   -10995.778   -9722.8421    275.54499     102002.7      46.7237      46.7237      46.7237 
  252000    130.53011   -11024.742   -9778.5007    156.42277     102002.7      46.7237      46.7237      46.7237 
  253000    130.47825   -10974.826   -9729.0801   -61.260012     102002.7      46.7237      46.7237      46.7237 
  254000    129.03767   -11021.567   -9789.5753    41.933297     102002.7      46.7237      46.7237      46.7237 
  255000    135.29656   -11026.628   -9734.8795    296.49325     102002.7      46.7237      46.7237      46.7237 
  256000    130.19695   -10985.258   -9742.1982   -43.666086     102002.7      46.7237      46.7237      46.7237 
  257000    130.40768   -10999.005   -9753.9329     70.34734     102002.7      46.7237      46.7237      46.7237 
  258000    133.96233   -10988.857   -9709.8473    201.15689     102002.7      46.7237      46.7237      46.7237 
  259000    131.61671   -11008.096    -9751.481    155.08698     102002.7      46.7237      46.7237      46.7237 
  260000    133.33235   -10997.268   -9724.2726    472.04988     102002.7      46.7237      46.7237      46.7237 
  261000    128.95845   -10968.454   -9737.2184    163.17055     102002.7      46.7237      46.7237      46.7237 
  262000    126.99513   -10975.123   -9762.6327    305.43926     102002.7      46.7237      46.7237      46.7237 
  263000    128.02503    -10970.79   -9748.4664    553.37779     102002.7      46.7237      46.7237      46.7237 
  264000    129.45664   -10990.137   -9754.1451     340.5129     102002.7      46.7237      46.7237      46.7237 
  265000    128.16603   -10983.917   -9760.2476    492.60318     102002.7      46.7237      46.7237      46.7237 
  266000    131.30404   -10962.602   -9708.9724    12.946265     102002.7      46.7237      46.7237      46.7237 
  267000    129.20426   -11006.179   -9772.5973    231.68735     102002.7      46.7237      46.7237      46.7237 
  268000    130.05393   -11011.801   -9770.1069    364.02151     102002.7      46.7237      46.7237      46.7237 
  269000    130.77215   -10965.599   -9717.0479    274.00251     102002.7      46.7237      46.7237      46.7237 
  270000    129.27666   -11000.581   -9766.3074    512.68203     102002.7      46.7237      46.7237      46.7237 
  271000    129.48506   -11027.676   -9791.4125    416.74456     102002.7      46.7237      46.7237      46.7237 
  272000    131.90179   -10985.747   -9726.4106    112.27827     102002.7      46.7237      46.7237      46.7237 
  273000    130.59425   -10986.976   -9740.1231    428.85659     102002.7      46.7237      46.7237      46.7237 
  274000    125.63537   -10985.749   -9786.2406    468.41358     102002.7      46.7237      46.7237      46.7237 
  275000    130.38746   -10969.314   -9724.4355    280.81873     102002.7      46.7237      46.7237      46.7237 
  276000    124.95658   -10986.644   -9793.6163    445.16621     102002.7      46.7237      46.7237      46.7237 
  277000    130.64475   -11015.876   -9768.5404    66.299691     102002.7      46.7237      46.7237      46.7237 
  278000    134.05173   -11011.513    -9731.649     120.1822     102002.7      46.7237      46.7237      46.7237 
  279000    132.05479   -11014.951   -9754.1538    251.15093     102002.7      46.7237      46.7237      46.7237 
  280000    132.29041   -11000.701   -9737.6538    101.63843     102002.7      46.7237      46.7237      46.7237 
  281000    127.78478   -11014.468    -9794.438    317.25352     102002.7      46.7237      46.7237      46.7237 
  282000    128.80402   -11003.922   -9774.1615    593.06241     102002.7      46.7237      46.7237      46.7237 
  283000    130.63166   -10996.506   -9749.2961    400.08278     102002.7      46.7237      46.7237      46.7237 
  284000    127.33955    -10976.28   -9760.5013    530.04007     102002.7      46.7237      46.7237      46.7237 
  285000    131.60531   -10988.825    -9732.319    633.80161     102002.7      46.7237      46.7237      46.7237 
  286000    129.34275   -10983.005   -9748.1002    289.54722     102002.7      46.7237      46.7237      46.7237 
  287000    131.86787   -10966.057   -9707.0435    219.38488     102002.7      46.7237      46.7237      46.7237 
  288000    128.41272   -11001.732   -9775.7068    17.522349     102002.7      46.7237      46.7237      46.7237 
  289000    128.03552   -11013.451   -9791.0275   -37.441576     102002.7      46.7237      46.7237      46.7237 
  290000    129.63079   -11004.341   -9766.6868    63.194959     102002.7      46.7237      46.7237      46.7237 
  291000    130.12064   -10962.748   -9720.4162    13.146841     102002.7      46.7237      46.7237      46.7237 
  292000    133.73875   -11016.089   -9739.2136    409.04805     102002.7      46.7237      46.7237      46.7237 
  293000     129.0299    -10984.72   -9752.8024    633.93198     102002.7      46.7237      46.7237      46.7237 
  294000    129.96342   -10982.746   -9741.9157    419.79785     102002.7      46.7237      46.7237      46.7237 
  295000     128.0106   -11004.886   -9782.7007    462.43386     102002.7      46.7237      46.7237      46.7237 
  296000    130.60696   -10978.665   -9731.6904    367.51727     102002.7      46.7237      46.7237      46.7237 
  297000     132.8935   -11004.132   -9735.3263    449.03699     102002.7      46.7237      46.7237      46.7237 
  298000    129.80575   -11034.077   -9794.7521    387.54195     102002.7      46.7237      46.7237      46.7237 
  299000    129.84952   -10998.917   -9759.1741    256.29239     102002.7      46.7237      46.7237      46.7237 
  300000     132.2745   -10988.817    -9725.922     240.4025     102002.7      46.7237      46.7237      46.7237 
  301000    131.62047   -11005.343    -9748.692    215.44902     102002.7      46.7237      46.7237      46.7237 
  302000    130.40831   -10995.987   -9750.9095   -60.573855     102002.7      46.7237      46.7237      46.7237 
  303000    129.45315   -10987.851   -9751.8926    99.749581     102002.7      46.7237      46.7237      46.7237 
  304000     128.1389   -11004.911   -9781.5005    154.30047     102002.7      46.7237      46.7237      46.7237 
  305000    129.62638   -10968.766   -9731.1534    551.06192     102002.7      46.7237      46.7237      46.7237 
  306000    124.97307   -10977.303   -9784.1183    320.29005     102002.7      46.7237      46.7237      46.7237 
  307000    129.28358   -10976.654   -9742.3145    8.2991704     102002.7      46.7237      46.7237      46.7237 
  308000     136.7879   -10972.613   -9666.6254    80.736988     102002.7      46.7237      46.7237      46.7237 
  309000    131.99406   -10997.904   -9737.6858    459.65481     102002.7      46.7237      46.7237      46.7237 
  310000    130.64034   -10989.922   -9742.6286    415.83707     102002.7      46.7237      46.7237      46.7237 
  311000    129.35117   -10973.651   -9738.6666    265.83217     102002.7      46.7237      46.7237      46.7237 
  312000    131.17446   -10987.044   -9734.6516     351.0709     102002.7      46.7237      46.7237      46.7237 
  313000    131.03193   -10976.215    -9725.183    442.56235     102002.7      46.7237      46.7237      46.7237 
  314000    128.31543   -10990.775   -9765.6795    352.29663     102002.7      46.7237      46.7237      46.7237 
  315000    129.50776   -10962.574   -9726.0944    262.17006     102002.7      46.7237      46.7237      46.7237 
  316000    129.14979   -11007.046   -9773.9834    36.912784     102002.7      46.7237      46.7237      46.7237 
  317000    126.88758   -10983.316   -9771.8522    77.250674     102002.7      46.7237      46.7237      46.7237 
  318000    130.54388   -10998.494   -9752.1217     220.0442     102002.7      46.7237      46.7237      46.7237 
  319000    128.83169   -11026.923   -9796.8984   -45.345897     102002.7      46.7237      46.7237      46.7237 
  320000    127.03006   -10969.923   -9757.0988    44.972218     102002.7      46.7237      46.7237      46.7237 
  321000    129.42708    -10970.17   -9734.4609    82.572346     102002.7      46.7237      46.7237      46.7237 
  322000    127.80332   -10998.408    -9778.201    250.34881     102002.7      46.7237      46.7237      46.7237 
  323000    131.90382   -11000.115   -9740.7585    49.491964     102002.7      46.7237      46.7237      46.7237 
  324000    129.03524   -10991.756   -9759.7873    181.51029     102002.7      46.7237      46.7237      46.7237 
  325000    132.01195   -11008.865   -9748.4759    54.411775     102002.7      46.7237      46.7237      46.7237 
  326000    130.05586   -10975.867   -9734.1543    115.79222     102002.7      46.7237      46.7237      46.7237 
  327000    130.24247   -10981.083   -9737.5883    354.05922     102002.7      46.7237      46.7237      46.7237 
  328000    132.08581   -10991.739   -9730.6448    390.52153     102002.7      46.7237      46.7237      46.7237 
  329000    128.39454    -11009.24   -9783.3891    498.28325     102002.7      46.7237      46.7237      46.7237 
  330000    127.44902   -10983.178   -9766.3545    356.94906     102002.7      46.7237      46.7237      46.7237 
  331000     125.4702   -10994.424   -9796.4929    410.83931     102002.7      46.7237      46.7237      46.7237 
  332000    131.92437   -10981.043   -9721.4904    554.95336     102002.7      46.7237      46.7237      46.7237 
  333000    130.54123   -10985.704   -9739.3568    739.53295     102002.7      46.7237      46.7237      46.7237 
  334000      129.835   -10968.678   -9729.0743    185.05209     102002.7      46.7237      46.7237      46.7237 
  335000    129.66711   -10983.029   -9745.0278    603.54272     102002.7      46.7237      46.7237      46.7237 
  336000    129.23564    -10951.93   -9718.0478     620.9464     102002.7      46.7237      46.7237      46.7237 
  337000    128.35568   -10979.347   -9753.8667    300.56802     102002.7      46.7237      46.7237      46.7237 
  338000    128.72978   -10963.772   -9734.7197    429.81154     102002.7      46.7237      46.7237      46.7237 
  339000    130.77142   -10986.984   -9738.4395    186.83049     102002.7      46.7237      46.7237      46.7237 
  340000     129.6759   -10985.983   -9747.8975    161.98779     102002.7      46.7237      46.7237      46.7237 
  341000    129.13159   -10975.483   -9742.5949    551.94382     102002.7      46.7237      46.7237      46.7237 
  342000    132.75411   -10991.993   -9724.5185     289.7715     102002.7      46.7237      46.7237      46.7237 
  343000    129.27704   -10987.581   -9753.3036    549.06729     102002.7      46.7237      46.7237      46.7237 
  344000     129.3399   -10972.401   -9737.5235    238.66247     102002.7      46.7237      46.7237      46.7237 
  345000    130.50254   -10983.438   -9737.4605    23.939746     102002.7      46.7237      46.7237      46.7237 
  346000    127.30527   -10982.506   -9767.0549    299.53509     102002.7      46.7237      46.7237      46.7237 
  347000    131.74638   -11000.179   -9742.3262    471.49319     102002.7      46.7237      46.7237      46.7237 
  348000    128.03494   -10987.324   -9764.9063    315.74569     102002.7      46.7237      46.7237      46.7237 
  349000    127.96674   -10969.733   -9747.9657     541.4178     102002.7      46.7237      46.7237      46.7237 
  350000    130.55707   -10961.314    -9714.816    336.97056     102002.7      46.7237      46.7237      46.7237 
  351000    130.13389    -10971.44   -9728.9822    328.85324     102002.7      46.7237      46.7237      46.7237 
  352000    128.13553   -11011.759   -9788.3809    402.25173     102002.7      46.7237      46.7237      46.7237 
  353000     128.3156   -10999.447   -9774.3496    474.77911     102002.7      46.7237      46.7237      46.7237 
  354000    131.04433   -11013.425   -9762.2745     427.0219     102002.7      46.7237      46.7237      46.7237 
  355000    127.66314   -11008.316   -9789.4476    382.81542     102002.7      46.7237      46.7237      46.7237 
  356000    129.18951   -10970.201     -9736.76    137.27595     102002.7      46.7237      46.7237      46.7237 
  357000    126.73489   -11008.355   -9798.3493    339.55264     102002.7      46.7237      46.7237      46.7237 
  358000    131.63202   -10994.415   -9737.6541    169.76896     102002.7      46.7237      46.7237      46.7237 
  359000    131.77458   -11002.082   -9743.9596    33.158537     102002.7      46.7237      46.7237      46.7237 
  360000    129.59633   -10993.456   -9756.1301    23.584294     102002.7      46.7237      46.7237      46.7237 
  361000     129.1901    -11003.22   -9769.7727    172.75206     102002.7      46.7237      46.7237      46.7237 
  362000    131.03587   -10987.981   -9736.9113    352.97002     102002.7      46.7237      46.7237      46.7237 
  363000    131.61644   -10986.603   -9729.9901    402.95876     102002.7      46.7237      46.7237      46.7237 
  364000    133.03041   -10983.662   -9713.5498     157.8716     102002.7      46.7237      46.7237      46.7237 
  365000    130.67781    -11008.65   -9760.9987    37.570864     102002.7      46.7237      46.7237      46.7237 
  366000    132.08195   -10968.655   -9707.5977    99.462469     102002.7      46.7237      46.7237      46.7237 
  367000    127.74117   -10951.359    -9731.746     70.03319     102002.7      46.7237      46.7237      46.7237 
  368000     131.0535   -11008.079   -9756.8411    232.90128     102002.7      46.7237      46.7237      46.7237 
  369000    133.18356   -10989.193   -9717.6183    431.28228     102002.7      46.7237      46.7237      46.7237 
  370000    131.12289   -11002.355   -9750.4546    84.192331     102002.7      46.7237      46.7237      46.7237 
  371000    125.60106   -10974.701   -9775.5207    233.87818     102002.7      46.7237      46.7237      46.7237 
  372000    132.23354   -10993.567   -9731.0624    36.811551     102002.7      46.7237      46.7237      46.7237 
  373000    132.43711   -11004.859   -9740.4115    391.09246     102002.7      46.7237      46.7237      46.7237 
  374000    127.39474   -11031.556   -9815.2508   -222.66869     102002.7      46.7237      46.7237      46.7237 
  375000    129.65876   -10967.823   -9729.9012      37.8909     102002.7      46.7237      46.7237      46.7237 
  376000    131.63346   -10955.125   -9698.3497    499.10657     102002.7      46.7237      46.7237      46.7237 
  377000    128.49577   -10967.181   -9740.3634    434.16697     102002.7      46.7237      46.7237      46.7237 
  378000    130.19084   -11007.208   -9764.2069    356.09844     102002.7      46.7237      46.7237      46.7237 
  379000    130.13806   -10964.096   -9721.5983    263.05629     102002.7      46.7237      46.7237      46.7237 
  380000    128.04351   -10999.853   -9777.3536    88.103756     102002.7      46.7237      46.7237      46.7237 
  381000    132.75669   -10996.353   -9728.8537    513.90396     102002.7      46.7237      46.7237      46.7237 
  382000    127.42539   -10997.918     -9781.32   -142.49694     102002.7      46.7237      46.7237      46.7237 
  383000    128.10617   -11004.847   -9781.7491    475.15684     102002.7      46.7237      46.7237      46.7237 
  384000      130.216   -11008.756   -9765.5144    363.75221     102002.7      46.7237      46.7237      46.7237 
  385000    132.31834   -10997.548   -9734.2345    292.28264     102002.7      46.7237      46.7237      46.7237 
  386000    133.64702   -10978.969   -9702.9691    274.66836     102002.7      46.7237      46.7237      46.7237 
  387000    131.24817   -10961.688   -9708.5916    444.95119     102002.7      46.7237      46.7237      46.7237 
  388000    127.15113   -10956.666   -9742.6861    212.88802     102002.7      46.7237      46.7237      46.7237 
  389000    136.55508   -10967.352   -9663.5872    335.76253     102002.7      46.7237      46.7237      46.7237 
  390000    131.92575   -10975.402   -9715.8368     122.3062     102002.7      46.7237      46.7237      46.7237 
  391000    126.03597   -10984.485   -9781.1526    302.65204     102002.7      46.7237      46.7237      46.7237 
  392000     130.1284   -10951.596   -9709.1904    102.14264     102002.7      46.7237      46.7237      46.7237 
  393000    128.40924   -11000.588   -9774.5962    376.84291     102002.7      46.7237      46.7237      46.7237 
  394000    130.59122   -10982.533   -9735.7089    460.47481     102002.7      46.7237      46.7237      46.7237 
  395000    124.95793   -10966.333   -9773.2927    148.96541     102002.7      46.7237      46.7237      46.7237 
  396000     127.2225   -10969.136    -9754.475    462.29484     102002.7      46.7237      46.7237      46.7237 
  397000    128.39006   -10977.627   -9751.8182      451.809     102002.7      46.7237      46.7237      46.7237 
  398000    129.18744   -10960.338   -9726.9165    278.98611     102002.7      46.7237      46.7237      46.7237 
  399000    129.71942   -10973.435   -9734.9347    490.12771     102002.7      46.7237      46.7237      46.7237 
  400000    127.86777   -10989.879   -9769.0567    458.06932     102002.7      46.7237      46.7237      46.7237 
  401000    129.44464   -11001.509   -9765.6321    563.77716     102002.7      46.7237      46.7237      46.7237 
  402000    129.70034   -10958.453   -9720.1342    24.250272     102002.7      46.7237      46.7237      46.7237 
  403000    124.74819   -10974.341   -9783.3035    309.46109     102002.7      46.7237      46.7237      46.7237 
  404000    132.36731   -10989.362   -9725.5804    211.09225     102002.7      46.7237      46.7237      46.7237 
  405000    126.44117   -10987.168   -9779.9664    218.44699     102002.7      46.7237      46.7237      46.7237 
  406000    129.16997   -10988.666   -9755.4108    112.29027     102002.7      46.7237      46.7237      46.7237 
  407000    131.66346   -10986.575   -9729.5137    159.13321     102002.7      46.7237      46.7237      46.7237 
  408000    126.65214   -10968.721   -9759.5049    474.28886     102002.7      46.7237      46.7237      46.7237 
  409000    129.94069   -10990.707   -9750.0937    148.85692     102002.7      46.7237      46.7237      46.7237 
  410000    128.71303   -11014.431   -9785.5394   -12.673032     102002.7      46.7237      46.7237      46.7237 
  411000     127.3173   -10966.725   -9751.1584    113.00317     102002.7      46.7237      46.7237      46.7237 
  412000    131.31257   -10988.078    -9734.367    346.40358     102002.7      46.7237      46.7237      46.7237 
  413000    125.13063   -10995.601    -9800.912    255.67839     102002.7      46.7237      46.7237      46.7237 
  414000    131.30088   -10961.674   -9708.0738    462.86554     102002.7      46.7237      46.7237      46.7237 
  415000    130.61777   -10988.573   -9741.4956    528.51539     102002.7      46.7237      46.7237      46.7237 
  416000    130.28065   -10968.488   -9724.6286    380.22741     102002.7      46.7237      46.7237      46.7237 
  417000    129.46897   -10985.007   -9748.8977   -71.156205     102002.7      46.7237      46.7237      46.7237 
  418000     129.8209    -10989.95   -9750.4801    308.29228     102002.7      46.7237      46.7237      46.7237 
  419000    130.14149   -10953.549   -9711.0185    69.897153     102002.7      46.7237      46.7237      46.7237 
  420000     131.5894    -10985.61   -9729.2557    266.58152     102002.7      46.7237      46.7237      46.7237 
  421000    130.33035   -11022.716   -9778.3825    109.95331     102002.7      46.7237      46.7237      46.7237 
  422000    132.65163   -10985.277   -9718.7807    17.843165     102002.7      46.7237      46.7237      46.7237 
  423000    129.31993   -10966.648   -9731.9613    476.09324     102002.7      46.7237      46.7237      46.7237 
  424000    126.42645   -10982.261      -9775.2     37.62452     102002.7      46.7237      46.7237      46.7237 
  425000    132.63314    -10971.29   -9704.9701    152.35839     102002.7      46.7237      46.7237      46.7237 
  426000    128.95853   -11006.196   -9774.9598    150.56834     102002.7      46.7237      46.7237      46.7237 
  427000    133.13065   -11029.018   -9757.9486    329.93504     102002.7      46.7237      46.7237      46.7237 
  428000    132.21461   -10974.692   -9712.3688    334.94811     102002.7      46.7237      46.7237      46.7237 
  429000    129.82339   -11000.637   -9761.1442    165.70582     102002.7      46.7237      46.7237      46.7237 
  430000    128.48625   -10993.708   -9766.9808    195.12835     102002.7      46.7237      46.7237      46.7237 
  431000    133.02898   -10967.441    -9697.342    353.79821     102002.7      46.7237      46.7237      46.7237 
  432000    131.25065    -10981.79   -9728.6696    284.51612     102002.7      46.7237      46.7237      46.7237 
  433000    128.30565   -10998.083   -9773.0808    437.67451     102002.7      46.7237      46.7237      46.7237 
  434000    126.84383   -11001.921   -9790.8751     215.0864     102002.7      46.7237      46.7237      46.7237 
  435000    131.67316   -11003.114   -9745.9599    241.39376     102002.7      46.7237      46.7237      46.7237 
  436000    131.60361   -10978.885    -9722.395    367.84611     102002.7      46.7237      46.7237      46.7237 
  437000    132.04891   -11035.916   -9775.1748    92.716924     102002.7      46.7237      46.7237      46.7237 
  438000    132.03253    -10988.84   -9728.2543    352.92415     102002.7      46.7237      46.7237      46.7237 
  439000    129.55802   -10948.193   -9711.2334    484.51513     102002.7      46.7237      46.7237      46.7237 
  440000    130.86568   -11001.659    -9752.214    303.46154     102002.7      46.7237      46.7237      46.7237 
  441000    133.19803    -10927.31   -9655.5973    455.16347     102002.7      46.7237      46.7237      46.7237 
  442000    130.56825   -10971.661   -9725.0565    510.27101     102002.7      46.7237      46.7237      46.7237 
  443000    126.49192    -11008.12    -9800.434    410.23736     102002.7      46.7237      46.7237      46.7237 
  444000    130.03384   -10976.045   -9734.5429    586.45122     102002.7      46.7237      46.7237      46.7237 
  445000    131.90593    -10984.33   -9724.9538    205.21304     102002.7      46.7237      46.7237      46.7237 
  446000    129.69997   -11001.339   -9763.0236     175.9655     102002.7      46.7237      46.7237      46.7237 
  447000    130.05396   -10977.876   -9736.1808    444.58992     102002.7      46.7237      46.7237      46.7237 
  448000    128.28455   -10980.931   -9756.1302    386.13938     102002.7      46.7237      46.7237      46.7237 
  449000     128.0515   -11001.777   -9779.2006    473.33895     102002.7      46.7237      46.7237      46.7237 
  450000    130.42762   -10986.586   -9741.3233    411.87212     102002.7      46.7237      46.7237      46.7237 
  451000    130.03298   -10933.239   -9691.7444    441.73817     102002.7      46.7237      46.7237      46.7237 
  452000    131.03439    -10982.63   -9731.5748   -13.507216     102002.7      46.7237      46.7237      46.7237 
  453000    128.20891   -10989.956   -9765.8768    233.89739     102002.7      46.7237      46.7237      46.7237 
  454000    129.45506   -10957.047   -9721.0706    335.47638     102002.7      46.7237      46.7237      46.7237 
  455000    127.26102    -10986.44    -9771.411    323.16109     102002.7      46.7237      46.7237      46.7237 
  456000    128.86581   -10988.147    -9757.796    144.83047     102002.7      46.7237      46.7237      46.7237 
  457000    134.88204   -10964.584   -9676.7933     286.4294     102002.7      46.7237      46.7237      46.7237 
  458000    129.43956   -10991.529   -9755.7002    607.94663     102002.7      46.7237      46.7237      46.7237 
  459000    130.66005    -10949.96   -9702.4792    427.69271     102002.7      46.7237      46.7237      46.7237 
  460000    132.61781   -10982.351   -9716.1779    217.67803     102002.7      46.7237      46.7237      46.7237 
  461000    131.59878   -10974.116   -9717.6725    452.73237     102002.7      46.7237      46.7237      46.7237 
  462000    130.05879   -10984.227   -9742.4862    555.23511     102002.7      46.7237      46.7237      46.7237 
  463000    130.80082   -10982.297   -9733.4712    258.48593     102002.7      46.7237      46.7237      46.7237 
  464000    130.37389   -10959.299   -9714.5495    399.67736     102002.7      46.7237      46.7237      46.7237 
  465000    126.65003   -10996.851    -9787.656    116.95378     102002.7      46.7237      46.7237      46.7237 
  466000    129.88263   -10997.829   -9757.7702    173.57764     102002.7      46.7237      46.7237      46.7237 
  467000    130.81669   -10981.677   -9732.6998    187.30054     102002.7      46.7237      46.7237      46.7237 
  468000    129.88786    -10996.86   -9756.7511    187.16101     102002.7      46.7237      46.7237      46.7237 
  469000    129.59983   -10989.991   -9752.6326    150.57981     102002.7      46.7237      46.7237      46.7237 
  470000    129.36885   -10973.151   -9737.9973      480.229     102002.7      46.7237      46.7237      46.7237 
  471000    131.66569   -10959.302   -9702.2196    158.99523     102002.7      46.7237      46.7237      46.7237 
  472000    131.05057   -10962.442   -9711.2325    219.87714     102002.7      46.7237      46.7237      46.7237 
  473000    134.02432   -11002.343    -9722.741    249.93784     102002.7      46.7237      46.7237      46.7237 
  474000    129.28879   -10967.286   -9732.8963    111.50459     102002.7      46.7237      46.7237      46.7237 
  475000    130.25367   -10977.941   -9734.3392   -2.5070572     102002.7      46.7237      46.7237      46.7237 
  476000    126.88592   -10979.986   -9768.5383    414.72602     102002.7      46.7237      46.7237      46.7237 
  477000    127.36076   -10969.844   -9753.8622    480.38345     102002.7      46.7237      46.7237      46.7237 
  478000    129.01954   -10971.196   -9739.3773    404.31036     102002.7      46.7237      46.7237      46.7237 
  479000    132.57846   -10988.976   -9723.1783    195.26028     102002.7      46.7237      46.7237      46.7237 
  480000    131.93657    -10971.85    -9712.181    433.03735     102002.7      46.7237      46.7237      46.7237 
  481000    131.53832   -10972.111    -9716.244    293.29254     102002.7      46.7237      46.7237      46.7237 
  482000    130.11013   -11001.693   -9759.4617    67.411766     102002.7      46.7237      46.7237      46.7237 
  483000    130.04312   -11010.002   -9768.4107    169.28935     102002.7      46.7237      46.7237      46.7237 
  484000    130.36017    -10977.08   -9732.4618    105.41311     102002.7      46.7237      46.7237      46.7237 
  485000    128.34981    -10995.36    -9769.936    99.168922     102002.7      46.7237      46.7237      46.7237 
  486000    128.60868   -10992.996   -9765.1003     224.8884     102002.7      46.7237      46.7237      46.7237 
  487000    131.63202   -10973.689   -9716.9279    210.77781     102002.7      46.7237      46.7237      46.7237 
  488000    132.58487   -10984.683   -9718.8248     175.2349     102002.7      46.7237      46.7237      46.7237 
  489000    123.35027    -11033.38   -9855.6888     21.69458     102002.7      46.7237      46.7237      46.7237 
  490000    130.68216   -10991.174   -9743.4812    370.46735     102002.7      46.7237      46.7237      46.7237 
  491000    129.36002   -10986.214   -9751.1445    321.27192     102002.7      46.7237      46.7237      46.7237 
  492000     127.4729   -10974.787   -9757.7354    226.09921     102002.7      46.7237      46.7237      46.7237 
  493000    125.86131   -11003.912   -9802.2466    269.11088     102002.7      46.7237      46.7237      46.7237 
  494000    128.91521   -10987.972   -9757.1493    93.521223     102002.7      46.7237      46.7237      46.7237 
  495000    131.32041   -11017.633   -9763.8465    332.31807     102002.7      46.7237      46.7237      46.7237 
  496000    128.58635   -10930.746   -9703.0629    535.71018     102002.7      46.7237      46.7237      46.7237 
  497000    131.71539   -10996.739   -9739.1822    109.15873     102002.7      46.7237      46.7237      46.7237 
  498000    133.30052   -10995.636   -9722.9448    371.20062     102002.7      46.7237      46.7237      46.7237 
  499000    129.91074   -10998.497   -9758.1694    364.30917     102002.7      46.7237      46.7237      46.7237 
  500000    128.66342   -11004.748   -9776.3292    107.93748     102002.7      46.7237      46.7237      46.7237 
  500500    129.60479   -10988.332   -9750.9254    391.86509     102002.7      46.7237      46.7237      46.7237 
Loop time of 1832.22 on 16 procs for 500000 steps with 3204 atoms

Performance: 23.578 ns/day, 1.018 hours/ns, 272.893 timesteps/s
99.8% CPU use with 16 MPI tasks x no OpenMP threads

MPI task timing breakdown:
Section |  min time  |  avg time  |  max time  |%varavg| %total
---------------------------------------------------------------
Pair    | 941.57     | 1166.5     | 1366.6     | 352.1 | 63.66
Bond    | 163.84     | 174.75     | 193.98     |  73.4 |  9.54
Neigh   | 17.644     | 17.745     | 17.834     |   1.8 |  0.97
Comm    | 261.96     | 456.4      | 675.68     | 543.8 | 24.91
Output  | 0.021627   | 0.022439   | 0.026376   |   0.7 |  0.00
Modify  | 9.3297     | 10.1       | 11.025     |  15.3 |  0.55
Other   |            | 6.72       |            |       |  0.37

Nlocal:    200.25 ave 248 max 165 min
Histogram: 1 3 0 3 2 5 1 0 0 1
Nghost:    4057.31 ave 4104 max 4002 min
Histogram: 1 0 0 3 3 3 2 2 1 1
Neighs:    11456.6 ave 15688 max 6542 min
Histogram: 2 1 0 1 3 2 1 2 3 1

Total # of neighbors = 183306
Ave neighs/atom = 57.2116
Ave special neighs/atom = 3.59551
Neighbor list builds = 5133
Dangerous builds = 0
Neighbor list info ...
  update every 1 steps, delay 10 steps, check yes
  max neighbors/atom: 2000, page size: 100000
  master list distance cutoff = 16
  ghost atom cutoff = 16
  binsize = 8, bins = 6 6 6
  3 neighbor lists, perpetual/occasional/extra = 3 0 0
  (1) pair buck6d/coul/gauss/dsf, perpetual, skip from (3)
      attributes: half, newton on
      pair build: skip
      stencil: none
      bin: none
  (2) pair lj/cut, perpetual, skip from (3)
      attributes: half, newton on
      pair build: skip
      stencil: none
      bin: none
  (3) neighbor class addition, perpetual
      attributes: half, newton on
      pair build: half/bin/newton
      stencil: half/bin/3d/newton
      bin: standard
Setting up Verlet run ...
  Unit style    : real
  Current step  : 500500
  Time step     : 1
WARNING: Inconsistent image flags (../domain.cpp:786)
Per MPI rank memory allocation (min/avg/max) = 23.24 | 23.42 | 23.44 Mbytes
Step Time TotEng KinEng PotEng E_mol E_pair Temp Pxx Pyy Pzz Pxy Pxz Pyz Cella Cellb Cellc CellAlpha CellBeta CellGamma Volume Press 
  500500       500000   -9750.9254    1237.4062   -10988.332    4355.0583    -15343.39    129.60479     397.7938    594.90806     182.8934    156.28754   -189.31913    57.008999      46.7237      46.7237      46.7237           90           90           90     102002.7    391.86509 
  501000       500500    -9721.989    1275.4765   -10997.465    4382.3077   -15379.773    133.59223    272.43925   -147.98016    727.86354   -84.822579   -68.471551   -17.894002      46.7237      46.7237      46.7237           90           90           90     102002.7    284.10755 
  502000       501500   -9754.0226    1250.5538   -11004.576    4351.0983   -15355.675    130.98186    193.93815   -255.40401    387.03397    93.947549   -271.07932   -280.85347      46.7237      46.7237      46.7237           90           90           90     102002.7     108.5227 
  503000       502500   -9771.4021    1249.0861   -11020.488    4348.6017    -15369.09    130.82813    29.386067    259.76001    53.856407   -59.001424   -106.27222    109.97783      46.7237      46.7237      46.7237           90           90           90     102002.7    114.33416 
  504000       503500   -9769.5452    1221.0971   -10990.642    4380.2761   -15370.918    127.89659    69.357235    387.91954   -521.60129    40.058069   -22.432558    150.85755      46.7237      46.7237      46.7237           90           90           90     102002.7   -21.441505 
  505000       504500   -9727.9042    1257.2681   -10985.172    4398.4206   -15383.593    131.68511    258.26243    263.74706    202.94575   -16.397615    66.429823   -199.60782      46.7237      46.7237      46.7237           90           90           90     102002.7    241.65174 
  506000       505500   -9784.5148    1231.4397   -11015.955    4345.3662   -15361.321    128.97986    75.014986    570.89521   -113.97974   -37.198108    158.20874   -262.64258      46.7237      46.7237      46.7237           90           90           90     102002.7    177.31015 
  507000       506500   -9775.7765    1226.7773   -11002.554    4371.2168   -15373.771    128.49152   -332.35804    200.63938    272.97301    95.930328    95.249821   -87.066285      46.7237      46.7237      46.7237           90           90           90     102002.7    47.084782 
  508000       507500     -9727.35    1247.8966   -10975.247    4392.8304   -15368.077    130.70355    8.3517031    371.72826    145.00356   -101.59978   -269.21665    68.766667      46.7237      46.7237      46.7237           90           90           90     102002.7    175.02784 
  509000       508500   -9780.2171    1218.4463   -10998.663    4363.7137   -15362.377    127.61894    171.91519    982.85216    737.13832    123.33383     27.51205    54.121326      46.7237      46.7237      46.7237           90           90           90     102002.7    630.63522 
  510000       509500   -9717.3846     1237.629   -10955.014    4391.9737   -15346.987    129.62813   -103.19443    405.92715    424.58148    281.46799    35.251396    59.583547      46.7237      46.7237      46.7237           90           90           90     102002.7    242.43807 
  511000       510500   -9726.0327    1259.0735   -10985.106    4352.5993   -15337.705     131.8742      322.963    254.89671    381.45412    39.555508    209.05695    -25.36407      46.7237      46.7237      46.7237           90           90           90     102002.7    319.77128 
  512000       511500     -9749.23    1232.5464   -10981.776    4376.1845   -15357.961    129.09578   -289.35133    107.80445      283.052    144.44091    30.104374   -31.203291      46.7237      46.7237      46.7237           90           90           90     102002.7     33.83504 
  513000       512500   -9751.1705    1230.8523   -10982.023    4378.6125   -15360.635    128.91834    88.054191    82.293265    128.95579    -113.1283    73.362349    60.090197      46.7237      46.7237      46.7237           90           90           90     102002.7    99.767747 
  514000       513500   -9734.1762    1261.8472   -10996.023    4381.2262    -15377.25    132.16472    4.9086086    490.16171   -10.067135    28.815765    119.28839   -57.977867      46.7237      46.7237      46.7237           90           90           90     102002.7    161.66773 
  515000       514500   -9734.5849    1248.4226   -10983.007    4380.4633   -15363.471    130.75863    244.52495    738.59685   -20.741261   -98.473481    82.855498    132.51945      46.7237      46.7237      46.7237           90           90           90     102002.7    320.79351 
  516000       515500   -9772.6795    1218.2157   -10990.895     4379.632   -15370.527     127.5948    312.01043    159.44042    68.463424    49.118184   -30.132744    176.87108      46.7237      46.7237      46.7237           90           90           90     102002.7    179.97142 
  517000       516500    -9728.109     1228.889   -10956.998    4392.1332   -15349.131     128.7127    143.10824    539.98328    246.92086   -87.566951    -86.28907   -115.19751      46.7237      46.7237      46.7237           90           90           90     102002.7    310.00413 
  518000       517500     -9800.82    1211.3516   -11012.172    4359.9942   -15372.166    126.87585   -176.67178    206.75251    488.04642   -94.845263   -36.975397    36.464607      46.7237      46.7237      46.7237           90           90           90     102002.7    172.70905 
  519000       518500   -9753.2628    1234.5589   -10987.822    4367.1931   -15355.015    129.30657    43.769155   -0.1823336   -32.960715   -395.07566    247.64677    -129.5039      46.7237      46.7237      46.7237           90           90           90     102002.7    3.5420356 
  520000       519500   -9736.2419    1227.3478    -10963.59    4373.5975   -15337.187    128.55128   -109.44123   -79.437873     15.37823   -39.859727    149.91481   -128.93022      46.7237      46.7237      46.7237           90           90           90     102002.7   -57.833625 
  521000       520500    -9729.004    1254.7618   -10983.766    4366.7113   -15350.477     131.4226   -142.31976    143.67364    343.15439    65.703211    170.47075    627.36231      46.7237      46.7237      46.7237           90           90           90     102002.7    114.83609 
  522000       521500   -9779.0768     1210.033    -10989.11    4374.0419   -15363.152    126.73775    376.17267    733.82207   -85.185746     133.0925   -112.11411   -167.82677      46.7237      46.7237      46.7237           90           90           90     102002.7      341.603 
  523000       522500   -9797.8082    1215.4889   -11013.297    4356.2363   -15369.533    127.30919    -171.8832    82.528251   -170.14467   -148.53351   -154.17156   -83.270527      46.7237      46.7237      46.7237           90           90           90     102002.7   -86.499872 
  524000       523500   -9774.1369    1225.7651   -10999.902    4367.5469   -15367.449    128.38551     215.8753    221.59666    493.43151    182.59831    223.78435   -5.4297326      46.7237      46.7237      46.7237           90           90           90     102002.7    310.30116 
  525000       524500   -9777.4559     1244.769   -11022.225    4353.6822   -15375.907    130.37596   -251.14533    82.842101    -93.63119   -198.80847    156.43227   -132.32413      46.7237      46.7237      46.7237           90           90           90     102002.7   -87.311473 
  526000       525500   -9718.2401    1248.8623   -10967.102     4393.905   -15361.007    130.80469   -136.67862    348.81267    416.17809    174.73261    19.247541   -46.705618      46.7237      46.7237      46.7237           90           90           90     102002.7    209.43738 
  527000       526500   -9746.9707    1226.6679   -10973.639    4377.9989   -15351.638    128.48007    256.59516    654.03105    162.49539    83.665988   -139.80197    41.439638      46.7237      46.7237      46.7237           90           90           90     102002.7     357.7072 
  528000       527500   -9750.6892    1215.8644   -10966.554    4394.9624   -15361.516    127.34852   -273.53328    117.79786    343.84185   -199.81744   -124.65039   -271.20041      46.7237      46.7237      46.7237           90           90           90     102002.7    62.702142 
  529000       528500   -9740.6476     1231.598   -10972.246    4367.6833   -15339.929    128.99645    190.66223    765.24673    -170.9904     149.5359    80.141751   -138.85455      46.7237      46.7237      46.7237           90           90           90     102002.7    261.63952 
  530000       529500   -9730.3689    1216.3005   -10946.669    4386.7747   -15333.444     127.3942    208.55845    868.14439    360.12137    141.31368    40.316799   -15.033532      46.7237      46.7237      46.7237           90           90           90     102002.7     478.9414 
  531000       530500   -9752.6413    1221.2988    -10973.94    4364.1217   -15338.062    127.91772    760.25312   -305.05533    291.70491    22.447138     153.6796    6.4479706      46.7237      46.7237      46.7237           90           90           90     102002.7    248.96756 
  532000       531500   -9699.2827    1273.5692   -10972.852     4379.512   -15352.364    133.39246     118.2027    511.97213    2.3519592   -265.96491    4.7277923     -33.7219      46.7237      46.7237      46.7237           90           90           90     102002.7    210.84226 
  533000       532500   -9773.2279     1214.968   -10988.196    4385.4082   -15373.604    127.25463   -18.167742    222.13421    -343.7309    113.94862    194.28821    -142.9094      46.7237      46.7237      46.7237           90           90           90     102002.7   -46.588144 
  534000       533500   -9719.4121    1266.8663   -10986.278    4357.4838   -15343.762    132.69041    255.06522   -54.825789    64.616852   -441.02301   -2.9838722    152.88589      46.7237      46.7237      46.7237           90           90           90     102002.7    88.285427 
  535000       534500   -9779.1674    1216.5139   -10995.681    4343.3519   -15339.033    127.41655    636.61082    339.92355    352.00334    -46.55206    307.66387    165.35131      46.7237      46.7237      46.7237           90           90           90     102002.7     442.8459 
  536000       535500   -9732.4492    1246.9941   -10979.443    4371.9666    -15351.41    130.60902     485.4009    595.65905     81.92201   -13.051668    -73.80476    271.34904      46.7237      46.7237      46.7237           90           90           90     102002.7    387.66065 
  537000       536500   -9734.9668    1248.9144   -10983.881    4370.9264   -15354.808    130.81015    100.68991   -198.38916   -245.61864    251.00019   -218.09754   -24.789576      46.7237      46.7237      46.7237           90           90           90     102002.7    -114.4393 
  538000       537500   -9758.5809    1216.9712   -10975.552    4366.2704   -15341.822    127.46444     156.9639    613.31362    338.52095   -90.918631    218.55076    -164.5965      46.7237      46.7237      46.7237           90           90           90     102002.7    369.59949 
  539000       538500   -9737.8147    1234.7679   -10972.583    4367.2823   -15339.865    129.32846    699.19868    326.34939   -272.61321   -307.61891   -11.671858   -117.66721      46.7237      46.7237      46.7237           90           90           90     102002.7    250.97829 
  540000       539500   -9772.7749    1239.4102   -11012.185    4365.7335   -15377.919    129.81468   -324.12916   -34.820889    52.647422   -47.070585    -78.23447    17.080099      46.7237      46.7237      46.7237           90           90           90     102002.7   -102.10088 
  541000       540500   -9788.5647    1221.3041   -11009.869    4343.6416    -15353.51    127.91827    354.03996   -149.79951    -224.4147   -56.290753    182.38377    246.48095      46.7237      46.7237      46.7237           90           90           90     102002.7   -6.7247514 
  542000       541500   -9776.5351    1250.0206   -11026.556    4350.4878   -15377.043    130.92601    280.46707    647.36063    238.24529     114.6351    20.917026    72.823541      46.7237      46.7237      46.7237           90           90           90     102002.7      388.691 
  543000       542500   -9725.1299    1256.6908   -10981.821    4369.6732   -15351.494    131.62464    62.396847    345.85656    375.89297    8.0563329   -175.55753   -390.16141      46.7237      46.7237      46.7237           90           90           90     102002.7    261.38213 
  544000       543500   -9743.4381    1254.5118    -10997.95    4357.0628   -15355.013    131.39641    92.366125    644.33348   -44.573747   -96.657425   -185.46442    280.61535      46.7237      46.7237      46.7237           90           90           90     102002.7    230.70862 
  545000       544500    -9749.427    1243.0312   -10992.458    4373.8184   -15366.277    130.19394    122.70028    536.38549   -268.18045   -245.61032    -185.9309   -133.19427      46.7237      46.7237      46.7237           90           90           90     102002.7    130.30177 
  546000       545500   -9790.8228    1214.8317   -11005.654    4357.0698   -15362.724    127.24035    47.334518   -27.119647    347.67596   -179.02543    170.37021   -57.760603      46.7237      46.7237      46.7237           90           90           90     102002.7    122.63028 
  547000       546500   -9726.5204    1264.4257   -10990.946    4358.5583   -15349.504    132.43479    649.30181    780.53011   -87.729017   -147.42193   -152.45991   -52.271904      46.7237      46.7237      46.7237           90           90           90     102002.7    447.36763 
  548000       547500   -9792.3643    1210.5438   -11002.908    4382.9415    -15385.85    126.79125    16.748992    435.41569   -176.17799    376.04276   -5.9297953   -151.50716      46.7237      46.7237      46.7237           90           90           90     102002.7    91.995565 
  549000       548500   -9740.1205    1256.0438   -10996.164    4361.7305   -15357.895    131.55687    313.18908    536.41365    245.11575    47.265218    164.47951   -40.860393      46.7237      46.7237      46.7237           90           90           90     102002.7    364.90616 
  550000       549500   -9754.0264    1219.9109   -10973.937    4381.8489   -15355.786    127.77234     95.12416    339.09531    260.21796   -26.853975    182.97143   -222.03694      46.7237      46.7237      46.7237           90           90           90     102002.7    231.47914 
  551000       550500    -9744.718    1265.2754   -11009.993    4340.9926   -15350.986    132.52378    219.73274    146.96777   -44.190003   -41.588367    268.75794    26.691294      46.7237      46.7237      46.7237           90           90           90     102002.7     107.5035 
  552000       551500    -9727.613    1255.1088   -10982.722     4372.051   -15354.773    131.45894      371.153    892.01816    238.31245    218.59266    41.190516    149.97557      46.7237      46.7237      46.7237           90           90           90     102002.7    500.49454 
  553000       552500   -9735.3997    1287.3752   -11022.775    4329.4062   -15352.181     134.8385    179.78375    598.70211    285.38485   -78.778269    285.79955   -196.11539      46.7237      46.7237      46.7237           90           90           90     102002.7    354.62357 
  554000       553500   -9757.8071    1223.4883   -10981.295     4370.126   -15351.421    128.14704    5.7482905    550.98078    425.39539   -146.21235   -359.87655    -111.1087      46.7237      46.7237      46.7237           90           90           90     102002.7    327.37482 
  555000       554500   -9766.4756    1226.4343    -10992.91    4355.7439   -15348.654     128.4556    191.13022    394.55783    550.57738     -69.2283   -11.879864   -418.38567      46.7237      46.7237      46.7237           90           90           90     102002.7    378.75514 
[...]
  936000       935500   -9730.8347    1225.1647   -10955.999    4383.7825   -15339.782    128.32262    458.46075   -174.10121    495.42333   -176.42632   -317.05456   -31.502965      46.7237      46.7237      46.7237           90           90           90     102002.7    259.92762 
  937000       936500   -9699.6633    1255.6417   -10955.305    4373.9557   -15329.261    131.51476    438.11463    355.92771    472.66434   -204.00774    5.9668055   -107.83942      46.7237      46.7237      46.7237           90           90           90     102002.7    422.23556 
  938000       937500    -9741.503    1262.8688   -11004.372    4354.2662   -15358.638    132.27172    761.50734   -171.99469    806.90565    12.176792   -237.70944    285.81101      46.7237      46.7237      46.7237           90           90           90     102002.7    465.47277 
  939000       938500   -9686.5621    1242.1111   -10928.673    4374.3669    -15303.04    130.09757    476.90465    689.52475    246.40808   -245.15749     114.4979    318.53088      46.7237      46.7237      46.7237           90           90           90     102002.7    470.94583 
  940000       939500   -9739.7571    1241.7182   -10981.475    4370.0508   -15351.526    130.05642    420.53058    130.22145   -100.58577   -124.08303   -173.00947   -339.97154      46.7237      46.7237      46.7237           90           90           90     102002.7    150.05542 
  941000       940500   -9776.8619    1228.0811   -11004.943    4336.8208   -15341.764    128.62809    45.079231   -33.019803    366.42253   -171.77353   -127.12906   -48.842155      46.7237      46.7237      46.7237           90           90           90     102002.7    126.16065 
  942000       941500   -9737.3914    1245.4946   -10982.886    4372.9057   -15355.792    130.45196    170.90367    344.77617    131.16016   -31.341422    130.61294    34.109583      46.7237      46.7237      46.7237           90           90           90     102002.7    215.61333 
  943000       942500   -9729.0787    1245.4459   -10974.525    4374.2268   -15348.751    130.44685    404.16353   -57.198425    260.80805    267.59046    37.695195   -129.36214      46.7237      46.7237      46.7237           90           90           90     102002.7    202.59105 
  944000       943500   -9772.9644    1213.1427   -10986.107    4356.5023   -15342.609    127.06345   -46.337409   -316.96705    245.13955     8.652827   -317.71651    159.10809      46.7237      46.7237      46.7237           90           90           90     102002.7   -39.388304 
  945000       944500   -9718.1658    1242.7581   -10960.924    4356.1237   -15317.048    130.16534    321.19112    441.61945    755.41675   -332.28173     93.64917   -84.703304      46.7237      46.7237      46.7237           90           90           90     102002.7    506.07577 
  946000       945500   -9741.4648    1237.6499   -10979.115     4347.511   -15326.626    129.63031    389.91515     246.7983    517.58798   -19.796912    69.257683    111.33793      46.7237      46.7237      46.7237           90           90           90     102002.7    384.76714 
  947000       946500   -9758.1457    1229.6465   -10987.792    4352.0857   -15339.878    128.79204    106.29255    529.32984    476.26598   -105.20486    64.918518    7.9324386      46.7237      46.7237      46.7237           90           90           90     102002.7    370.62946 
  948000       947500   -9756.3985    1232.2675   -10988.666    4364.0663   -15352.732    129.06656    147.10447    196.11164    70.448574    78.517022   -193.01733   -188.68605      46.7237      46.7237      46.7237           90           90           90     102002.7    137.88823 
  949000       948500   -9715.3126    1285.0942   -11000.407    4362.9433    -15363.35    134.59959   -13.310751    541.73426     123.4194     44.97661   -79.138052    -14.74493      46.7237      46.7237      46.7237           90           90           90     102002.7    217.28097 
  950000       949500   -9751.7592    1209.1383   -10960.898    4366.0131   -15326.911    126.64404   -1.2157388    591.17251    412.98495    96.964056    202.58741   -342.84827      46.7237      46.7237      46.7237           90           90           90     102002.7    334.31391 
  951000       950500   -9745.6194    1249.4451   -10995.064    4368.2465   -15363.311    130.86573   -89.612854    305.86529    202.36326     234.4867    2.4730796   -4.8623966      46.7237      46.7237      46.7237           90           90           90     102002.7    139.53857 
  952000       951500   -9725.5239    1251.6751   -10977.199    4361.4067   -15338.606     131.0993    589.12568    302.94913    44.546476     64.11066  -0.91494253   -117.41963      46.7237      46.7237      46.7237           90           90           90     102002.7     312.2071 
  953000       952500   -9760.7396    1246.7669   -11007.506     4345.265   -15352.771    130.58522   -131.42797    367.31473    -16.06567    71.780163    180.75149    165.99538      46.7237      46.7237      46.7237           90           90           90     102002.7    73.273696 
  954000       953500   -9758.7397    1238.0498    -10996.79    4335.8416   -15332.631     129.6722    363.96532     371.3022    515.03098    220.52229    144.18479   -176.52589      46.7237      46.7237      46.7237           90           90           90     102002.7    416.76617 
  955000       954500    -9795.126    1218.9687   -11014.095    4330.3019   -15344.397    127.67366    176.30415    504.00417    585.57289   -113.11511    169.03469   -88.577932      46.7237      46.7237      46.7237           90           90           90     102002.7     421.9604 
  956000       955500   -9762.2275    1229.2007   -10991.428    4341.9432   -15333.372    128.74536    580.42124    544.40711     367.6052     292.0606   -87.459677    168.37524      46.7237      46.7237      46.7237           90           90           90     102002.7    497.47785 
  957000       956500   -9741.3714    1239.9737   -10981.345     4347.131   -15328.476     129.8737    460.12893    521.91079    291.06742   -234.20083   -100.59563    183.25054      46.7237      46.7237      46.7237           90           90           90     102002.7    424.36904 
  958000       957500   -9735.3544    1218.4032   -10953.758    4381.9818   -15335.739    127.61443    178.26377    460.39456    440.33957    18.949888   -63.073312   -103.91947      46.7237      46.7237      46.7237           90           90           90     102002.7    359.66597 
  959000       958500   -9754.3493     1230.676   -10985.025    4359.9408   -15344.966    128.89987    261.02885    239.72603    247.72367   -59.768321   -78.118386    47.081623      46.7237      46.7237      46.7237           90           90           90     102002.7    249.49285 
  960000       959500   -9761.9734    1243.5595   -11005.533    4360.0598   -15365.593    130.24927    459.79923    161.15386    965.79403    6.0737109   -150.44583   -47.554226      46.7237      46.7237      46.7237           90           90           90     102002.7    528.91571 
  961000       960500   -9707.1492    1254.6392   -10961.788    4380.7253   -15342.514    131.40976    659.56437    35.934477    603.92865   -208.78535    118.41761   -57.323999      46.7237      46.7237      46.7237           90           90           90     102002.7     433.1425 
  962000       961500   -9732.2051     1277.282   -11009.487     4349.507   -15358.994    133.78135   -157.58143    105.62252    524.25894    105.20262    -62.86925    398.90936      46.7237      46.7237      46.7237           90           90           90     102002.7    157.43334 
  963000       962500   -9714.6303    1265.2857   -10979.916    4371.0882   -15351.004    132.52486    205.90689    588.95831   -290.15541    147.00594   -134.78202   -145.24947      46.7237      46.7237      46.7237           90           90           90     102002.7     168.2366 
  964000       963500   -9727.5177    1246.1308   -10973.648     4373.027   -15346.675     130.5186    266.76554    144.16289    417.66615   -93.702258   -221.87948    239.13839      46.7237      46.7237      46.7237           90           90           90     102002.7    276.19819 
  965000       964500   -9778.8506    1232.6431   -11011.494    4352.7078   -15364.201     129.1059    332.11675   -115.87096   -91.628213   -48.234395     15.82323    58.484223      46.7237      46.7237      46.7237           90           90           90     102002.7    41.539191 
  966000       965500   -9769.2605    1231.5258   -11000.786    4341.9351   -15342.721    128.98888    955.45509   -40.781285    720.83775    99.589292    -91.65542    170.22235      46.7237      46.7237      46.7237           90           90           90     102002.7    545.17052 
  967000       966500   -9749.5744    1230.3788   -10979.953    4363.8491   -15343.802    128.86874    12.228712    426.46165    618.91736   -118.76343   -102.40389    -206.8321      46.7237      46.7237      46.7237           90           90           90     102002.7    352.53591 
  968000       967500   -9702.7841    1277.4951   -10980.279    4374.5271   -15354.806    133.80366    646.30839   -213.86796   -291.18145   -96.699175    12.593431    -267.4249      46.7237      46.7237      46.7237           90           90           90     102002.7    47.086328 
  969000       968500   -9738.6546    1250.2013   -10988.856    4355.1832   -15344.039    130.94494    81.680443    655.36904    579.03462   -100.71394    136.95614   -10.067997      46.7237      46.7237      46.7237           90           90           90     102002.7     438.6947 
  970000       969500   -9743.6678    1240.1376   -10983.805    4345.1856   -15328.991    129.89087    322.68121    882.30491    469.51368   -98.757682   -34.488633    296.75083      46.7237      46.7237      46.7237           90           90           90     102002.7     558.1666 
  971000       970500   -9760.2472    1254.5301   -11014.777    4347.5985   -15362.376    131.39833    385.27388    367.26539    146.21703    59.911246    169.38322    159.06646      46.7237      46.7237      46.7237           90           90           90     102002.7    299.58543 
  972000       971500   -9747.6724    1252.1744   -10999.847    4355.1766   -15355.023     131.1516    491.35221   -483.18515     73.87344   -294.35482   -65.491391    30.952513      46.7237      46.7237      46.7237           90           90           90     102002.7    27.346835 
  973000       972500   -9713.2887    1243.0042   -10956.293    4376.2817   -15332.575    130.19112    453.82821    689.23376    268.25696   -189.15008    350.75338    184.77302      46.7237      46.7237      46.7237           90           90           90     102002.7    470.43964 
  974000       973500   -9747.8745    1228.5779   -10976.452    4372.5229   -15348.975    128.68012    85.516743    76.933182    74.402336   -204.77882    25.008787    23.348635      46.7237      46.7237      46.7237           90           90           90     102002.7    78.950754 
  975000       974500   -9705.3538    1254.9664    -10960.32     4383.885   -15344.205    131.44402    330.51322   -270.56939    130.01543    94.197588   -14.046444   -201.23928      46.7237      46.7237      46.7237           90           90           90     102002.7    63.319754 
  976000       975500   -9752.7424    1234.7242   -10987.467    4374.0122   -15361.479    129.32388   -139.61498    198.64059      64.1331   0.91531526      207.006    134.39169      46.7237      46.7237      46.7237           90           90           90     102002.7    41.052903 
  977000       976500   -9775.1812    1231.1036   -11006.285    4353.0179   -15359.303    128.94466    231.77321   -58.715406   -109.86206    39.463152    89.380093    73.838537      46.7237      46.7237      46.7237           90           90           90     102002.7    21.065247 
  978000       977500   -9741.6106     1241.543   -10983.154    4358.9481   -15342.102    130.03807   -113.27994    620.05644    243.64343   -163.52434    223.95117   -4.4828388      46.7237      46.7237      46.7237           90           90           90     102002.7    250.13997 
  979000       978500    -9720.233    1251.0547   -10971.288    4364.4749   -15335.763    131.03432   -97.039455    284.84443     234.0064   -150.82942   -122.57226    182.46027      46.7237      46.7237      46.7237           90           90           90     102002.7    140.60379 
  980000       979500   -9713.6043    1261.3854    -10974.99    4358.4853   -15333.475    132.11635    60.751374     336.2842   -36.400313   -92.267311   -147.44151    95.065708      46.7237      46.7237      46.7237           90           90           90     102002.7    120.21175 
  981000       980500   -9737.2665     1248.788   -10986.055    4372.9093   -15358.964    130.79691    62.493883    603.65576    199.76527    18.595124    64.842846   -69.941167      46.7237      46.7237      46.7237           90           90           90     102002.7    288.63831 
  982000       981500   -9728.0882     1234.377   -10962.465    4380.0082   -15342.473    129.28751    407.03656     -42.3533    582.66175     90.95289     403.3183    250.23788      46.7237      46.7237      46.7237           90           90           90     102002.7    315.78167 
  983000       982500   -9755.9049    1231.3961   -10987.301    4352.4384   -15339.739     128.9753    -231.8044     348.0046    84.277461    117.93755   -81.452627    163.08285      46.7237      46.7237      46.7237           90           90           90     102002.7    66.825887 
  984000       983500   -9734.4114     1247.338   -10981.749    4373.9337   -15355.683    130.64504    337.85236    457.73121    298.23748   -58.176405    101.00317    34.344219      46.7237      46.7237      46.7237           90           90           90     102002.7    364.60702 
  985000       984500   -9736.7039    1228.6818   -10965.386    4371.4411   -15336.827    128.69101    843.85689    570.10292   -46.590533   -75.424869   -1.7870212    57.823168      46.7237      46.7237      46.7237           90           90           90     102002.7    455.78976 
  986000       985500   -9730.3438     1248.662   -10979.006     4379.455   -15358.461    130.78371    576.85875    659.22956    597.24126   -159.23692   -101.76749   -19.945233      46.7237      46.7237      46.7237           90           90           90     102002.7    611.10986 
  987000       986500   -9767.5835    1233.5686   -11001.152     4379.711   -15380.863    129.20285    452.19855     123.6283   -229.82866   -183.04504    19.611391     85.33613      46.7237      46.7237      46.7237           90           90           90     102002.7    115.33273 
  988000       987500   -9806.9713    1199.1485    -11006.12    4355.3905    -15361.51    125.59771   -126.30756   -23.160849    136.50877    364.21663    141.21408    7.4900059      46.7237      46.7237      46.7237           90           90           90     102002.7   -4.3198786 
  989000       988500   -9745.7742     1234.205   -10979.979    4359.3779   -15339.357     129.2695    306.38345    304.71326    726.43163   -76.186981   -42.324146    237.23616      46.7237      46.7237      46.7237           90           90           90     102002.7    445.84278 
  990000       989500   -9752.7192     1247.366   -11000.085     4343.287   -15343.372    130.64797    361.20063    776.36265    327.75117    306.37175    139.87674   -71.297992      46.7237      46.7237      46.7237           90           90           90     102002.7    488.43815 
  991000       990500   -9693.0634    1275.7987   -10968.862    4380.6835   -15349.546    133.62598    361.62807     486.1344     113.6598    26.008227   -31.749642    192.29845      46.7237      46.7237      46.7237           90           90           90     102002.7    320.47409 
  992000       991500   -9738.6809     1243.805   -10982.486     4349.923   -15332.409      130.275    266.78458   -28.363078    767.48827     92.49986    36.418137     59.41919      46.7237      46.7237      46.7237           90           90           90     102002.7    335.30326 
  993000       992500   -9743.6191    1227.6342   -10971.253    4370.7649   -15342.018    128.58128    22.378738    103.10811    26.373805    60.945881    309.95589   -4.5672242      46.7237      46.7237      46.7237           90           90           90     102002.7    50.620217 
  994000       993500   -9746.8477    1247.4352   -10994.283    4346.3159   -15340.599    130.65521    120.45261    352.57742   -110.39993    2.7075517    79.154791   -100.38807      46.7237      46.7237      46.7237           90           90           90     102002.7     120.8767 
  995000       994500   -9735.4747    1225.9153    -10961.39    4332.7903    -15294.18    128.40124    642.01504    1006.3815    243.82135    83.420319    111.06559   -77.955133      46.7237      46.7237      46.7237           90           90           90     102002.7     630.7393 
  996000       995500   -9698.2608    1267.8926   -10966.153    4373.6152   -15339.769     132.7979    437.55574   -16.244494    204.34143   -211.39396   -130.48071   -12.032309      46.7237      46.7237      46.7237           90           90           90     102002.7    208.55089 
  997000       996500   -9766.8589    1239.8652   -11006.724    4349.6289   -15356.353    129.86234    229.68906   -553.40397   -354.26419    146.25632    104.39227    -148.1065      46.7237      46.7237      46.7237           90           90           90     102002.7   -225.99303 
  998000       997500   -9762.1395    1236.0347   -10998.174    4356.6492   -15354.823    129.46114    88.991932    109.44233    638.04549    -5.654736   -169.60059    333.38026      46.7237      46.7237      46.7237           90           90           90     102002.7    278.82658 
  999000       998500   -9753.5002    1221.0026   -10974.503    4352.7671    -15327.27    127.88669    403.96659   -112.06948   -121.66021     272.5654    125.92084   -180.08597      46.7237      46.7237      46.7237           90           90           90     102002.7    56.745631 
 1000000       999500   -9725.7798    1258.1334   -10983.913    4362.9365    -15346.85    131.77574    399.05554    77.385631    60.598467    97.009904    25.680727    9.2521963      46.7237      46.7237      46.7237           90           90           90     102002.7    179.01321 
 1000500      1000000   -9753.6245    1239.3482   -10992.973    4365.0921   -15358.065    129.80819    400.31797    319.92374   -355.80269    69.040394     -141.488   -120.08351      46.7237      46.7237      46.7237           90           90           90     102002.7    121.47967 
Loop time of 2176.6 on 16 procs for 500000 steps with 3204 atoms

Performance: 19.847 ns/day, 1.209 hours/ns, 229.716 timesteps/s
99.9% CPU use with 16 MPI tasks x no OpenMP threads

MPI task timing breakdown:
Section |  min time  |  avg time  |  max time  |%varavg| %total
---------------------------------------------------------------
Pair    | 1318.5     | 1470.5     | 1640.8     | 244.6 | 67.56
Bond    | 140.9      | 183.97     | 221.88     | 206.8 |  8.45
Neigh   | 17.639     | 17.732     | 17.813     |   1.7 |  0.81
Comm    | 308.58     | 472.73     | 606.29     | 448.1 | 21.72
Output  | 0.12968    | 0.13766    | 0.13843    |   0.6 |  0.01
Modify  | 23.628     | 24.697     | 25.541     |  13.4 |  1.13
Other   |            | 6.819      |            |       |  0.31

Nlocal:    200.25 ave 229 max 170 min
Histogram: 3 2 1 0 1 2 0 2 3 2
Nghost:    4087.5 ave 4121 max 4055 min
Histogram: 2 0 1 2 3 4 2 0 0 2
Neighs:    11473.1 ave 13831 max 9786 min
Histogram: 1 4 2 2 1 1 2 1 1 1

Total # of neighbors = 183569
Ave neighs/atom = 57.2937
Ave special neighs/atom = 3.59551
Neighbor list builds = 5110
Dangerous builds = 0
Total wall time: 1:06:54
