LAMMPS (30 Mar 2018)
Reading data file ...
  orthogonal box = (0 0 0) to (46.7237 46.7237 46.7237)
  2 by 2 by 4 MPI processor grid
  reading atoms ...
  1729 atoms
  scanning bonds ...
  5 = max bonds/atom
  scanning angles ...
  10 = max angles/atom
  scanning dihedrals ...
  32 = max dihedrals/atom
  scanning impropers ...
  3 = max impropers/atom
  reading bonds ...
  2064 bonds
  reading angles ...
  3696 angles
  reading dihedrals ...
  6240 dihedrals
  reading impropers ...
  1008 impropers
Finding 1-2 1-3 1-4 neighbors ...
  special bond factors lj:   0          0          0         
  special bond factors coul: 0          0          0         
  5 = max # of 1-2 neighbors
  8 = max # of 1-3 neighbors
  20 = max # of 1-4 neighbors
  19 = max # of special neighbors
Finding 1-2 1-3 1-4 neighbors ...
  special bond factors lj:   0          0          1         
  special bond factors coul: 1          1          1         
  5 = max # of 1-2 neighbors
  8 = max # of 1-3 neighbors
  19 = max # of special neighbors
WARNING: Using 'neigh_modify every 1 delay 0 check yes' setting during minimization (../min.cpp:168)
Neighbor list info ...
  update every 1 steps, delay 0 steps, check yes
  max neighbors/atom: 2000, page size: 100000
  master list distance cutoff = 16
  ghost atom cutoff = 16
  binsize = 8, bins = 6 6 6
  3 neighbor lists, perpetual/occasional/extra = 3 0 0
  (1) pair buck6d/coul/gauss/dsf, perpetual, skip from (3)
      attributes: half, newton on
      pair build: skip
      stencil: none
      bin: none
  (2) pair lj/cut, perpetual, skip from (3)
      attributes: half, newton on
      pair build: skip
      stencil: none
      bin: none
  (3) neighbor class addition, perpetual
      attributes: half, newton on
      pair build: half/bin/newton
      stencil: half/bin/3d/newton
      bin: standard
Setting up cg style minimization ...
  Unit style    : real
  Current step  : 0
WARNING: Inconsistent image flags (../domain.cpp:786)
Per MPI rank memory allocation (min/avg/max) = 22.89 | 23.35 | 23.79 Mbytes
Step Temp E_pair E_mol TotEng Press 
       0            0   -11516.271    6482.8914   -5033.3798    6290.4301 
     501            0   -11536.191    3742.5001   -7793.6913   -513.70002 
Loop time of 2.75495 on 16 procs for 501 steps with 1729 atoms

99.8% CPU use with 16 MPI tasks x no OpenMP threads

Minimization stats:
  Stopping criterion = max force evaluations
  Energy initial, next-to-last, final = 
        -5033.37975084     -7793.54689916     -7793.69132122
  Force two-norm initial, final = 2576.99 17.3709
  Force max component initial, final = 151.964 2.32262
  Final line search alpha, max atom move = 0.00399706 0.00928363
  Iterations, force evaluations = 501 1000

MPI task timing breakdown:
Section |  min time  |  avg time  |  max time  |%varavg| %total
---------------------------------------------------------------
Pair    | 1.3455     | 1.5695     | 1.9012     |  12.3 | 56.97
Bond    | 0.30783    | 0.36238    | 0.42885    |   6.4 | 13.15
Neigh   | 0.022204   | 0.022358   | 0.022487   |   0.1 |  0.81
Comm    | 0.43257    | 0.75758    | 0.94326    |  15.3 | 27.50
Output  | 0          | 0          | 0          |   0.0 |  0.00
Modify  | 0          | 0          | 0          |   0.0 |  0.00
Other   |            | 0.04312    |            |       |  1.57

Nlocal:    108.062 ave 119 max 96 min
Histogram: 2 1 1 3 0 1 3 1 1 3
Nghost:    2184.94 ave 2198 max 2174 min
Histogram: 2 2 2 1 2 0 3 2 1 1
Neighs:    11434.8 ave 14932 max 7340 min
Histogram: 1 2 1 2 2 0 2 1 4 1

Total # of neighbors = 182957
Ave neighs/atom = 105.817
Ave special neighs/atom = 6.66281
Neighbor list builds = 19
Dangerous builds = 0
Neighbor list info ...
  update every 1 steps, delay 10 steps, check yes
  max neighbors/atom: 2000, page size: 100000
  master list distance cutoff = 16
  ghost atom cutoff = 16
  binsize = 8, bins = 6 6 6
  3 neighbor lists, perpetual/occasional/extra = 3 0 0
  (1) pair buck6d/coul/gauss/dsf, perpetual, skip from (3)
      attributes: half, newton on
      pair build: skip
      stencil: none
      bin: none
  (2) pair lj/cut, perpetual, skip from (3)
      attributes: half, newton on
      pair build: skip
      stencil: none
      bin: none
  (3) neighbor class addition, perpetual
      attributes: half, newton on
      pair build: half/bin/newton
      stencil: half/bin/3d/newton
      bin: standard
Setting up Verlet run ...
  Unit style    : real
  Current step  : 501
  Time step     : 1
WARNING: Inconsistent image flags (../domain.cpp:786)
Per MPI rank memory allocation (min/avg/max) = 22.54 | 22.61 | 22.85 Mbytes
Step Temp PotEng TotEng Press Volume Lx Ly Lz 
     501          130   -7793.6913   -7124.0822   -213.61621     102002.7      46.7237      46.7237      46.7237 
    1000    112.52535   -7182.5609   -6602.9608   -707.16113     102002.7      46.7237      46.7237      46.7237 
    2000    136.17743   -7125.4197   -6423.9916   -725.81483     102002.7      46.7237      46.7237      46.7237 
    3000    122.73573   -7090.9839   -6458.7918   -937.25892     102002.7      46.7237      46.7237      46.7237 
    4000    127.43484   -7115.3628   -6458.9663    -588.7713     102002.7      46.7237      46.7237      46.7237 
    5000    131.25553   -7113.8288   -6437.7526   -860.11067     102002.7      46.7237      46.7237      46.7237 
    6000    127.66253   -7138.0368   -6480.4675   -551.90543     102002.7      46.7237      46.7237      46.7237 
    7000    131.88664   -7136.4695   -6457.1426   -699.66992     102002.7      46.7237      46.7237      46.7237 
    8000    129.54032   -7111.3265   -6444.0851   -846.38238     102002.7      46.7237      46.7237      46.7237 
    9000    124.73867   -7113.0844   -6470.5754   -687.12965     102002.7      46.7237      46.7237      46.7237 
   10000    129.65261   -7124.3308   -6456.5109   -960.65481     102002.7      46.7237      46.7237      46.7237 
   11000    130.83871    -7095.023   -6421.0937   -785.68044     102002.7      46.7237      46.7237      46.7237 
   12000    126.12529   -7106.7541    -6457.103   -839.28418     102002.7      46.7237      46.7237      46.7237 
   13000     128.8974   -7130.0293   -6466.0995   -759.52775     102002.7      46.7237      46.7237      46.7237 
   14000    133.92094   -7127.5517   -6437.7464     -917.018     102002.7      46.7237      46.7237      46.7237 
   15000    122.47298     -7116.35   -6485.5113   -561.88292     102002.7      46.7237      46.7237      46.7237 
   16000    135.15392    -7120.804   -6424.6478   -589.77317     102002.7      46.7237      46.7237      46.7237 
   17000    131.14012   -7106.0916   -6430.6098   -834.47258     102002.7      46.7237      46.7237      46.7237 
   18000     127.2818   -7118.8068   -6463.1986   -640.52512     102002.7      46.7237      46.7237      46.7237 
   19000    130.87596    -7110.088   -6435.9669   -694.43174     102002.7      46.7237      46.7237      46.7237 
   20000    125.54678   -7141.7656   -6495.0942   -843.48795     102002.7      46.7237      46.7237      46.7237 
   21000    133.70215   -7111.5965   -6422.9182   -546.73055     102002.7      46.7237      46.7237      46.7237 
   22000    130.29538   -7111.3139   -6440.1832   -570.47996     102002.7      46.7237      46.7237      46.7237 
   23000    136.35031   -7116.7692   -6414.4506   -581.80741     102002.7      46.7237      46.7237      46.7237 
   24000     128.7421   -7122.5517   -6459.4217   -613.27078     102002.7      46.7237      46.7237      46.7237 
   25000    129.19515   -7114.3328   -6448.8693   -806.06294     102002.7      46.7237      46.7237      46.7237 
   26000    125.17826   -7126.6006   -6481.8274   -452.20297     102002.7      46.7237      46.7237      46.7237 
   27000    130.90227   -7118.2684   -6444.0118   -603.34055     102002.7      46.7237      46.7237      46.7237 
   28000    131.14271   -7139.2981    -6463.803   -639.39694     102002.7      46.7237      46.7237      46.7237 
   29000    132.98428   -7130.2733   -6445.2926   -563.64451     102002.7      46.7237      46.7237      46.7237 
   30000    131.58446   -7113.2799   -6435.5094   -633.56316     102002.7      46.7237      46.7237      46.7237 
   31000    126.34152   -7104.4053   -6453.6403   -842.48117     102002.7      46.7237      46.7237      46.7237 
   32000    133.62193    -7141.742   -6453.4768   -620.17008     102002.7      46.7237      46.7237      46.7237 
   33000    131.32141   -7110.3997   -6433.9842   -657.72505     102002.7      46.7237      46.7237      46.7237 
   34000    128.67281   -7124.7388   -6461.9658   -857.63242     102002.7      46.7237      46.7237      46.7237 
   35000    130.49082   -7121.3518   -6449.2145   -739.91854     102002.7      46.7237      46.7237      46.7237 
   36000    133.92045    -7132.858   -6443.0552   -781.47612     102002.7      46.7237      46.7237      46.7237 
   37000     131.0003   -7108.3336   -6433.5721    -892.7103     102002.7      46.7237      46.7237      46.7237 
   38000    126.86715    -7110.647   -6457.1746   -954.99624     102002.7      46.7237      46.7237      46.7237 
   39000    129.48282   -7109.5247   -6442.5794    -880.9545     102002.7      46.7237      46.7237      46.7237 
   40000    126.40311   -7138.4314   -6487.3492   -875.91523     102002.7      46.7237      46.7237      46.7237 
   41000    126.74951   -7097.4165   -6444.5501   -849.27864     102002.7      46.7237      46.7237      46.7237 
   42000    133.22464   -7109.4524   -6423.2336   -689.52403     102002.7      46.7237      46.7237      46.7237 
   43000    129.36256   -7119.8981   -6453.5722   -626.25336     102002.7      46.7237      46.7237      46.7237 
   44000    130.70667   -7108.3599   -6435.1107    -718.8008     102002.7      46.7237      46.7237      46.7237 
   45000    128.11234   -7123.3636   -6463.4775   -973.26406     102002.7      46.7237      46.7237      46.7237 
   46000    132.06663   -7109.9775   -6429.7234   -970.40655     102002.7      46.7237      46.7237      46.7237 
   47000    130.98024   -7141.6861   -6467.0279   -326.11591     102002.7      46.7237      46.7237      46.7237 
   48000    128.67551   -7124.7716   -6461.9847   -941.91282     102002.7      46.7237      46.7237      46.7237 
   49000     131.4877   -7105.3967   -6428.1246   -713.43477     102002.7      46.7237      46.7237      46.7237 
   50000    126.88654   -7117.1239   -6463.5517   -841.10136     102002.7      46.7237      46.7237      46.7237 
   51000    128.95764   -7111.9239   -6447.6837    -749.6631     102002.7      46.7237      46.7237      46.7237 
   52000    127.79023   -7114.6362   -6456.4092   -932.12022     102002.7      46.7237      46.7237      46.7237 
   53000    131.82539   -7094.8875   -6415.8761   -1013.5792     102002.7      46.7237      46.7237      46.7237 
   54000    129.54514   -7119.5431   -6452.2769   -817.51787     102002.7      46.7237      46.7237      46.7237 
   55000    125.77894   -7104.8489   -6456.9818   -950.15477     102002.7      46.7237      46.7237      46.7237 
   56000    134.18193   -7115.0463   -6423.8967   -923.92775     102002.7      46.7237      46.7237      46.7237 
   57000    134.08612   -7124.7024   -6434.0463   -607.13658     102002.7      46.7237      46.7237      46.7237 
   58000    126.18144   -7129.2794    -6479.339   -650.82722     102002.7      46.7237      46.7237      46.7237 
   59000    128.91484   -7131.2901   -6467.2704   -759.65602     102002.7      46.7237      46.7237      46.7237 
   60000    128.19573    -7132.438   -6472.1223   -786.21928     102002.7      46.7237      46.7237      46.7237 
   61000    138.18369   -7095.5619   -6383.7998   -638.66887     102002.7      46.7237      46.7237      46.7237 
   62000    127.02961   -7104.8295   -6450.5203   -679.28858     102002.7      46.7237      46.7237      46.7237 
   63000    132.98316    -7124.557    -6439.582   -717.71081     102002.7      46.7237      46.7237      46.7237 
   64000    130.94973   -7141.1351    -6466.634   -852.88782     102002.7      46.7237      46.7237      46.7237 
   65000    126.55645   -7135.7128   -6483.8408   -729.60768     102002.7      46.7237      46.7237      46.7237 
   66000    129.10832   -7102.4136   -6437.3974   -860.82948     102002.7      46.7237      46.7237      46.7237 
   67000    128.11704   -7124.8096   -6464.8993   -898.32447     102002.7      46.7237      46.7237      46.7237 
   68000    131.32346   -7110.8655   -6434.4394   -1204.5021     102002.7      46.7237      46.7237      46.7237 
   69000     126.8687   -7113.0346   -6459.5542   -875.25398     102002.7      46.7237      46.7237      46.7237 
   70000    129.66507   -7115.2141   -6447.3301   -883.21909     102002.7      46.7237      46.7237      46.7237 
   71000    128.93895   -7125.4096   -6461.2657   -954.21851     102002.7      46.7237      46.7237      46.7237 
   72000    127.90056   -7114.0606   -6455.2654   -627.49622     102002.7      46.7237      46.7237      46.7237 
   73000    130.85206   -7128.6718   -6454.6738   -502.51671     102002.7      46.7237      46.7237      46.7237 
   74000    124.98165    -7090.137   -6446.3765   -773.98305     102002.7      46.7237      46.7237      46.7237 
   75000    128.65757   -7128.9553   -6466.2608   -657.81968     102002.7      46.7237      46.7237      46.7237 
   76000    128.98213   -7133.6426   -6469.2763    -393.3324     102002.7      46.7237      46.7237      46.7237 
   77000    135.44354   -7130.0085   -6432.3605    -744.6905     102002.7      46.7237      46.7237      46.7237 
   78000    129.27321   -7130.1468   -6464.2812   -752.38214     102002.7      46.7237      46.7237      46.7237 
   79000    128.37723   -7090.9924   -6429.7418   -832.25473     102002.7      46.7237      46.7237      46.7237 
   80000    131.17716   -7095.3747   -6419.7022   -779.30033     102002.7      46.7237      46.7237      46.7237 
   81000    129.08252   -7117.3399   -6452.4565   -689.47695     102002.7      46.7237      46.7237      46.7237 
   82000    131.14052   -7107.5359   -6432.0522   -625.47058     102002.7      46.7237      46.7237      46.7237 
   83000    130.64956   -7135.8549      -6462.9   -728.57898     102002.7      46.7237      46.7237      46.7237 
   84000    132.35044   -7110.1001   -6428.3842   -769.27111     102002.7      46.7237      46.7237      46.7237 
   85000    132.18076   -7117.0769   -6436.2349   -877.48441     102002.7      46.7237      46.7237      46.7237 
   86000    130.96646   -7130.5283    -6455.941   -993.84724     102002.7      46.7237      46.7237      46.7237 
   87000    131.15797   -7106.5488   -6430.9751   -1003.4514     102002.7      46.7237      46.7237      46.7237 
   88000    129.07699   -7126.8355   -6461.9807   -869.92866     102002.7      46.7237      46.7237      46.7237 
   89000    130.90068    -7117.124   -6442.8756    -660.5584     102002.7      46.7237      46.7237      46.7237 
   90000    127.73991   -7119.8741   -6461.9063     -898.219     102002.7      46.7237      46.7237      46.7237 
   91000     133.8371   -7107.3612   -6417.9877   -432.27914     102002.7      46.7237      46.7237      46.7237 
   92000    129.60875   -7106.0385   -6438.4445   -671.93443     102002.7      46.7237      46.7237      46.7237 
   93000    129.97272   -7128.8359   -6459.3673   -767.66054     102002.7      46.7237      46.7237      46.7237 
   94000    135.12278   -7102.6315   -6406.6357   -666.99103     102002.7      46.7237      46.7237      46.7237 
   95000    125.79216   -7110.7678   -6462.8325   -793.12522     102002.7      46.7237      46.7237      46.7237 
   96000    125.76039   -7132.7273   -6484.9557   -448.73413     102002.7      46.7237      46.7237      46.7237 
   97000    131.82239    -7120.074    -6441.078   -956.32568     102002.7      46.7237      46.7237      46.7237 
   98000    128.70799   -7139.4604   -6476.5062   -765.31721     102002.7      46.7237      46.7237      46.7237 
   99000    130.54055   -7120.6318   -6448.2383   -511.97582     102002.7      46.7237      46.7237      46.7237 
  100000    131.04849   -7143.3244   -6468.3146   -1006.1936     102002.7      46.7237      46.7237      46.7237 
  101000    130.24629   -7107.0664   -6436.1886   -725.64946     102002.7      46.7237      46.7237      46.7237 
  102000    128.21618   -7133.4895   -6473.0685   -762.06858     102002.7      46.7237      46.7237      46.7237 
  103000    128.62797   -7115.2698   -6452.7277   -443.75355     102002.7      46.7237      46.7237      46.7237 
  104000      129.053    -7119.324   -6454.5927   -823.90902     102002.7      46.7237      46.7237      46.7237 
  105000    134.74997   -7084.1737   -6390.0982   -580.13219     102002.7      46.7237      46.7237      46.7237 
  106000    128.98569   -7126.8785   -6462.4939    -641.4113     102002.7      46.7237      46.7237      46.7237 
  107000    132.10452   -7117.1237   -6436.6744   -656.13627     102002.7      46.7237      46.7237      46.7237 
  108000    125.70302   -7101.3397   -6453.8635   -868.37247     102002.7      46.7237      46.7237      46.7237 
  109000    126.25714   -7115.7992   -6465.4689   -919.73674     102002.7      46.7237      46.7237      46.7237 
  110000    132.76021     -7129.82   -6445.9934   -810.72289     102002.7      46.7237      46.7237      46.7237 
  111000    131.44463   -7112.0802     -6435.03   -791.57995     102002.7      46.7237      46.7237      46.7237 
  112000    130.10123   -7132.8118   -6462.6812   -843.48575     102002.7      46.7237      46.7237      46.7237 
  113000    130.12571   -7136.7779   -6466.5212    -863.0539     102002.7      46.7237      46.7237      46.7237 
  114000    131.71792   -7111.2946   -6432.8367   -722.67692     102002.7      46.7237      46.7237      46.7237 
  115000    126.28743   -7142.4707   -6491.9844   -1150.4756     102002.7      46.7237      46.7237      46.7237 
  116000    126.69226    -7119.069   -6466.4975   -851.03901     102002.7      46.7237      46.7237      46.7237 
  117000    126.39848   -7099.3638   -6448.3054   -834.27599     102002.7      46.7237      46.7237      46.7237 
  118000    130.07321   -7122.9964   -6453.0101   -838.32352     102002.7      46.7237      46.7237      46.7237 
  119000    130.19428   -7112.5066   -6441.8967   -592.36453     102002.7      46.7237      46.7237      46.7237 
  120000     130.6468   -7138.0163   -6465.0756   -531.68349     102002.7      46.7237      46.7237      46.7237 
  121000    133.81721   -7118.6573   -6429.3862   -652.72533     102002.7      46.7237      46.7237      46.7237 
  122000    129.35887   -7131.3467   -6465.0399   -397.10826     102002.7      46.7237      46.7237      46.7237 
  123000    131.27154   -7104.5611   -6428.4024   -959.92908     102002.7      46.7237      46.7237      46.7237 
  124000    132.55363   -7128.5092   -6445.7467   -613.38989     102002.7      46.7237      46.7237      46.7237 
  125000    132.61047   -7108.6723   -6425.6171   -545.55672     102002.7      46.7237      46.7237      46.7237 
  126000    131.10838   -7115.2281   -6439.9099   -519.19887     102002.7      46.7237      46.7237      46.7237 
  127000    129.01368   -7133.6596   -6469.1307   -582.69089     102002.7      46.7237      46.7237      46.7237 
  128000    124.91436   -7125.1524   -6481.7385   -935.15036     102002.7      46.7237      46.7237      46.7237 
  129000    131.18263   -7114.6743   -6438.9736   -900.64568     102002.7      46.7237      46.7237      46.7237 
  130000    129.73641   -7112.1043   -6443.8528   -1237.4191     102002.7      46.7237      46.7237      46.7237 
  131000     131.8943   -7137.2289   -6457.8625   -576.80413     102002.7      46.7237      46.7237      46.7237 
  132000    131.08577   -7122.0817   -6446.8799   -894.12959     102002.7      46.7237      46.7237      46.7237 
  133000    127.57758   -7136.4578   -6479.3261   -569.84968     102002.7      46.7237      46.7237      46.7237 
  134000    127.59763   -7104.6306   -6447.3956   -673.73497     102002.7      46.7237      46.7237      46.7237 
  135000    131.96913   -7121.4791   -6441.7272   -570.26753     102002.7      46.7237      46.7237      46.7237 
  136000    132.03367   -7138.7556   -6458.6713    -389.6475     102002.7      46.7237      46.7237      46.7237 
  137000     131.3404   -7119.7388   -6443.2255   -828.46521     102002.7      46.7237      46.7237      46.7237 
  138000    129.79743   -7125.7876   -6457.2219   -812.33624     102002.7      46.7237      46.7237      46.7237 
  139000    134.06623   -7136.0261   -6445.4724   -790.72909     102002.7      46.7237      46.7237      46.7237 
  140000    129.19552   -7131.8737   -6466.4082   -632.07423     102002.7      46.7237      46.7237      46.7237 
  141000    129.86889   -7101.5261   -6432.5922    -821.3639     102002.7      46.7237      46.7237      46.7237 
  142000    131.73751   -7120.5967   -6442.0379   -851.28633     102002.7      46.7237      46.7237      46.7237 
  143000    128.79894   -7101.7805   -6438.3578   -602.86352     102002.7      46.7237      46.7237      46.7237 
  144000    131.03944   -7120.4176   -6445.4545    -910.4276     102002.7      46.7237      46.7237      46.7237 
  145000    127.85318   -7120.3159   -6461.7647   -630.41718     102002.7      46.7237      46.7237      46.7237 
  146000    134.69414    -7114.632    -6420.844   -529.66542     102002.7      46.7237      46.7237      46.7237 
  147000    130.99621    -7126.038   -6451.2974    -764.2252     102002.7      46.7237      46.7237      46.7237 
  148000    133.09849   -7137.9506   -6452.3816   -758.31406     102002.7      46.7237      46.7237      46.7237 
  149000    130.82962   -7111.7309   -6437.8484   -1070.0283     102002.7      46.7237      46.7237      46.7237 
  150000    129.65878   -7125.6637   -6457.8121   -749.47018     102002.7      46.7237      46.7237      46.7237 
  151000    131.66434   -7107.7812   -6429.5993   -712.72214     102002.7      46.7237      46.7237      46.7237 
  152000    130.31272   -7127.6742   -6456.4542   -815.85112     102002.7      46.7237      46.7237      46.7237 
  153000    130.30799   -7116.6636    -6445.468    -741.0086     102002.7      46.7237      46.7237      46.7237 
  154000    131.05251    -7124.461   -6449.4305   -763.87446     102002.7      46.7237      46.7237      46.7237 
  155000     133.4824   -7121.6979   -6434.1514   -1081.9361     102002.7      46.7237      46.7237      46.7237 
  156000    130.94194   -7135.3021   -6460.8412   -547.14862     102002.7      46.7237      46.7237      46.7237 
  157000    131.81657   -7110.6986   -6431.7325   -838.41358     102002.7      46.7237      46.7237      46.7237 
  158000    130.05763    -7117.256     -6447.35   -600.14681     102002.7      46.7237      46.7237      46.7237 
  159000    127.63784    -7135.291   -6477.8489   -616.97433     102002.7      46.7237      46.7237      46.7237 
  160000     130.6124   -7122.3278   -6449.5642   -637.42521     102002.7      46.7237      46.7237      46.7237 
  161000    125.71831   -7119.8194   -6472.2645    -678.2484     102002.7      46.7237      46.7237      46.7237 
  162000    128.60354   -7105.9135   -6443.4973   -830.93772     102002.7      46.7237      46.7237      46.7237 
  163000    127.97588   -7125.8136   -6466.6304   -728.20086     102002.7      46.7237      46.7237      46.7237 
  164000    132.37971   -7124.4668   -6442.6001   -844.41466     102002.7      46.7237      46.7237      46.7237 
  165000    134.16929   -7102.0757   -6410.9912   -680.44463     102002.7      46.7237      46.7237      46.7237 
  166000     127.0247   -7120.2704   -6465.9865   -837.50568     102002.7      46.7237      46.7237      46.7237 
  167000    131.35299   -7118.2698   -6441.6916   -761.98141     102002.7      46.7237      46.7237      46.7237 
  168000    130.59474   -7117.7504   -6445.0778   -863.41777     102002.7      46.7237      46.7237      46.7237 
  169000    128.81158   -7122.1018   -6458.6139    -874.2532     102002.7      46.7237      46.7237      46.7237 
  170000    131.51101    -7120.838   -6443.4459   -643.77771     102002.7      46.7237      46.7237      46.7237 
  171000    129.84057   -7131.7563   -6462.9683   -711.05336     102002.7      46.7237      46.7237      46.7237 
  172000    133.98212   -7107.2277   -6417.1073   -636.62984     102002.7      46.7237      46.7237      46.7237 
  173000    130.39505   -7116.6088   -6444.9648    -546.1277     102002.7      46.7237      46.7237      46.7237 
  174000    131.79502   -7119.5457   -6440.6907   -580.38751     102002.7      46.7237      46.7237      46.7237 
  175000    127.48094   -7118.1484   -6461.5145    -520.9749     102002.7      46.7237      46.7237      46.7237 
  176000    129.35432   -7128.3376   -6462.0542   -340.32841     102002.7      46.7237      46.7237      46.7237 
  177000     131.3311   -7125.5209   -6449.0554   -589.74873     102002.7      46.7237      46.7237      46.7237 
  178000    130.23502   -7135.9425   -6465.1228   -685.31868     102002.7      46.7237      46.7237      46.7237 
  179000    133.58438   -7117.9254   -6429.8536   -807.05384     102002.7      46.7237      46.7237      46.7237 
  180000    130.73387   -7108.9126   -6435.5234   -765.56897     102002.7      46.7237      46.7237      46.7237 
  181000     129.0305    -7113.581   -6448.9656   -959.98187     102002.7      46.7237      46.7237      46.7237 
  182000    129.64742   -7120.3332   -6452.5401   -918.44253     102002.7      46.7237      46.7237      46.7237 
  183000    131.98327   -7104.7843   -6424.9596   -770.39381     102002.7      46.7237      46.7237      46.7237 
  184000    133.77061   -7136.8841   -6447.8531   -575.43165     102002.7      46.7237      46.7237      46.7237 
  185000    129.50083   -7130.7539   -6463.7159   -596.20305     102002.7      46.7237      46.7237      46.7237 
  186000    134.29794   -7139.6458   -6447.8986   -365.78318     102002.7      46.7237      46.7237      46.7237 
  187000    132.41978   -7113.8003   -6431.7272   -791.06763     102002.7      46.7237      46.7237      46.7237 
  188000    127.95442   -7120.3345   -6461.2618   -678.12864     102002.7      46.7237      46.7237      46.7237 
  189000    128.11489   -7126.1294   -6466.2302   -637.72124     102002.7      46.7237      46.7237      46.7237 
  190000    131.25628   -7124.7324   -6448.6523   -409.86513     102002.7      46.7237      46.7237      46.7237 
  191000    129.42454   -7099.5722   -6432.9271   -889.61378     102002.7      46.7237      46.7237      46.7237 
  192000    130.73354   -7127.3229   -6453.9354   -562.24433     102002.7      46.7237      46.7237      46.7237 
  193000    134.86681   -7134.3234    -6439.646   -700.33088     102002.7      46.7237      46.7237      46.7237 
  194000    131.27506   -7104.8568     -6428.68   -1043.2244     102002.7      46.7237      46.7237      46.7237 
  195000     129.7934   -7134.0577   -6465.5127   -645.55025     102002.7      46.7237      46.7237      46.7237 
  196000    129.22693   -7136.1603   -6470.5331   -657.64944     102002.7      46.7237      46.7237      46.7237 
  197000    131.01153    -7123.812   -6448.9926   -597.04682     102002.7      46.7237      46.7237      46.7237 
  198000    128.99654   -7116.0674   -6451.6269   -346.52215     102002.7      46.7237      46.7237      46.7237 
  199000     125.9181   -7104.7686   -6456.1846   -773.53028     102002.7      46.7237      46.7237      46.7237 
  200000    129.80667   -7108.7548   -6440.1414   -451.74565     102002.7      46.7237      46.7237      46.7237 
  201000     128.4197   -7136.2305   -6474.7612   -417.03358     102002.7      46.7237      46.7237      46.7237 
  202000    127.04301   -7095.6216   -6441.2434   -956.29112     102002.7      46.7237      46.7237      46.7237 
  203000    130.40238   -7122.2405   -6450.5588   -626.29198     102002.7      46.7237      46.7237      46.7237 
  204000    135.68637   -7124.4328   -6425.5341   -716.02336     102002.7      46.7237      46.7237      46.7237 
  205000    127.69753   -7112.7467   -6454.9972   -481.54355     102002.7      46.7237      46.7237      46.7237 
  206000     132.2909   -7097.1665   -6415.7572   -738.78975     102002.7      46.7237      46.7237      46.7237 
  207000    128.60761    -7124.362   -6461.9248   -899.69756     102002.7      46.7237      46.7237      46.7237 
  208000    132.88801   -7106.4874   -6422.0026   -628.45146     102002.7      46.7237      46.7237      46.7237 
  209000    129.70325   -7108.4638   -6440.3831   -729.51564     102002.7      46.7237      46.7237      46.7237 
  210000    128.18514   -7129.1122    -6468.851   -719.10497     102002.7      46.7237      46.7237      46.7237 
  211000    128.37522   -7124.9976   -6463.7574    -811.3705     102002.7      46.7237      46.7237      46.7237 
  212000    132.95126   -7134.2255   -6449.4148   -473.79827     102002.7      46.7237      46.7237      46.7237 
  213000    129.82992   -7120.5435   -6451.8104   -520.33886     102002.7      46.7237      46.7237      46.7237 
  214000    130.46103   -7124.8414   -6452.8576   -633.45991     102002.7      46.7237      46.7237      46.7237 
  215000    130.88136    -7139.578   -6465.4291   -910.84015     102002.7      46.7237      46.7237      46.7237 
  216000    129.70276   -7113.2041   -6445.1259   -817.72877     102002.7      46.7237      46.7237      46.7237 
  217000    132.06495   -7104.1369   -6423.8915   -690.23264     102002.7      46.7237      46.7237      46.7237 
  218000    127.26033   -7109.6112   -6454.1136   -1046.5647     102002.7      46.7237      46.7237      46.7237 
  219000    134.85635   -7140.7046   -6446.0812    -460.6105     102002.7      46.7237      46.7237      46.7237 
  220000    127.09546   -7112.4641   -6457.8158   -606.92384     102002.7      46.7237      46.7237      46.7237 
  221000    133.12154   -7113.6151   -6427.9274   -486.69444     102002.7      46.7237      46.7237      46.7237 
  222000     124.4003   -7129.7014   -6488.9353   -448.80156     102002.7      46.7237      46.7237      46.7237 
  223000    128.54041   -7108.8429   -6446.7518   -766.56909     102002.7      46.7237      46.7237      46.7237 
  224000    132.38897   -7111.4328   -6429.5184   -788.33377     102002.7      46.7237      46.7237      46.7237 
  225000     128.0415   -7140.7589   -6481.2376   -565.08617     102002.7      46.7237      46.7237      46.7237 
  226000    131.74712   -7135.6937   -6457.0854   -828.40295     102002.7      46.7237      46.7237      46.7237 
  227000    129.99044   -7096.5394   -6426.9794   -191.63904     102002.7      46.7237      46.7237      46.7237 
  228000    131.09432   -7127.1693   -6451.9235   -560.96736     102002.7      46.7237      46.7237      46.7237 
  229000    132.72549   -7116.4601   -6432.8124   -596.07977     102002.7      46.7237      46.7237      46.7237 
  230000    132.97424   -7145.7444   -6460.8154   -461.09022     102002.7      46.7237      46.7237      46.7237 
  231000    131.19959   -7130.9893   -6455.2012   -954.11227     102002.7      46.7237      46.7237      46.7237 
  232000    128.81855   -7121.8887    -6458.365   -1046.6879     102002.7      46.7237      46.7237      46.7237 
  233000    130.35731   -7108.2836   -6436.8341    -655.1956     102002.7      46.7237      46.7237      46.7237 
  234000      128.049   -7103.4433   -6443.8834   -881.49184     102002.7      46.7237      46.7237      46.7237 
  235000    127.71808   -7096.2697   -6438.4143   -1025.7476     102002.7      46.7237      46.7237      46.7237 
  236000    132.29633   -7133.4087   -6451.9716   -735.05264     102002.7      46.7237      46.7237      46.7237 
  237000    126.66939    -7100.718   -6448.2643   -817.54343     102002.7      46.7237      46.7237      46.7237 
  238000    130.35981   -7135.5835    -6464.121   -876.85551     102002.7      46.7237      46.7237      46.7237 
  239000    128.14821   -7089.2911   -6429.2202   -998.60095     102002.7      46.7237      46.7237      46.7237 
  240000    129.07482   -7118.8403   -6453.9965   -1088.4216     102002.7      46.7237      46.7237      46.7237 
  241000    128.04863   -7117.4215   -6457.8635   -932.80491     102002.7      46.7237      46.7237      46.7237 
  242000    132.15777   -7122.5432   -6441.8197   -927.59672     102002.7      46.7237      46.7237      46.7237 
  243000     130.0891   -7127.0531    -6456.985   -838.14626     102002.7      46.7237      46.7237      46.7237 
  244000    127.74307   -7103.1221    -6445.138   -782.38798     102002.7      46.7237      46.7237      46.7237 
  245000    130.81622   -7120.6766   -6446.8632   -807.20299     102002.7      46.7237      46.7237      46.7237 
  246000     130.2953   -7096.9859   -6425.8557   -712.74962     102002.7      46.7237      46.7237      46.7237 
  247000    125.40954   -7124.4753   -6478.5109   -873.39884     102002.7      46.7237      46.7237      46.7237 
  248000    131.55622   -7123.9177   -6446.2927   -849.31521     102002.7      46.7237      46.7237      46.7237 
  249000    128.12274   -7118.0437    -6458.104   -660.72438     102002.7      46.7237      46.7237      46.7237 
  250000    130.28622   -7126.5297   -6455.4463    -732.4144     102002.7      46.7237      46.7237      46.7237 
  251000    131.40251   -7120.1135   -6443.2803   -721.19184     102002.7      46.7237      46.7237      46.7237 
  252000    128.34255   -7126.2206   -6465.1487   -744.58745     102002.7      46.7237      46.7237      46.7237 
  253000    130.31081   -7130.0162   -6458.8061   -504.85182     102002.7      46.7237      46.7237      46.7237 
  254000    130.74354   -7118.7629   -6445.3239   -612.45988     102002.7      46.7237      46.7237      46.7237 
  255000    128.32365   -7139.8125    -6478.838   -592.30109     102002.7      46.7237      46.7237      46.7237 
  256000    128.78593   -7065.9989   -6402.6432   -705.52224     102002.7      46.7237      46.7237      46.7237 
  257000    127.92903   -7117.1779   -6458.2359   -349.94633     102002.7      46.7237      46.7237      46.7237 
  258000    131.69559   -7090.3602   -6412.0173   -621.15187     102002.7      46.7237      46.7237      46.7237 
  259000    127.13756   -7124.8703   -6470.0051   -521.26553     102002.7      46.7237      46.7237      46.7237 
  260000     128.6783   -7104.3149   -6441.5136   -694.77613     102002.7      46.7237      46.7237      46.7237 
  261000     128.2306   -7112.2465   -6451.7512   -522.94832     102002.7      46.7237      46.7237      46.7237 
  262000    126.12863   -7106.1194   -6456.4511   -511.62742     102002.7      46.7237      46.7237      46.7237 
  263000     129.5513   -7120.7539   -6453.4559   -762.10849     102002.7      46.7237      46.7237      46.7237 
  264000    135.86277   -7108.4995   -6408.6922   -537.67264     102002.7      46.7237      46.7237      46.7237 
  265000    129.90918   -7123.0028   -6453.8614   -623.36499     102002.7      46.7237      46.7237      46.7237 
  266000    135.25194   -7137.8454   -6441.1843   -798.89447     102002.7      46.7237      46.7237      46.7237 
  267000    129.98515   -7123.7308   -6454.1981   -847.30322     102002.7      46.7237      46.7237      46.7237 
  268000    131.81313   -7131.8973   -6452.9489   -191.90402     102002.7      46.7237      46.7237      46.7237 
  269000    128.78011   -7110.8004   -6447.4747   -598.40158     102002.7      46.7237      46.7237      46.7237 
  270000    131.13061   -7099.2124   -6423.7797   -671.97593     102002.7      46.7237      46.7237      46.7237 
  271000    131.49979   -7142.6889   -6465.3545   -659.54066     102002.7      46.7237      46.7237      46.7237 
  272000    134.21427    -7116.294   -6424.9778   -548.01749     102002.7      46.7237      46.7237      46.7237 
  273000    130.67628   -7125.8322   -6452.7396   -660.92895     102002.7      46.7237      46.7237      46.7237 
  274000      134.626   -7111.5853   -6418.1484   -571.49734     102002.7      46.7237      46.7237      46.7237 
  275000    128.76611   -7117.6491   -6454.3955   -913.62909     102002.7      46.7237      46.7237      46.7237 
  276000    132.97413   -7101.7095   -6416.7811   -744.12759     102002.7      46.7237      46.7237      46.7237 
  277000    130.75268   -7110.7697   -6437.2836   -852.43306     102002.7      46.7237      46.7237      46.7237 
  278000    128.08088   -7127.8771    -6468.153   -924.18326     102002.7      46.7237      46.7237      46.7237 
  279000    131.69659   -7114.7086   -6436.3606    -872.3982     102002.7      46.7237      46.7237      46.7237 
  280000    129.49157   -7117.5943    -6450.604   -518.21572     102002.7      46.7237      46.7237      46.7237 
  281000    130.44536   -7119.1098   -6447.2067   -768.54212     102002.7      46.7237      46.7237      46.7237 
  282000    128.31867   -7113.9406   -6452.9917   -832.84904     102002.7      46.7237      46.7237      46.7237 
  283000    130.52324   -7095.8105   -6423.5062   -402.61218     102002.7      46.7237      46.7237      46.7237 
  284000    130.35692   -7111.6948   -6440.2472   -772.44814     102002.7      46.7237      46.7237      46.7237 
  285000    127.03484   -7128.6252    -6474.289   -564.72127     102002.7      46.7237      46.7237      46.7237 
  286000    131.13713    -7100.424   -6424.9576   -620.01075     102002.7      46.7237      46.7237      46.7237 
  287000    132.08695   -7124.6825   -6444.3238   -472.28478     102002.7      46.7237      46.7237      46.7237 
  288000    127.45483   -7105.1697   -6448.6703   -780.37296     102002.7      46.7237      46.7237      46.7237 
  289000    128.65109   -7117.8731    -6455.212   -749.09471     102002.7      46.7237      46.7237      46.7237 
  290000    130.53995    -7105.114   -6432.7236   -930.54823     102002.7      46.7237      46.7237      46.7237 
  291000    133.47521   -7130.3436   -6442.8341   -710.21019     102002.7      46.7237      46.7237      46.7237 
  292000    130.19844   -7139.1963    -6468.565   -679.00686     102002.7      46.7237      46.7237      46.7237 
  293000    132.33556   -7116.3921   -6434.7529   -913.85617     102002.7      46.7237      46.7237      46.7237 
  294000    130.36295    -7136.871   -6465.3923   -432.85281     102002.7      46.7237      46.7237      46.7237 
  295000    128.81057   -7114.7861   -6451.3035   -569.78231     102002.7      46.7237      46.7237      46.7237 
  296000    131.21582   -7105.1237    -6429.252   -637.31355     102002.7      46.7237      46.7237      46.7237 
  297000    130.08345   -7115.7753   -6445.7363   -769.30547     102002.7      46.7237      46.7237      46.7237 
  298000    127.27762   -7131.2207   -6475.6341   -551.48792     102002.7      46.7237      46.7237      46.7237 
  299000    129.24581   -7118.2939   -6452.5694   -685.21754     102002.7      46.7237      46.7237      46.7237 
  300000    132.39751   -7144.0601   -6462.1018   -918.52703     102002.7      46.7237      46.7237      46.7237 
  301000    132.20623   -7113.9024   -6432.9293   -840.24201     102002.7      46.7237      46.7237      46.7237 
  302000    129.94472   -7118.6194   -6449.2949   -1165.4369     102002.7      46.7237      46.7237      46.7237 
  303000    130.82312   -7104.7517   -6430.9028    -513.6256     102002.7      46.7237      46.7237      46.7237 
  304000    132.91817   -7101.4774   -6416.8372   -828.33948     102002.7      46.7237      46.7237      46.7237 
  305000    133.42637   -7124.7175   -6437.4597   -865.09532     102002.7      46.7237      46.7237      46.7237 
  306000    126.00557   -7114.3257   -6465.2912   -901.32846     102002.7      46.7237      46.7237      46.7237 
  307000     130.5516   -7113.1427   -6440.6923    -980.4084     102002.7      46.7237      46.7237      46.7237 
  308000    132.17289    -7140.289   -6459.4876   -839.59771     102002.7      46.7237      46.7237      46.7237 
  309000    127.60637   -7140.2285   -6482.9485   -835.22617     102002.7      46.7237      46.7237      46.7237 
  310000    129.55174   -7098.6064   -6431.3061   -800.92884     102002.7      46.7237      46.7237      46.7237 
  311000    130.35684   -7126.7704   -6455.3232   -708.96541     102002.7      46.7237      46.7237      46.7237 
  312000    130.43054   -7106.5821   -6434.7553    -637.9162     102002.7      46.7237      46.7237      46.7237 
  313000    125.93354   -7122.4727   -6473.8092   -845.82854     102002.7      46.7237      46.7237      46.7237 
  314000    131.45789   -7128.9351   -6451.8166   -855.30215     102002.7      46.7237      46.7237      46.7237 
  315000    128.28441    -7125.618   -6464.8456   -1058.4611     102002.7      46.7237      46.7237      46.7237 
  316000    129.85495   -7110.7088   -6441.8468   -961.19968     102002.7      46.7237      46.7237      46.7237 
  317000    125.16751   -7138.3072   -6493.5894   -654.28347     102002.7      46.7237      46.7237      46.7237 
  318000    126.55944   -7097.6521   -6445.7646   -989.39515     102002.7      46.7237      46.7237      46.7237 
  319000    130.63835   -7135.5355   -6462.6382   -735.46693     102002.7      46.7237      46.7237      46.7237 
  320000    132.14778   -7104.1721      -6423.5   -885.16365     102002.7      46.7237      46.7237      46.7237 
  321000    131.69947   -7137.5586   -6459.1957   -950.17981     102002.7      46.7237      46.7237      46.7237 
  322000     128.8754   -7146.9845    -6483.168   -792.07024     102002.7      46.7237      46.7237      46.7237 
  323000    128.34792   -7103.9758   -6442.8763   -880.83525     102002.7      46.7237      46.7237      46.7237 
  324000     125.3629   -7134.7204   -6488.9962   -1154.0581     102002.7      46.7237      46.7237      46.7237 
  325000    127.81623   -7120.5006   -6462.1396   -728.09465     102002.7      46.7237      46.7237      46.7237 
  326000    124.60381   -7103.2019   -6461.3877   -750.20457     102002.7      46.7237      46.7237      46.7237 
  327000    130.88458   -7117.3854   -6443.2199   -689.63592     102002.7      46.7237      46.7237      46.7237 
  328000    128.22148   -7125.1181   -6464.6699   -690.16122     102002.7      46.7237      46.7237      46.7237 
  329000    130.60879   -7122.3943   -6449.6493   -574.38175     102002.7      46.7237      46.7237      46.7237 
  330000    129.63908   -7137.7883   -6470.0381   -586.69828     102002.7      46.7237      46.7237      46.7237 
  331000    135.85484   -7128.1532   -6428.3866   -849.81196     102002.7      46.7237      46.7237      46.7237 
  332000    128.63298   -7106.1789    -6443.611   -883.93886     102002.7      46.7237      46.7237      46.7237 
  333000    137.08125   -7128.6242   -6422.5406   -744.68261     102002.7      46.7237      46.7237      46.7237 
  334000    132.13671   -7120.9433   -6440.3282   -538.51845     102002.7      46.7237      46.7237      46.7237 
  335000    129.98904    -7127.061   -6457.5083   -590.99705     102002.7      46.7237      46.7237      46.7237 
  336000    130.23759   -7105.0244   -6434.1914    -827.6714     102002.7      46.7237      46.7237      46.7237 
  337000    130.00539   -7137.9466   -6468.3097   -738.52259     102002.7      46.7237      46.7237      46.7237 
  338000    127.34428   -7116.3026   -6460.3726   -516.82994     102002.7      46.7237      46.7237      46.7237 
  339000    128.61874   -7120.6796    -6458.185   -580.33735     102002.7      46.7237      46.7237      46.7237 
  340000     132.2714   -7125.9358   -6444.6271   -643.63584     102002.7      46.7237      46.7237      46.7237 
  341000    131.93412   -7141.2278   -6461.6562   -612.85783     102002.7      46.7237      46.7237      46.7237 
  342000    126.57464   -7125.9748   -6474.0091   -756.15699     102002.7      46.7237      46.7237      46.7237 
  343000    130.12692   -7115.0085   -6444.7455   -634.78164     102002.7      46.7237      46.7237      46.7237 
  344000    128.39296   -7113.4156   -6452.0841   -688.78871     102002.7      46.7237      46.7237      46.7237 
  345000    127.09624   -7150.4888   -6495.8364   -722.39723     102002.7      46.7237      46.7237      46.7237 
  346000    131.52713   -7122.4592    -6444.984   -478.30274     102002.7      46.7237      46.7237      46.7237 
  347000    132.15289   -7124.4538   -6443.7554   -658.43857     102002.7      46.7237      46.7237      46.7237 
  348000    131.27114   -7147.6133   -6471.4567    -606.1873     102002.7      46.7237      46.7237      46.7237 
  349000    132.29862   -7116.4713   -6435.0223   -689.04876     102002.7      46.7237      46.7237      46.7237 
  350000    127.77043   -7119.7358   -6461.6108   -455.08689     102002.7      46.7237      46.7237      46.7237 
  351000    131.55572   -7134.6094   -6456.9869    -420.8064     102002.7      46.7237      46.7237      46.7237 
  352000    126.83498   -7115.5312   -6462.2245   -630.11531     102002.7      46.7237      46.7237      46.7237 
  353000    128.51138   -7102.1809   -6440.2394   -632.14545     102002.7      46.7237      46.7237      46.7237 
  354000    129.25961   -7137.3577   -6471.5622   -693.62862     102002.7      46.7237      46.7237      46.7237 
  355000    132.84343   -7118.2718   -6434.0166   -619.47998     102002.7      46.7237      46.7237      46.7237 
  356000    128.84531     -7121.27   -6457.6085   -466.19475     102002.7      46.7237      46.7237      46.7237 
  357000    132.74781   -7116.3521   -6432.5895   -588.24141     102002.7      46.7237      46.7237      46.7237 
  358000    130.02466   -7129.8097   -6460.0735    -630.2254     102002.7      46.7237      46.7237      46.7237 
  359000    131.96451   -7118.2856   -6438.5576   -488.76644     102002.7      46.7237      46.7237      46.7237 
  360000    129.95458   -7138.7964   -6469.4212   -589.69578     102002.7      46.7237      46.7237      46.7237 
  361000    126.89541   -7129.5475   -6475.9295   -760.08165     102002.7      46.7237      46.7237      46.7237 
  362000    129.87044   -7138.2589   -6469.3171   -334.31713     102002.7      46.7237      46.7237      46.7237 
  363000    131.10346   -7110.9758   -6435.6829   -577.19213     102002.7      46.7237      46.7237      46.7237 
  364000    128.50261   -7129.9761   -6468.0797   -593.68794     102002.7      46.7237      46.7237      46.7237 
  365000    130.35633   -7114.5474   -6443.1029   -462.92466     102002.7      46.7237      46.7237      46.7237 
  366000    130.51781   -7100.7526   -6428.4763   -450.05334     102002.7      46.7237      46.7237      46.7237 
  367000     126.8826   -7113.3252   -6459.7733    -1051.648     102002.7      46.7237      46.7237      46.7237 
  368000    127.51001   -7098.7878   -6442.0042   -830.42497     102002.7      46.7237      46.7237      46.7237 
  369000    129.57717     -7083.28   -6415.8487    -590.8251     102002.7      46.7237      46.7237      46.7237 
  370000    132.94349   -7139.3493   -6454.5787   -821.30791     102002.7      46.7237      46.7237      46.7237 
  371000    129.22757   -7098.7861   -6433.1557   -708.27747     102002.7      46.7237      46.7237      46.7237 
  372000    129.41816   -7120.2646   -6453.6524   -765.70893     102002.7      46.7237      46.7237      46.7237 
  373000    131.43239   -7138.0556   -6461.0685   -814.64553     102002.7      46.7237      46.7237      46.7237 
  374000    128.74504   -7098.2988   -6435.1537   -924.40318     102002.7      46.7237      46.7237      46.7237 
  375000    131.45938   -7143.1572    -6466.031   -676.26325     102002.7      46.7237      46.7237      46.7237 
  376000    130.31567   -7096.5808   -6425.3457   -900.73079     102002.7      46.7237      46.7237      46.7237 
  377000     130.6798   -7118.2548   -6445.1441    -758.3595     102002.7      46.7237      46.7237      46.7237 
  378000    129.99756    -7132.108   -6462.5114   -301.19273     102002.7      46.7237      46.7237      46.7237 
  379000    127.82383   -7107.7766   -6449.3765   -601.31563     102002.7      46.7237      46.7237      46.7237 
  380000    129.71841   -7128.0615   -6459.9027   -761.49537     102002.7      46.7237      46.7237      46.7237 
  381000    135.00506   -7106.7022   -6411.3128   -783.38307     102002.7      46.7237      46.7237      46.7237 
  382000    130.46572   -7115.2809   -6443.2728    -969.0511     102002.7      46.7237      46.7237      46.7237 
  383000    127.23912   -7127.6812   -6472.2929   -856.81513     102002.7      46.7237      46.7237      46.7237 
  384000    128.98919   -7120.4331   -6456.0304   -637.85142     102002.7      46.7237      46.7237      46.7237 
  385000    133.40739   -7100.1803   -6413.0203   -828.00752     102002.7      46.7237      46.7237      46.7237 
  386000    128.80098   -7126.8599   -6463.4267   -499.22786     102002.7      46.7237      46.7237      46.7237 
  387000    125.01448   -7125.9954   -6482.0659   -566.21593     102002.7      46.7237      46.7237      46.7237 
  388000    128.27114   -7099.8632   -6439.1591   -541.64563     102002.7      46.7237      46.7237      46.7237 
  389000    121.34088   -7133.1178   -6508.1103   -821.61484     102002.7      46.7237      46.7237      46.7237 
  390000    132.86535   -7122.8434   -6438.4753   -795.12266     102002.7      46.7237      46.7237      46.7237 
  391000    126.39038   -7120.8904   -6469.8738   -604.72799     102002.7      46.7237      46.7237      46.7237 
  392000    132.33651   -7127.4759   -6445.8318   -754.45385     102002.7      46.7237      46.7237      46.7237 
  393000    134.47124   -7111.3539   -6418.7141    -799.8208     102002.7      46.7237      46.7237      46.7237 
  394000    128.62176   -7112.9198   -6450.4098   -837.04936     102002.7      46.7237      46.7237      46.7237 
  395000    131.89105   -7112.0633   -6432.7136   -773.62106     102002.7      46.7237      46.7237      46.7237 
  396000    133.95845   -7115.4099   -6425.4114   -1072.0154     102002.7      46.7237      46.7237      46.7237 
  397000    130.11387   -7123.0825   -6452.8868   -942.51756     102002.7      46.7237      46.7237      46.7237 
  398000    131.81562   -7117.0063   -6438.0452   -700.38503     102002.7      46.7237      46.7237      46.7237 
  399000    127.61445   -7127.4607   -6470.1391   -875.23836     102002.7      46.7237      46.7237      46.7237 
  400000    130.46475   -7116.4097   -6444.4067   -619.16787     102002.7      46.7237      46.7237      46.7237 
  401000    130.26046    -7100.926   -6429.9753   -902.42814     102002.7      46.7237      46.7237      46.7237 
  402000    127.26447   -7119.8216   -6464.3027   -932.11333     102002.7      46.7237      46.7237      46.7237 
  403000    132.64231   -7120.3138   -6437.0945    -893.1643     102002.7      46.7237      46.7237      46.7237 
  404000    127.31367   -7126.4468   -6470.6744   -721.62037     102002.7      46.7237      46.7237      46.7237 
  405000    132.61632   -7124.4718   -6441.3864   -535.86966     102002.7      46.7237      46.7237      46.7237 
  406000    129.69758   -7115.9928   -6447.9414   -729.91741     102002.7      46.7237      46.7237      46.7237 
  407000    133.27342   -7098.5515   -6412.0815   -424.40165     102002.7      46.7237      46.7237      46.7237 
  408000    128.69937   -7119.5107   -6456.6008   -329.30435     102002.7      46.7237      46.7237      46.7237 
  409000    129.49097    -7098.477   -6431.4898   -365.13028     102002.7      46.7237      46.7237      46.7237 
  410000    130.71909   -7139.3758   -6466.0627   -733.54785     102002.7      46.7237      46.7237      46.7237 
  411000    132.95832   -7110.3818   -6425.5348   -431.86953     102002.7      46.7237      46.7237      46.7237 
  412000     128.8703   -7136.3919   -6472.6017   -693.34706     102002.7      46.7237      46.7237      46.7237 
  413000     130.8673   -7102.4739   -6428.3974   -693.96129     102002.7      46.7237      46.7237      46.7237 
  414000     125.4273   -7103.3809    -6457.325   -637.72919     102002.7      46.7237      46.7237      46.7237 
  415000    130.36266   -7112.7577   -6441.2806   -554.42474     102002.7      46.7237      46.7237      46.7237 
  416000    128.08432   -7133.6274   -6473.8856   -498.40006     102002.7      46.7237      46.7237      46.7237 
  417000     132.5227   -7126.3457   -6443.7425   -746.34327     102002.7      46.7237      46.7237      46.7237 
  418000    133.24725   -7139.9969   -6453.6617   -947.79218     102002.7      46.7237      46.7237      46.7237 
  419000    125.27656   -7114.5046   -6469.2251   -406.09256     102002.7      46.7237      46.7237      46.7237 
  420000    135.48846   -7108.2287   -6410.3493   -722.20934     102002.7      46.7237      46.7237      46.7237 
  421000     131.1289   -7113.8347   -6438.4107   -888.23224     102002.7      46.7237      46.7237      46.7237 
  422000    131.61487   -7110.8109   -6432.8838   -351.36758     102002.7      46.7237      46.7237      46.7237 
  423000    128.85715   -7141.5445   -6477.8219   -952.39991     102002.7      46.7237      46.7237      46.7237 
  424000     129.5981   -7135.6041    -6468.065    -729.8881     102002.7      46.7237      46.7237      46.7237 
  425000    131.98922   -7128.9913    -6449.136   -746.45618     102002.7      46.7237      46.7237      46.7237 
  426000    130.55083   -7124.2171   -6451.7706   -792.90243     102002.7      46.7237      46.7237      46.7237 
  427000    129.92465   -7135.4424   -6466.2213   -605.57891     102002.7      46.7237      46.7237      46.7237 
  428000    126.79218   -7111.1607   -6458.0745    -975.1081     102002.7      46.7237      46.7237      46.7237 
  429000    132.91689   -7101.2188   -6416.5852   -660.60641     102002.7      46.7237      46.7237      46.7237 
  430000     129.4074   -7116.9244   -6450.3676   -618.90824     102002.7      46.7237      46.7237      46.7237 
  431000    129.13087    -7140.402   -6475.2696   -654.05405     102002.7      46.7237      46.7237      46.7237 
  432000    129.87938   -7116.4374   -6447.4495   -677.04197     102002.7      46.7237      46.7237      46.7237 
  433000    132.73245   -7130.7101   -6447.0265    -688.9324     102002.7      46.7237      46.7237      46.7237 
  434000    131.45714   -7119.7939   -6442.6793   -906.83081     102002.7      46.7237      46.7237      46.7237 
  435000    126.88211   -7109.7258   -6456.1763   -1087.0222     102002.7      46.7237      46.7237      46.7237 
  436000    128.18497   -7122.9246   -6462.6644   -536.93582     102002.7      46.7237      46.7237      46.7237 
  437000    132.61287   -7128.2657    -6445.198    -922.5233     102002.7      46.7237      46.7237      46.7237 
  438000    126.78142   -7117.1217    -6464.091   -1117.7764     102002.7      46.7237      46.7237      46.7237 
  439000    129.84807   -7143.0382   -6474.2116   -739.45508     102002.7      46.7237      46.7237      46.7237 
  440000    127.80602   -7109.9974    -6451.689   -899.17537     102002.7      46.7237      46.7237      46.7237 
  441000    132.37943   -7138.0331   -6456.1679   -593.36418     102002.7      46.7237      46.7237      46.7237 
  442000     130.0484   -7095.6686   -6425.8101   -636.42418     102002.7      46.7237      46.7237      46.7237 
  443000    132.05747   -7136.8265   -6456.6196   -569.93132     102002.7      46.7237      46.7237      46.7237 
  444000    131.27928   -7126.2357   -6450.0372    -569.4527     102002.7      46.7237      46.7237      46.7237 
  445000    133.28817     -7132.46    -6445.914   -613.01522     102002.7      46.7237      46.7237      46.7237 
  446000    125.17933   -7119.2555   -6474.4768   -743.29456     102002.7      46.7237      46.7237      46.7237 
  447000    130.82899   -7113.2756   -6439.3965    -689.8547     102002.7      46.7237      46.7237      46.7237 
  448000     130.7507   -7106.0166   -6432.5407   -480.98452     102002.7      46.7237      46.7237      46.7237 
  449000    131.96997   -7111.5269   -6431.7707   -679.97748     102002.7      46.7237      46.7237      46.7237 
  450000     129.4564   -7132.4788   -6465.6696   -667.43769     102002.7      46.7237      46.7237      46.7237 
  451000    129.36248   -7104.5512   -6438.2258    -702.9526     102002.7      46.7237      46.7237      46.7237 
  452000    130.79548   -7102.4184   -6428.7118   -696.69477     102002.7      46.7237      46.7237      46.7237 
  453000    126.81959   -7121.0067   -6467.7793   -430.53186     102002.7      46.7237      46.7237      46.7237 
  454000    130.73928    -7123.326   -6449.9089   -643.77848     102002.7      46.7237      46.7237      46.7237 
  455000    127.76432   -7125.3885    -6467.295   -604.48572     102002.7      46.7237      46.7237      46.7237 
  456000    130.83616   -7107.9927   -6434.0766   -369.95405     102002.7      46.7237      46.7237      46.7237 
  457000    132.44402   -7102.2397   -6420.0417   -619.72566     102002.7      46.7237      46.7237      46.7237 
  458000    129.14502   -7134.7992   -6469.5939   -549.23911     102002.7      46.7237      46.7237      46.7237 
  459000     128.4365   -7108.3425   -6446.7867   -639.04945     102002.7      46.7237      46.7237      46.7237 
  460000      131.029   -7116.8064    -6441.897    -630.3031     102002.7      46.7237      46.7237      46.7237 
  461000    125.31751   -7125.3041   -6479.8137   -669.34462     102002.7      46.7237      46.7237      46.7237 
  462000    130.65842    -7115.721   -6442.7204   -563.39885     102002.7      46.7237      46.7237      46.7237 
  463000    132.63123   -7106.1067   -6422.9445   -518.00212     102002.7      46.7237      46.7237      46.7237 
  464000    130.04796   -7081.9877   -6412.1315   -603.52539     102002.7      46.7237      46.7237      46.7237 
  465000    130.61149   -7114.1748   -6441.4159   -556.36939     102002.7      46.7237      46.7237      46.7237 
  466000    128.28946   -7132.8236   -6472.0252   -776.29709     102002.7      46.7237      46.7237      46.7237 
  467000    133.14209   -7117.3229   -6431.5293   -552.57798     102002.7      46.7237      46.7237      46.7237 
  468000     128.2129   -7126.8447   -6466.4406   -988.89066     102002.7      46.7237      46.7237      46.7237 
  469000     126.7293   -7100.8914    -6448.129   -449.25254     102002.7      46.7237      46.7237      46.7237 
  470000    132.96533   -7114.7393   -6429.8562   -629.63619     102002.7      46.7237      46.7237      46.7237 
  471000    131.17833   -7124.3011   -6448.6225   -859.23022     102002.7      46.7237      46.7237      46.7237 
  472000    131.56029   -7147.3429   -6469.6969   -729.81063     102002.7      46.7237      46.7237      46.7237 
  473000    132.46989   -7108.1972    -6425.866   -799.23704     102002.7      46.7237      46.7237      46.7237 
  474000    130.01956   -7139.1173   -6469.4074     -919.403     102002.7      46.7237      46.7237      46.7237 
  475000    130.84697   -7112.7539   -6438.7821    -982.3822     102002.7      46.7237      46.7237      46.7237 
  476000     129.9706   -7112.5873   -6443.1295    -867.4038     102002.7      46.7237      46.7237      46.7237 
  477000    134.08675   -7108.3903   -6417.7309   -558.05742     102002.7      46.7237      46.7237      46.7237 
  478000    127.90264   -7114.1027   -6455.2967   -735.13071     102002.7      46.7237      46.7237      46.7237 
  479000    132.29638   -7090.2832   -6408.8458   -593.59307     102002.7      46.7237      46.7237      46.7237 
  480000    128.81064   -7125.1001   -6461.6171     -738.195     102002.7      46.7237      46.7237      46.7237 
  481000    125.56093   -7126.3518   -6479.6075   -420.66525     102002.7      46.7237      46.7237      46.7237 
  482000    123.18621   -7118.6562   -6484.1438   -739.12246     102002.7      46.7237      46.7237      46.7237 
  483000    125.61932    -7107.255     -6460.21   -917.87042     102002.7      46.7237      46.7237      46.7237 
  484000    132.99225   -7113.7376   -6428.7158   -875.12997     102002.7      46.7237      46.7237      46.7237 
  485000    129.02399   -7094.4776   -6429.8957   -745.06708     102002.7      46.7237      46.7237      46.7237 
  486000    128.34585   -7121.9106   -6460.8217   -577.19246     102002.7      46.7237      46.7237      46.7237 
  487000    137.35625   -7106.6238   -6399.1238   -775.71763     102002.7      46.7237      46.7237      46.7237 
  488000    128.01608   -7122.4939   -6463.1036   -727.32986     102002.7      46.7237      46.7237      46.7237 
  489000    134.38972   -7133.6822   -6441.4623   -595.56406     102002.7      46.7237      46.7237      46.7237 
  490000    129.69241   -7130.9636   -6462.9388   -381.56799     102002.7      46.7237      46.7237      46.7237 
  491000     124.0836   -7116.3085   -6477.1737   -762.57762     102002.7      46.7237      46.7237      46.7237 
  492000     132.4437   -7120.5686   -6438.3723   -725.61821     102002.7      46.7237      46.7237      46.7237 
  493000    126.69554   -7128.4396   -6475.8511   -470.68505     102002.7      46.7237      46.7237      46.7237 
  494000     131.2696   -7119.9027    -6443.754   -921.55255     102002.7      46.7237      46.7237      46.7237 
  495000    130.18223   -7122.0032   -6451.4554   -422.87426     102002.7      46.7237      46.7237      46.7237 
  496000    130.49797   -7125.6117   -6453.4375   -668.83906     102002.7      46.7237      46.7237      46.7237 
  497000    131.30418    -7133.054   -6456.7272   -500.57431     102002.7      46.7237      46.7237      46.7237 
  498000    133.00942   -7109.6956   -6424.5854   -731.43129     102002.7      46.7237      46.7237      46.7237 
  499000    132.71469   -7143.8201    -6460.228   -448.63336     102002.7      46.7237      46.7237      46.7237 
  500000    129.17412   -7110.8851   -6445.5299    -200.5647     102002.7      46.7237      46.7237      46.7237 
  500501    129.68041   -7115.0101   -6447.0471   -695.49846     102002.7      46.7237      46.7237      46.7237 
Loop time of 1287.4 on 16 procs for 500000 steps with 1729 atoms

Performance: 33.556 ns/day, 0.715 hours/ns, 388.380 timesteps/s
99.8% CPU use with 16 MPI tasks x no OpenMP threads

MPI task timing breakdown:
Section |  min time  |  avg time  |  max time  |%varavg| %total
---------------------------------------------------------------
Pair    | 500.43     | 685.69     | 853.68     | 471.9 | 53.26
Bond    | 168.1      | 173.71     | 178.66     |  24.3 | 13.49
Neigh   | 3.9355     | 3.9599     | 3.9742     |   0.7 |  0.31
Comm    | 244.12     | 410.85     | 597.62     | 616.1 | 31.91
Output  | 0.020492   | 0.020899   | 0.023889   |   0.5 |  0.00
Modify  | 7.3715     | 7.9392     | 8.4457     |  13.3 |  0.62
Other   |            | 5.232      |            |       |  0.41

Nlocal:    108.062 ave 139 max 64 min
Histogram: 2 0 0 0 3 3 1 3 1 3
Nghost:    2207.69 ave 2252 max 2174 min
Histogram: 1 2 3 3 1 3 1 0 0 2
Neighs:    11453.9 ave 17092 max 6774 min
Histogram: 3 0 3 2 2 1 0 1 3 1

Total # of neighbors = 183263
Ave neighs/atom = 105.994
Ave special neighs/atom = 6.66281
Neighbor list builds = 3460
Dangerous builds = 0
Neighbor list info ...
  update every 1 steps, delay 10 steps, check yes
  max neighbors/atom: 2000, page size: 100000
  master list distance cutoff = 16
  ghost atom cutoff = 16
  binsize = 8, bins = 6 6 6
  3 neighbor lists, perpetual/occasional/extra = 3 0 0
  (1) pair buck6d/coul/gauss/dsf, perpetual, skip from (3)
      attributes: half, newton on
      pair build: skip
      stencil: none
      bin: none
  (2) pair lj/cut, perpetual, skip from (3)
      attributes: half, newton on
      pair build: skip
      stencil: none
      bin: none
  (3) neighbor class addition, perpetual
      attributes: half, newton on
      pair build: half/bin/newton
      stencil: half/bin/3d/newton
      bin: standard
Setting up Verlet run ...
  Unit style    : real
  Current step  : 500501
  Time step     : 1
WARNING: Inconsistent image flags (../domain.cpp:786)
Per MPI rank memory allocation (min/avg/max) = 22.99 | 23.29 | 23.34 Mbytes
Step Time TotEng KinEng PotEng E_mol E_pair Temp Pxx Pyy Pzz Pxy Pxz Pyz Cella Cellb Cellc CellAlpha CellBeta CellGamma Volume Press 
  500501       500000   -6447.0471      667.963   -7115.0101    4430.4299    -11545.44    129.68041   -551.59228   -707.63589    -827.2672    285.57971    118.20512    86.225516      46.7237      46.7237      46.7237           90           90           90     102002.7   -695.49846 
  501000       500499   -6473.8589    658.94762   -7132.8065    4383.2562   -11516.063    127.93013   -483.09208   -987.43082   -663.29843   -507.22241    77.014834    65.160424      46.7237      46.7237      46.7237           90           90           90     102002.7   -711.27378 
  502000       501499   -6467.0746    662.84845   -7129.9231    4397.5324   -11527.456    128.68745   -647.69942   -494.99879   -566.34223    51.234036   -140.14841    86.273847      46.7237      46.7237      46.7237           90           90           90     102002.7   -569.68014 
  503000       502499   -6427.5839     670.8714   -7098.4553    4446.0984   -11544.554    130.24505   -815.90023   -762.46474   -159.99509   -14.810774    226.04841   -37.880043      46.7237      46.7237      46.7237           90           90           90     102002.7   -579.45335 
  504000       503499   -6451.7811    674.14173   -7125.9228    4415.6038   -11541.527    130.87996   -1114.8007   -381.16627   -510.90825    42.561481   -113.98898    226.86599      46.7237      46.7237      46.7237           90           90           90     102002.7   -668.95841 
  505000       504499   -6423.9241    685.57712   -7109.5012    4424.0185    -11533.52    133.10007   -795.79626   -613.09506   -632.36556    61.646173    74.589118    -53.50331      46.7237      46.7237      46.7237           90           90           90     102002.7   -680.41896 
  506000       505499   -6459.9621    670.31643   -7130.2785     4396.467   -11526.745    130.13731    -810.6597   -856.47245   -777.27094   -172.90756   -30.666851   -194.49016      46.7237      46.7237      46.7237           90           90           90     102002.7   -814.80103 
  507000       506499   -6420.8121    679.49541   -7100.3075    4425.0212   -11525.329    131.91934   -836.08822    -520.6886   -526.26202     18.90013    43.586571    123.38573      46.7237      46.7237      46.7237           90           90           90     102002.7   -627.67961 
  508000       507499   -6440.0569     682.3664   -7122.4233    4383.0266    -11505.45    132.47673   -655.07653   -961.63028    -1160.914   -49.975527   -24.601879   -31.828047      46.7237      46.7237      46.7237           90           90           90     102002.7    -925.8736 
  509000       508499   -6487.2597     637.6153    -7124.875    4395.6681   -11520.543    123.78861   -659.76136   -325.96157   -808.52317    76.373853    120.34412   -72.481885      46.7237      46.7237      46.7237           90           90           90     102002.7   -598.08203 
  510000       509499   -6458.1506    669.38428   -7127.5348    4404.1047    -11531.64    129.95634   -818.68638   -1083.2739   -610.69589   -25.413212   -90.016795     82.37723      46.7237      46.7237      46.7237           90           90           90     102002.7   -837.55207 
  511000       510499   -6448.8177    676.14742   -7124.9651     4423.969   -11548.934    131.26936   -250.37315   -374.67345   -870.14068   -147.54846    50.313624    234.79789      46.7237      46.7237      46.7237           90           90           90     102002.7   -498.39576 
  512000       511499    -6477.438    641.03662   -7118.4746     4392.549   -11511.024    124.45284   -260.97922   -521.09669   -787.24937    262.37829   -111.43137    8.6945591      46.7237      46.7237      46.7237           90           90           90     102002.7   -523.10842 
  513000       512499   -6449.9777    651.70501   -7101.6827     4446.982   -11548.665    126.52403   -639.15469   -541.40342   -839.29917   -148.39171     1.831523   -245.48066      46.7237      46.7237      46.7237           90           90           90     102002.7   -673.28576 
  514000       513499   -6470.8087    640.97357   -7111.7822    4401.2076    -11512.99     124.4406   -292.50622   -542.32686   -190.19576   -174.34234   -130.44202    49.052669      46.7237      46.7237      46.7237           90           90           90     102002.7   -341.67628 
  515000       514499   -6448.0501    684.25981     -7132.31    4398.6191   -11530.929    132.84432   -411.29387   -357.54163    -724.2719    39.680244   -197.40329   -108.64378      46.7237      46.7237      46.7237           90           90           90     102002.7   -497.70247 
  516000       515499   -6454.7972    672.00957   -7126.8068    4391.8497   -11518.656    130.46602   -645.67567   -438.22945   -690.17846   -22.139694   -31.097045   -186.42281      46.7237      46.7237      46.7237           90           90           90     102002.7   -591.36119 
  517000       516499   -6473.6819    660.52349   -7134.2054    4406.5946     -11540.8    128.23608   -1022.9057   -1202.1078   -731.35772   -59.147244   -82.349172   -96.466749      46.7237      46.7237      46.7237           90           90           90     102002.7   -985.45708 
  518000       517499   -6457.3548    655.25252   -7112.6074    4409.7771   -11522.384    127.21276   -754.21914   -739.95123   -768.99332    60.725044    231.05442    55.169469      46.7237      46.7237      46.7237           90           90           90     102002.7    -754.3879 
  519000       518499   -6438.8759    678.52636   -7117.4023    4420.1266   -11537.529    131.73121   -651.65963   -752.35684   -720.90433   -81.805993   -288.98508   -44.765331      46.7237      46.7237      46.7237           90           90           90     102002.7   -708.30693 
  520000       519499   -6432.4244    677.38984   -7109.8142    4427.1876   -11537.002    131.51056   -338.74439   -456.35026    -432.9605   -128.72386   -269.28763   -15.886374      46.7237      46.7237      46.7237           90           90           90     102002.7   -409.35172 
  521000       520499   -6411.5292    699.08568   -7110.6149    4416.4647    -11527.08    135.72266   -623.34753   -1538.5893   -546.61244    125.14798   -35.574218   -25.029804      46.7237      46.7237      46.7237           90           90           90     102002.7   -902.84977 
  522000       521499    -6435.059    671.83227   -7106.8913    4414.8182    -11521.71     130.4316   -688.26553   -368.97209    -193.6566    32.110253    30.296226    232.24794      46.7237      46.7237      46.7237           90           90           90     102002.7   -416.96474 
  523000       522499   -6459.8769    654.37285   -7114.2498    4415.5312   -11529.781    127.04197   -387.44363   -729.12402   -681.02826   -111.26862    7.1038745   -130.21741      46.7237      46.7237      46.7237           90           90           90     102002.7   -599.19864 
  524000       523499   -6437.2524    682.15725   -7119.4096    4405.0311   -11524.441    132.43612   -621.40955   -1102.6705     -558.301   -197.41152   -128.17911    98.770407      46.7237      46.7237      46.7237           90           90           90     102002.7   -760.79369 
  525000       524499   -6495.6198    642.06847   -7137.6882    4376.5245   -11514.213    124.65316   -1194.9199   -461.52999   -701.70835   -49.569238   -283.46298   -167.15442      46.7237      46.7237      46.7237           90           90           90     102002.7   -786.05275 
  526000       525499   -6448.4365    668.36398   -7116.8005     4407.921   -11524.722    129.75825   -613.09877   -725.73728   -93.409008    112.06118    219.77304     120.5969      46.7237      46.7237      46.7237           90           90           90     102002.7   -477.41502 
  527000       526499   -6453.7105    676.78211   -7130.4926     4389.958   -11520.451    131.39258   -1065.4113   -582.84938   -700.79149    78.487458    145.86972    84.896876      46.7237      46.7237      46.7237           90           90           90     102002.7   -783.01739 
  528000       527499   -6448.9135    657.87013   -7106.7836    4409.9762    -11516.76    127.72095   -486.13906    -137.0088   -850.75981   -77.499083   -34.790569    155.93384      46.7237      46.7237      46.7237           90           90           90     102002.7   -491.30256 
  529000       528499   -6426.1231    687.25422   -7113.3773    4402.4147   -11515.792    133.42567   -311.91061   -966.06963   -799.11079   -306.97832     82.66762    92.588991      46.7237      46.7237      46.7237           90           90           90     102002.7   -692.36368 
  530000       529499   -6425.9939    693.77225   -7119.7661    4414.6072   -11534.373     134.6911   -873.87671   -941.58851   -1344.9368   -268.83006   -141.68699    64.766942      46.7237      46.7237      46.7237           90           90           90     102002.7   -1053.4673 
  531000       530499   -6456.2022    660.81278    -7117.015    4412.9024   -11529.917    128.29224   -233.20025   -689.39067   -488.87688   -9.0103101   -286.68959   -81.899484      46.7237      46.7237      46.7237           90           90           90     102002.7   -470.48927 
  532000       531499   -6465.6967    665.13258   -7130.8293    4395.6668   -11526.496     129.1309   -1039.8207   -510.31838   -676.10977   -164.93919    227.11352   -310.24719      46.7237      46.7237      46.7237           90           90           90     102002.7   -742.08296 
  533000       532499   -6450.6204    666.55816   -7117.1786    4407.1662   -11524.345    129.40767    -731.4027   -961.65284   -665.65555   -14.436311    -112.3236    124.24927      46.7237      46.7237      46.7237           90           90           90     102002.7   -786.23703 
  534000       533499   -6479.7784    654.15642   -7133.9348    4397.5797   -11531.515    126.99996   -1030.5432   -555.26061    -771.3942    259.47958   -58.426791   -51.323062      46.7237      46.7237      46.7237           90           90           90     102002.7   -785.73266 
  535000       534499   -6439.8499     678.6231    -7118.473    4417.8876   -11536.361    131.74999   -839.76495   -577.55344   -589.65839   -240.14128    7.7705445   -185.96536      46.7237      46.7237      46.7237           90           90           90     102002.7   -668.99226 
  536000       535499   -6457.4209     675.5661    -7132.987    4393.2563   -11526.243     131.1565   -377.35066   -693.89524   -1092.7705   -124.33095   -177.21595   -84.769073      46.7237      46.7237      46.7237           90           90           90     102002.7    -721.3388 
  537000       536499   -6435.9523    679.85525   -7115.8075    4406.6782   -11522.486    131.98921   -933.40036   -699.13665    -863.8535    262.93728   -34.606769    379.05392      46.7237      46.7237      46.7237           90           90           90     102002.7   -832.13017 
  538000       537499   -6429.1774    672.19297   -7101.3704    4438.9423   -11540.313    130.50163   -702.39286   -915.83371   -984.24813    79.730574   -246.37542   -42.913459      46.7237      46.7237      46.7237           90           90           90     102002.7   -867.49157 
  539000       538499   -6484.7851    658.60362   -7143.3888    4371.9988   -11515.388    127.86335   -244.32955   -622.88406     -350.299    59.761858    2.0867402     3.289797      46.7237      46.7237      46.7237           90           90           90     102002.7   -405.83754 
  540000       539499   -6463.4663    660.79321   -7124.2595    4403.2893   -11527.549    128.28844   -305.83404   -348.28108   -572.41194   -252.42168    153.10695    165.56728      46.7237      46.7237      46.7237           90           90           90     102002.7   -408.84235 
  541000       540499   -6435.1933    676.89696   -7112.0902    4426.4606   -11538.551    131.41487   -507.76251    -523.5893   -111.56399    25.614776    73.946264    217.52563      46.7237      46.7237      46.7237           90           90           90     102002.7   -380.97193 
  542000       541499   -6458.3391    661.30217   -7119.6413    4410.0197   -11529.661    128.38725   -759.56475   -89.898604   -404.54518   -237.80494    82.988972    100.89382      46.7237      46.7237      46.7237           90           90           90     102002.7   -418.00284 
  543000       542499   -6476.9797    652.59017   -7129.5699     4397.248   -11526.818    126.69588   -685.75383   -359.32736   -351.42304    130.73674   -82.240488   -83.862254      46.7237      46.7237      46.7237           90           90           90     102002.7   -465.50141 
  544000       543499   -6453.3301    681.46988      -7134.8    4395.8422   -11530.642    132.30267   -904.83734   -755.25789   -535.51398   -48.791457    159.33515    134.28677      46.7237      46.7237      46.7237           90           90           90     102002.7   -731.86974 
  545000       544499   -6435.8784    688.70486   -7124.5832    4421.8207   -11546.404     133.7073   -663.74982   -768.70883   -428.80407    174.21552    172.71756    4.4914382      46.7237      46.7237      46.7237           90           90           90     102002.7    -620.4209 
  546000       545499   -6451.8007    678.28399   -7130.0847    4407.9228   -11538.007    131.68416   -994.75386   -468.39575   -1250.2202   -7.7185959    109.90836    101.61378      46.7237      46.7237      46.7237           90           90           90     102002.7    -904.4566 
  547000       546499   -6449.0943    665.11173    -7114.206    4413.9546   -11528.161    129.12685   -815.72885   -927.33964   -294.06684   -257.22878   -204.89574    78.818557      46.7237      46.7237      46.7237           90           90           90     102002.7   -679.04511 
  548000       547499   -6457.9653      657.796   -7115.7613    4434.7646   -11550.526    127.70656   -814.57314   -653.53345   -701.10119    65.673303   -114.27516   -168.71404      46.7237      46.7237      46.7237           90           90           90     102002.7   -723.06926 
  549000       548499   -6462.0631     648.7645   -7110.8276    4409.7224    -11520.55    125.95315   -1047.5866   -528.83686   -1130.4137    32.178219   -1.1399604   -106.62191      46.7237      46.7237      46.7237           90           90           90     102002.7   -902.27905 
  550000       549499   -6470.6417    673.64478   -7144.2864    4386.2434    -11530.53    130.78349    -650.3294   -969.85352   -434.47234    -129.6267   -94.546948    138.86327      46.7237      46.7237      46.7237           90           90           90     102002.7   -684.88509 
  551000       550499    -6439.364    669.25153   -7108.6156      4433.06   -11541.676    129.93057   -772.33361   -1180.5817   -746.79734    26.893925   -51.491508    6.9936154      46.7237      46.7237      46.7237           90           90           90     102002.7   -899.90422 
  552000       551499   -6443.1724    683.88694   -7127.0593    4395.4405     -11522.5    132.77193   -906.38267   -577.19831   -983.86219   -6.6196441    127.83178   -214.21636      46.7237      46.7237      46.7237           90           90           90     102002.7   -822.48106 
  553000       552499    -6462.161    656.36549   -7118.5265    4390.8829   -11509.409    127.42883   -842.18244   -567.31738   -1172.7507   -214.87639   -38.700393   -219.40533      46.7237      46.7237      46.7237           90           90           90     102002.7   -860.75018 
  554000       553499   -6444.0199      682.519   -7126.5389    4411.3696   -11537.909    132.50635   -806.60956   -970.86106    -968.4089    -99.09434    158.02015    352.63024      46.7237      46.7237      46.7237           90           90           90     102002.7   -915.29317 
  555000       554499   -6483.2667    641.21293   -7124.4797    4401.6874   -11526.167    124.48707   -774.60495   -535.76928   -726.92133   -34.711453   -151.61546   -453.88326      46.7237      46.7237      46.7237           90           90           90     102002.7   -679.09852 
[...]
  936000       935499   -6460.8098    676.20345   -7137.0133    4387.0243   -11524.038    131.28023   -770.36977   -1012.7958   -401.13721    80.176052   -85.523365   -246.66603      46.7237      46.7237      46.7237           90           90           90     102002.7   -728.10093 
  937000       936499   -6446.0641    651.98859   -7098.0527    4435.2843   -11533.337    126.57909   -1363.9834   -1568.3508   -1060.2404    256.71907     4.493008    -87.75579      46.7237      46.7237      46.7237           90           90           90     102002.7   -1330.8582 
  938000       937499    -6451.192    650.46841   -7101.6604    4429.0105   -11530.671    126.28395   -812.99316   -321.27753   -697.75194   -83.555241   -129.77528   -186.35546      46.7237      46.7237      46.7237           90           90           90     102002.7   -610.67421 
  939000       938499   -6413.5358    686.38118    -7099.917    4428.9949   -11528.912    133.25617   -558.92692   -1265.0226   -764.37917    189.93457     46.44893   -48.222411      46.7237      46.7237      46.7237           90           90           90     102002.7   -862.77623 
  940000       939499    -6457.085    656.76056   -7113.8456    4413.2997   -11527.145    127.50553    -985.2791   -567.77006   -439.67444    237.12159   -37.123387   -32.012339      46.7237      46.7237      46.7237           90           90           90     102002.7    -664.2412 
  941000       940499   -6422.9902    669.63309   -7092.6233    4429.1292   -11521.752    130.00464   -478.34311   -940.41874   -743.55989    77.578353    67.358762   -70.387273      46.7237      46.7237      46.7237           90           90           90     102002.7   -720.77391 
  942000       941499   -6426.9807    674.66366   -7101.6444    4426.3276   -11527.972    130.98129   -768.94453   -674.10871   -1037.6561   -18.349333    22.634499  -0.92207158      46.7237      46.7237      46.7237           90           90           90     102002.7   -826.90311 
  943000       942499   -6454.1281    664.70554   -7118.8336    4404.8397   -11523.673    129.04799   -896.32622   -1131.5126   -269.14015    73.268521     40.98908    310.17659      46.7237      46.7237      46.7237           90           90           90     102002.7   -765.65965 
  944000       943499   -6442.3604    659.97738   -7102.3378    4430.4038   -11532.742    128.13005   -949.14852   -967.02383   -899.83352   -246.64321   -125.46235   -85.525289      46.7237      46.7237      46.7237           90           90           90     102002.7   -938.66862 
  945000       944499   -6415.1552    680.99426   -7096.1494    4429.7645   -11525.914    132.21034   -1193.2743   -946.38037    -402.5933   -257.83936    -121.2859   -69.203224      46.7237      46.7237      46.7237           90           90           90     102002.7   -847.41599 
  946000       945499   -6445.8022    667.82299   -7113.6252    4426.4121   -11540.037    129.65323   -910.94178   -967.56717   -1200.6919    49.551991   -13.383328    155.78754      46.7237      46.7237      46.7237           90           90           90     102002.7   -1026.4003 
  947000       946499   -6440.2064    672.37616   -7112.5826     4440.134   -11552.717    130.53719   -672.50694   -1281.2449   -889.49985   -2.8275043   -8.0405984   -113.08031      46.7237      46.7237      46.7237           90           90           90     102002.7   -947.75056 
  948000       947499   -6459.9159    671.53471   -7131.4506    4398.5455   -11529.996    130.37383   -1131.7915   -923.33143   -819.95722    -8.476127     131.2872   -55.271324      46.7237      46.7237      46.7237           90           90           90     102002.7   -958.36005 
  949000       948499   -6435.0217    686.35718   -7121.3789    4423.9896   -11545.368    133.25151   -688.42139   -527.80019   -809.81709    203.19335   -201.08157    195.83706      46.7237      46.7237      46.7237           90           90           90     102002.7   -675.34622 
  950000       949499    -6461.548    673.04898    -7134.597    4398.0301   -11532.627    130.66782   -975.93057   -823.51132   -300.66136     206.0458   -65.956192    133.92948      46.7237      46.7237      46.7237           90           90           90     102002.7   -700.03442 
  951000       950499   -6443.3169    669.05463   -7112.3716    4426.8605   -11539.232    129.89234   -395.40889   -684.30899   -524.58842    165.08888    328.02832     148.4764      46.7237      46.7237      46.7237           90           90           90     102002.7   -534.76877 
  952000       951499   -6416.2912     683.0738    -7099.365    4429.8395   -11529.204    132.61406   -865.46038   -843.89901   -629.10269   -16.051447   -184.71575    161.45567      46.7237      46.7237      46.7237           90           90           90     102002.7   -779.48736 
  953000       952499   -6452.7038     678.3975   -7131.1013     4410.159    -11541.26    131.70619   -973.98723   -592.70101   -564.12798   -96.497055    408.76982   -281.07595      46.7237      46.7237      46.7237           90           90           90     102002.7   -710.27207 
  954000       953499   -6453.1571    669.71341   -7122.8705    4403.8959   -11526.766    130.02024   -422.93365   -146.81348   -842.08525    64.873629   -25.313479    138.55004      46.7237      46.7237      46.7237           90           90           90     102002.7   -470.61079 
  955000       954499   -6393.2501    697.09472   -7090.3448    4445.3278   -11535.673    135.33613    -422.0558   -756.76182   -673.54127   -141.82039    35.953198   -162.85833      46.7237      46.7237      46.7237           90           90           90     102002.7   -617.45297 
  956000       955499   -6462.4904    651.91201   -7114.4024    4400.0146   -11514.417    126.56422   -674.33569   -535.05252   -511.14252    41.716897    -150.4574    42.428374      46.7237      46.7237      46.7237           90           90           90     102002.7   -573.51024 
  957000       956499   -6428.8409    675.92775   -7104.7687    4424.7128   -11529.481    131.22671   -510.29399   -770.26297   -448.35867   -122.69201   -65.562598     37.00022      46.7237      46.7237      46.7237           90           90           90     102002.7   -576.30521 
  958000       957499   -6438.0519    674.77227   -7112.8241    4411.7158    -11524.54    131.00238   -704.92618   -682.44038    -736.9741    155.88395   -37.858732    135.07795      46.7237      46.7237      46.7237           90           90           90     102002.7   -708.11355 
  959000       958499    -6499.986    648.17119   -7148.1572    4380.2467   -11528.404    125.83796   -952.05554   -1060.1285    -822.8227    162.04166   -24.458499   -92.756813      46.7237      46.7237      46.7237           90           90           90     102002.7   -945.00225 
  960000       959499   -6444.5497    663.46075   -7108.0105    4404.8198    -11512.83    128.80633   -290.21078   -448.70931   -232.44284    33.027231    104.78317   -41.096827      46.7237      46.7237      46.7237           90           90           90     102002.7   -323.78764 
  961000       960499   -6425.5196    670.16369   -7095.6833    4422.2106   -11517.894    130.10766   -686.80631   -812.57037   -565.60524    75.076592    198.84403     21.72333      46.7237      46.7237      46.7237           90           90           90     102002.7   -688.32731 
  962000       961499   -6470.7179    632.40649   -7103.1244    4432.0246   -11535.149    122.77736   -439.44398    -439.7783   -1169.6816     322.2136    -250.0459   -97.889379      46.7237      46.7237      46.7237           90           90           90     102002.7   -682.96797 
  963000       962499    -6430.619    681.96934   -7112.5883    4422.9031   -11535.491    132.39964   -930.41287   -490.35455   -521.99541   -216.29178    201.37076    -180.9889      46.7237      46.7237      46.7237           90           90           90     102002.7   -647.58761 
  964000       963499   -6470.3476    662.02507   -7132.3726    4397.1929   -11529.566     128.5276   -996.32659   -893.75911   -538.96308     56.78491     123.4989    -83.81922      46.7237      46.7237      46.7237           90           90           90     102002.7   -809.68293 
  965000       964499   -6446.4945    661.73706   -7108.2316    4424.6125   -11532.844    128.47168   -638.64645   -734.86954   -1169.6156    275.79225    5.9012573   -36.463892      46.7237      46.7237      46.7237           90           90           90     102002.7   -847.71053 
  966000       965499   -6417.9216    692.23614   -7110.1577    4412.6016   -11522.759    134.39287   -858.33065    -786.0861    -804.3362   -27.022178    3.4079968   -104.57129      46.7237      46.7237      46.7237           90           90           90     102002.7   -816.25098 
  967000       966499   -6468.1216    632.83205   -7100.9537    4407.4801   -11508.434    122.85998   -279.63838   -939.68144   -574.35263   -28.881977    241.53275   -115.19096      46.7237      46.7237      46.7237           90           90           90     102002.7   -597.89081 
  968000       967499   -6453.2604     666.2289   -7119.4893    4414.3213   -11533.811    129.34374   -788.05167   -900.57011   -1220.1657    156.96365    1.7443105   -99.106512      46.7237      46.7237      46.7237           90           90           90     102002.7   -969.59583 
  969000       968499   -6468.8729     667.8465   -7136.7194    4400.5857   -11537.305    129.65779   -412.69396   -739.26889   -959.15418    168.00608    97.004017    276.91594      46.7237      46.7237      46.7237           90           90           90     102002.7   -703.70568 
  970000       969499   -6429.1292    672.15744   -7101.2867    4430.1569   -11531.444    130.49473   -660.54727    -613.6142   -743.49397   -103.55061    8.8401103    58.636666      46.7237      46.7237      46.7237           90           90           90     102002.7   -672.55181 
  971000       970499   -6464.4761    648.92825   -7113.4044    4416.7488   -11530.153    125.98494   -449.05525   -389.13866   -1144.4991    55.489456   -245.54072   -9.4792948      46.7237      46.7237      46.7237           90           90           90     102002.7   -660.89768 
  972000       971499   -6437.7811    667.89389   -7105.6749    4421.8733   -11527.548    129.66699   -1099.1912   -842.96515    -874.9646   -1.0392771    -279.6741   -47.984796      46.7237      46.7237      46.7237           90           90           90     102002.7   -939.04032 
  973000       972499   -6441.1351     650.7795   -7091.9146    4459.6127   -11551.527    126.34435   -1002.0963   -1083.9162   -1357.5195   -63.560201   -29.678846   -115.17543      46.7237      46.7237      46.7237           90           90           90     102002.7    -1147.844 
  974000       973499   -6439.9875    689.35311   -7129.3406    4404.7452   -11534.086    133.83315   -518.46867   -564.09823   -9.3336805    87.771308     49.01739   -75.819918      46.7237      46.7237      46.7237           90           90           90     102002.7   -363.96686 
  975000       974499   -6451.0175    659.76013   -7110.7776    4429.4842   -11540.262    128.08788   -890.60245      -330.36   -1383.6483    82.021499     155.5286    13.920055      46.7237      46.7237      46.7237           90           90           90     102002.7   -868.20357 
  976000       975499   -6409.3571    691.26354   -7100.6207    4428.4713   -11529.092    134.20405   -712.91306   -798.60392    -586.2233    149.77421    54.803913   -256.89024      46.7237      46.7237      46.7237           90           90           90     102002.7   -699.24676 
  977000       976499   -6458.5825      659.002   -7117.5845    4434.2969   -11551.881    127.94069   -437.92599   -737.99631   -707.51682    95.549005    156.16793   -8.6947159      46.7237      46.7237      46.7237           90           90           90     102002.7   -627.81304 
  978000       977499   -6414.4091    681.08947   -7095.4986    4434.1333   -11529.632    132.22882   -712.81058   -396.65505   -886.36324   -147.33457    174.53827    64.309232      46.7237      46.7237      46.7237           90           90           90     102002.7   -665.27629 
  979000       978499   -6451.5101    667.64595    -7119.156    4400.3822   -11519.538    129.61885   -490.46594   -663.01343   -947.52453   -221.66809    164.44542   -268.29114      46.7237      46.7237      46.7237           90           90           90     102002.7   -700.33463 
  980000       979499   -6448.8294    664.58664   -7113.4161    4425.1772   -11538.593    129.02491   -742.47023   -673.38005    -940.0257    -38.19497   -133.95206    5.8913099      46.7237      46.7237      46.7237           90           90           90     102002.7   -785.29199 
  981000       980499   -6457.9156     653.0508   -7110.9664    4419.7847   -11530.751    126.78531   -668.40273   -490.63422   -606.58701    52.981926    323.79284   -362.78354      46.7237      46.7237      46.7237           90           90           90     102002.7   -588.54132 
  982000       981499   -6453.2016    677.72675   -7130.9284    4378.1843   -11509.113    131.57597   -350.72167   -862.90284   -883.24795    110.77206   -124.48185    78.895539      46.7237      46.7237      46.7237           90           90           90     102002.7   -698.95749 
  983000       982499   -6447.1783    687.65273   -7134.8311    4395.7958   -11530.627    133.50303   -627.22574   -871.93433   -395.54155   -87.793529    6.6818675   -107.60601      46.7237      46.7237      46.7237           90           90           90     102002.7   -631.56721 
  984000       983499   -6452.3959    682.30959   -7134.7055    4395.9095   -11530.615     132.4657   -3.1073997   -739.25927   -841.04123   -215.71013    4.2047029    151.66282      46.7237      46.7237      46.7237           90           90           90     102002.7   -527.80263 
  985000       984499   -6420.3512    666.21801   -7086.5692     4429.672   -11516.241    129.34163   -1101.8689   -605.29184   -1041.1467   -182.16849    59.908841   -20.390537      46.7237      46.7237      46.7237           90           90           90     102002.7   -916.10246 
  986000       985499   -6433.8201    677.34369   -7111.1638    4430.4562    -11541.62     131.5016   -411.36371   -475.40185   -39.317315    87.795663   -1.6876573   -63.224203      46.7237      46.7237      46.7237           90           90           90     102002.7   -308.69429 
  987000       986499   -6461.6658    688.31049   -7149.9763    4377.6537    -11527.63    133.63073   -421.12374   -339.81504   -1286.4471   -70.058381   -60.100761    -101.4577      46.7237      46.7237      46.7237           90           90           90     102002.7   -682.46198 
  988000       987499   -6429.5934    683.96774   -7113.5612    4423.9369   -11537.498    132.78762   -505.31356   -642.76391   -1274.9169    267.18372   -31.631519    125.74168      46.7237      46.7237      46.7237           90           90           90     102002.7   -807.66479 
  989000       988499    -6444.739    672.46751   -7117.2065    4422.3175   -11539.524    130.55493   -838.19244   -751.29032   -657.02004    141.07051   -184.55648    57.953307      46.7237      46.7237      46.7237           90           90           90     102002.7   -748.83427 
  990000       989499   -6459.6787    657.34039   -7117.0191     4405.747   -11522.766     127.6181   -1022.0999   -844.53478   -739.37454     69.35265   -39.380501    -42.92045      46.7237      46.7237      46.7237           90           90           90     102002.7   -868.66974 
  991000       990499   -6440.3723    681.49677   -7121.8691    4417.0002   -11538.869     132.3079   -839.52855   -408.46698   -601.76776   -152.49863    101.25634    11.822642      46.7237      46.7237      46.7237           90           90           90     102002.7   -616.58777 
  992000       991499   -6458.1373    665.71439   -7123.8516    4414.3327   -11538.184    129.24385   -1105.3904   -1356.7032   -1040.8676    277.70719    79.661617    50.719103      46.7237      46.7237      46.7237           90           90           90     102002.7   -1167.6537 
  993000       992499   -6441.3802    674.89375    -7116.274    4404.8734   -11521.147    131.02596   -794.01118   -914.69759   -790.76886    95.771242   -66.834812   -32.295581      46.7237      46.7237      46.7237           90           90           90     102002.7   -833.15921 
  994000       993499   -6442.7474    664.09462    -7106.842    4412.8619   -11519.704    128.92939   -806.46911    -1176.208   -962.52603   -360.61465   -174.48832   -27.887702      46.7237      46.7237      46.7237           90           90           90     102002.7   -981.73439 
  995000       994499   -6474.5823    653.78095   -7128.3632    4379.8436   -11508.207    126.92706   -596.66854    -390.4823   -693.61494     14.80523     270.5743    103.53655      46.7237      46.7237      46.7237           90           90           90     102002.7   -560.25526 
  996000       995499   -6446.3831     671.9736   -7118.3567     4407.829   -11526.186    130.45904   -561.72171   -783.05123   -893.53264    350.23602    8.6279457   -108.07735      46.7237      46.7237      46.7237           90           90           90     102002.7   -746.10186 
  997000       996499   -6440.4679    665.20935   -7105.6773    4416.6036   -11522.281    129.14581    -1119.526   -864.84459   -507.55132   -174.86539    7.5642501    58.327972      46.7237      46.7237      46.7237           90           90           90     102002.7   -830.64064 
  998000       997499   -6471.0698     667.0605   -7138.1304    4404.9848   -11543.115    129.50519    -513.9147   -710.20937   -524.43875   -313.87086    273.52289    186.49576      46.7237      46.7237      46.7237           90           90           90     102002.7   -582.85428 
  999000       998499    -6441.919    667.23134   -7109.1504    4441.7158   -11550.866    129.53836   -1178.8485   -838.50241   -536.16128    65.929952    304.00608   -191.53727      46.7237      46.7237      46.7237           90           90           90     102002.7   -851.17074 
 1000000       999499   -6452.1012    665.07197   -7117.1731    4409.3853   -11526.558    129.11913   -592.00556   -527.43039   -785.92913    96.297271    73.562396   -295.77518      46.7237      46.7237      46.7237           90           90           90     102002.7   -635.12169 
 1000501      1000000   -6472.1116    665.04382   -7137.1554    4394.1174   -11531.273    129.11367   -1242.8505   -651.82379   -506.28013   -30.509058    264.81688   -82.714752      46.7237      46.7237      46.7237           90           90           90     102002.7   -800.31813 
Loop time of 1439.74 on 16 procs for 500000 steps with 1729 atoms

Performance: 30.005 ns/day, 0.800 hours/ns, 347.286 timesteps/s
99.8% CPU use with 16 MPI tasks x no OpenMP threads

MPI task timing breakdown:
Section |  min time  |  avg time  |  max time  |%varavg| %total
---------------------------------------------------------------
Pair    | 560.11     | 768.68     | 955.86     | 507.2 | 53.39
Bond    | 176.76     | 182.85     | 189.61     |  29.3 | 12.70
Neigh   | 3.794      | 3.817      | 3.8306     |   0.7 |  0.27
Comm    | 271.85     | 456.93     | 669.2      | 668.4 | 31.74
Output  | 0.097725   | 0.10308    | 0.10358    |   0.4 |  0.01
Modify  | 21.502     | 22.074     | 22.596     |   8.3 |  1.53
Other   |            | 5.283      |            |       |  0.37

Nlocal:    108.062 ave 142 max 78 min
Histogram: 1 1 2 4 1 3 0 2 1 1
Nghost:    2199.69 ave 2233 max 2164 min
Histogram: 2 0 2 0 3 2 4 1 1 1
Neighs:    11449.2 ave 17131 max 8216 min
Histogram: 6 0 0 3 2 1 2 1 0 1

Total # of neighbors = 183187
Ave neighs/atom = 105.95
Ave special neighs/atom = 6.66281
Neighbor list builds = 3337
Dangerous builds = 0
Total wall time: 0:45:30
