LAMMPS (30 Mar 2018)
Reading data file ...
  orthogonal box = (0 0 0) to (46.7237 46.7237 46.7237)
  2 by 2 by 4 MPI processor grid
  reading atoms ...
  2099 atoms
  scanning bonds ...
  5 = max bonds/atom
  scanning angles ...
  10 = max angles/atom
  scanning dihedrals ...
  32 = max dihedrals/atom
  scanning impropers ...
  3 = max impropers/atom
  reading bonds ...
  2064 bonds
  reading angles ...
  3696 angles
  reading dihedrals ...
  6240 dihedrals
  reading impropers ...
  1008 impropers
Finding 1-2 1-3 1-4 neighbors ...
  special bond factors lj:   0          0          0         
  special bond factors coul: 0          0          0         
  5 = max # of 1-2 neighbors
  8 = max # of 1-3 neighbors
  20 = max # of 1-4 neighbors
  19 = max # of special neighbors
Finding 1-2 1-3 1-4 neighbors ...
  special bond factors lj:   0          0          1         
  special bond factors coul: 1          1          1         
  5 = max # of 1-2 neighbors
  8 = max # of 1-3 neighbors
  19 = max # of special neighbors
WARNING: Using 'neigh_modify every 1 delay 0 check yes' setting during minimization (../min.cpp:168)
Neighbor list info ...
  update every 1 steps, delay 0 steps, check yes
  max neighbors/atom: 2000, page size: 100000
  master list distance cutoff = 16
  ghost atom cutoff = 16
  binsize = 8, bins = 6 6 6
  3 neighbor lists, perpetual/occasional/extra = 3 0 0
  (1) pair buck6d/coul/gauss/dsf, perpetual, skip from (3)
      attributes: half, newton on
      pair build: skip
      stencil: none
      bin: none
  (2) pair lj/cut, perpetual, skip from (3)
      attributes: half, newton on
      pair build: skip
      stencil: none
      bin: none
  (3) neighbor class addition, perpetual
      attributes: half, newton on
      pair build: half/bin/newton
      stencil: half/bin/3d/newton
      bin: standard
Setting up cg style minimization ...
  Unit style    : real
  Current step  : 0
WARNING: Inconsistent image flags (../domain.cpp:786)
Per MPI rank memory allocation (min/avg/max) = 22.92 | 23.37 | 23.82 Mbytes
Step Temp E_pair E_mol TotEng Press 
       0            0    -12575.15    6482.8914   -6092.2585    6082.2964 
     501            0   -12756.155     3722.614    -9033.541   -660.12051 
Loop time of 3.29482 on 16 procs for 501 steps with 2099 atoms

99.9% CPU use with 16 MPI tasks x no OpenMP threads

Minimization stats:
  Stopping criterion = max force evaluations
  Energy initial, next-to-last, final = 
        -6092.25845881     -9033.43903633     -9033.54100196
  Force two-norm initial, final = 2575.11 14.7983
  Force max component initial, final = 152.19 3.36422
  Final line search alpha, max atom move = 0.00287795 0.00968205
  Iterations, force evaluations = 501 1001

MPI task timing breakdown:
Section |  min time  |  avg time  |  max time  |%varavg| %total
---------------------------------------------------------------
Pair    | 1.3897     | 1.8766     | 2.5802     |  23.1 | 56.95
Bond    | 0.28606    | 0.35991    | 0.44819    |   7.7 | 10.92
Neigh   | 0.027826   | 0.028127   | 0.028517   |   0.1 |  0.85
Comm    | 0.23573    | 0.9906     | 1.5207     |  32.6 | 30.07
Output  | 0          | 0          | 0          |   0.0 |  0.00
Modify  | 0          | 0          | 0          |   0.0 |  0.00
Other   |            | 0.03962    |            |       |  1.20

Nlocal:    131.188 ave 160 max 108 min
Histogram: 2 1 1 2 2 5 1 1 0 1
Nghost:    2576.62 ave 2600 max 2548 min
Histogram: 1 0 1 3 1 3 3 1 1 2
Neighs:    11459.9 ave 16118 max 6513 min
Histogram: 1 1 0 4 2 1 1 5 0 1

Total # of neighbors = 183359
Ave neighs/atom = 87.3554
Ave special neighs/atom = 5.48833
Neighbor list builds = 16
Dangerous builds = 0
Neighbor list info ...
  update every 1 steps, delay 10 steps, check yes
  max neighbors/atom: 2000, page size: 100000
  master list distance cutoff = 16
  ghost atom cutoff = 16
  binsize = 8, bins = 6 6 6
  3 neighbor lists, perpetual/occasional/extra = 3 0 0
  (1) pair buck6d/coul/gauss/dsf, perpetual, skip from (3)
      attributes: half, newton on
      pair build: skip
      stencil: none
      bin: none
  (2) pair lj/cut, perpetual, skip from (3)
      attributes: half, newton on
      pair build: skip
      stencil: none
      bin: none
  (3) neighbor class addition, perpetual
      attributes: half, newton on
      pair build: half/bin/newton
      stencil: half/bin/3d/newton
      bin: standard
Setting up Verlet run ...
  Unit style    : real
  Current step  : 501
  Time step     : 1
WARNING: Inconsistent image flags (../domain.cpp:786)
Per MPI rank memory allocation (min/avg/max) = 22.56 | 22.64 | 22.69 Mbytes
Step Temp PotEng TotEng Press Volume Lx Ly Lz 
     501          130    -9033.541   -8220.5549   -295.78264     102002.7      46.7237      46.7237      46.7237 
    1000    112.29998   -8318.7792   -7616.4844   -721.54799     102002.7      46.7237      46.7237      46.7237 
    2000    140.13408    -8206.481    -7330.119    -717.1963     102002.7      46.7237      46.7237      46.7237 
    3000    125.57551   -8171.5296   -7386.2131   -1055.1692     102002.7      46.7237      46.7237      46.7237 
    4000    127.51907   -8163.7876   -7366.3166   -678.83077     102002.7      46.7237      46.7237      46.7237 
    5000    130.66332   -8176.8403   -7359.7059   -846.73748     102002.7      46.7237      46.7237      46.7237 
    6000    131.04687   -8146.0728   -7326.5399   -812.47594     102002.7      46.7237      46.7237      46.7237 
    7000    128.50386    -8163.566   -7359.9363   -793.69538     102002.7      46.7237      46.7237      46.7237 
    8000    132.55736   -8153.1843   -7324.2051   -807.27807     102002.7      46.7237      46.7237      46.7237 
    9000    130.29044   -8157.9212   -7343.1187   -690.09368     102002.7      46.7237      46.7237      46.7237 
   10000    132.73941   -8172.9378   -7342.8201   -734.81542     102002.7      46.7237      46.7237      46.7237 
   11000    132.57366   -8188.8292   -7359.7481   -769.03264     102002.7      46.7237      46.7237      46.7237 
   12000    132.85968   -8157.2238    -7326.354   -455.85585     102002.7      46.7237      46.7237      46.7237 
   13000    129.86718   -8161.9188   -7349.7633   -846.57113     102002.7      46.7237      46.7237      46.7237 
   14000    132.97059   -8158.3633   -7326.7999   -696.46046     102002.7      46.7237      46.7237      46.7237 
   15000    126.66263   -8150.1582   -7358.0431   -586.99106     102002.7      46.7237      46.7237      46.7237 
   16000    131.55776   -8155.1869   -7332.4589    -617.0516     102002.7      46.7237      46.7237      46.7237 
   17000    132.61042   -8188.7863   -7359.4753   -837.20787     102002.7      46.7237      46.7237      46.7237 
   18000    124.29845   -8197.6013   -7420.2712   -865.56154     102002.7      46.7237      46.7237      46.7237 
   19000    133.13482   -8176.4006   -7343.8101    -538.4391     102002.7      46.7237      46.7237      46.7237 
   20000    127.22345    -8133.078   -7337.4557   -1147.7501     102002.7      46.7237      46.7237      46.7237 
   21000    128.89821   -8163.8339   -7357.7381   -739.33183     102002.7      46.7237      46.7237      46.7237 
   22000      133.437   -8151.8795   -7317.3992   -994.88687     102002.7      46.7237      46.7237      46.7237 
   23000    131.67561   -8149.3504   -7325.8855   -943.78712     102002.7      46.7237      46.7237      46.7237 
   24000    132.84274   -8180.9356   -7350.1717   -800.72555     102002.7      46.7237      46.7237      46.7237 
   25000    134.06972   -8141.5896   -7303.1525   -733.34477     102002.7      46.7237      46.7237      46.7237 
   26000     131.5748   -8151.4189   -7328.5843   -370.34348     102002.7      46.7237      46.7237      46.7237 
   27000    130.35736   -8175.5989    -7360.378   -992.61123     102002.7      46.7237      46.7237      46.7237 
   28000    129.05606   -8145.6213   -7338.5383   -1006.8538     102002.7      46.7237      46.7237      46.7237 
   29000     136.2991   -8160.9817   -7308.6026   -816.29603     102002.7      46.7237      46.7237      46.7237 
   30000    131.62965   -8167.0439   -7343.8663   -914.08232     102002.7      46.7237      46.7237      46.7237 
   31000    130.42819   -8162.6168   -7346.9529   -458.78283     102002.7      46.7237      46.7237      46.7237 
   32000    129.36398    -8146.435   -7337.4264   -645.65704     102002.7      46.7237      46.7237      46.7237 
   33000    126.61709   -8162.3891   -7370.5588   -547.03297     102002.7      46.7237      46.7237      46.7237 
   34000    132.53613   -8171.2677   -7342.4212   -814.60738     102002.7      46.7237      46.7237      46.7237 
   35000     132.6504   -8147.1315   -7317.5704   -848.04366     102002.7      46.7237      46.7237      46.7237 
   36000    130.16409     -8168.78   -7354.7677   -1207.7388     102002.7      46.7237      46.7237      46.7237 
   37000    131.16367   -8175.0492   -7354.7858    -896.9176     102002.7      46.7237      46.7237      46.7237 
   38000    130.87456   -8162.0481   -7343.5927   -580.94757     102002.7      46.7237      46.7237      46.7237 
   39000    133.32914   -8137.6782   -7303.8725    -1028.615     102002.7      46.7237      46.7237      46.7237 
   40000    129.95287   -8155.6751   -7342.9837    -865.5979     102002.7      46.7237      46.7237      46.7237 
   41000    129.03074   -8122.9178   -7315.9931    -998.4737     102002.7      46.7237      46.7237      46.7237 
   42000     130.4067   -8156.9024   -7341.3729   -780.45732     102002.7      46.7237      46.7237      46.7237 
   43000    135.13014   -8159.8952   -7314.8265   -902.74121     102002.7      46.7237      46.7237      46.7237 
   44000     132.2216   -8155.7978   -7328.9184   -999.18577     102002.7      46.7237      46.7237      46.7237 
   45000    130.92007   -8148.1962   -7329.4562    -781.5011     102002.7      46.7237      46.7237      46.7237 
   46000    129.99665   -8146.0263   -7333.0611   -1138.7009     102002.7      46.7237      46.7237      46.7237 
   47000    126.77184   -8126.7117   -7333.9136   -916.19669     102002.7      46.7237      46.7237      46.7237 
   48000    129.55888   -8177.9909   -7367.7633   -1013.9277     102002.7      46.7237      46.7237      46.7237 
   49000    129.04727   -8147.6164   -7340.5883   -714.26712     102002.7      46.7237      46.7237      46.7237 
   50000    124.11914    -8166.236   -7390.0272   -684.63489     102002.7      46.7237      46.7237      46.7237 
   51000    126.18453   -8137.0241   -7347.8989   -776.20668     102002.7      46.7237      46.7237      46.7237 
   52000    131.41378   -8155.2319   -7333.4044   -643.45072     102002.7      46.7237      46.7237      46.7237 
   53000    131.00369   -8158.7898   -7339.5268    -842.6905     102002.7      46.7237      46.7237      46.7237 
   54000    131.55597   -8141.9564   -7319.2397   -666.95705     102002.7      46.7237      46.7237      46.7237 
   55000    127.25376   -8139.6545   -7343.8426   -904.89703     102002.7      46.7237      46.7237      46.7237 
   56000     125.8371   -8134.5012   -7347.5488   -705.69441     102002.7      46.7237      46.7237      46.7237 
   57000    129.37604   -8145.9507   -7336.8667   -903.79628     102002.7      46.7237      46.7237      46.7237 
   58000    128.65835   -8123.0418    -7318.446    -939.8826     102002.7      46.7237      46.7237      46.7237 
   59000    128.00026   -8137.3365   -7336.8562   -893.73804     102002.7      46.7237      46.7237      46.7237 
   60000    129.54176   -8116.5822   -7306.4618   -872.25271     102002.7      46.7237      46.7237      46.7237 
   61000    125.38244   -8149.5061    -7365.397   -624.68174     102002.7      46.7237      46.7237      46.7237 
   62000    128.74288   -8156.9956   -7351.8711   -839.57172     102002.7      46.7237      46.7237      46.7237 
   63000    132.35415   -8167.4512   -7339.7428   -707.97084     102002.7      46.7237      46.7237      46.7237 
   64000    132.91783   -8146.5972   -7315.3637   -839.97845     102002.7      46.7237      46.7237      46.7237 
   65000    129.42597   -8153.2421   -7343.8458   -1114.4389     102002.7      46.7237      46.7237      46.7237 
   66000    131.01619   -8160.6514   -7341.3103   -744.47288     102002.7      46.7237      46.7237      46.7237 
   67000    128.72982   -8143.6594   -7338.6166   -820.29348     102002.7      46.7237      46.7237      46.7237 
   68000    131.17547   -8186.7712   -7366.4339   -654.46085     102002.7      46.7237      46.7237      46.7237 
   69000     130.2069   -8134.8629   -7320.5828   -506.07277     102002.7      46.7237      46.7237      46.7237 
   70000    128.01988   -8161.4766   -7360.8736   -829.65592     102002.7      46.7237      46.7237      46.7237 
   71000     131.1923   -8140.8997   -7320.4573   -652.68831     102002.7      46.7237      46.7237      46.7237 
   72000     134.1193    -8155.219   -7316.4718   -785.74581     102002.7      46.7237      46.7237      46.7237 
   73000    129.26892   -8154.6911    -7346.277   -950.48194     102002.7      46.7237      46.7237      46.7237 
   74000    125.39409   -8157.8731   -7373.6911   -761.47232     102002.7      46.7237      46.7237      46.7237 
   75000    127.11618   -8125.0774    -7330.126   -1081.7644     102002.7      46.7237      46.7237      46.7237 
   76000    134.10449   -8157.0205   -7318.3659   -742.97053     102002.7      46.7237      46.7237      46.7237 
   77000    126.95374   -8160.2877   -7366.3521   -855.54301     102002.7      46.7237      46.7237      46.7237 
   78000    127.49277   -8144.9368   -7347.6302   -890.59294     102002.7      46.7237      46.7237      46.7237 
   79000    130.24627   -8130.4919   -7315.9656   -582.62709     102002.7      46.7237      46.7237      46.7237 
   80000    128.00818   -8138.3951   -7337.8653   -633.67383     102002.7      46.7237      46.7237      46.7237 
   81000     129.0161   -8124.7599   -7317.9268   -471.10798     102002.7      46.7237      46.7237      46.7237 
   82000    131.23672    -8135.947   -7315.2267    -474.8457     102002.7      46.7237      46.7237      46.7237 
   83000     129.3442   -8159.7265   -7350.8415    -556.1525     102002.7      46.7237      46.7237      46.7237 
   84000    129.89881   -8138.7247   -7326.3713   -601.99476     102002.7      46.7237      46.7237      46.7237 
   85000    131.83024   -8159.8345   -7335.4026   -747.35369     102002.7      46.7237      46.7237      46.7237 
   86000    123.56104   -8171.9128   -7399.1942   -687.98902     102002.7      46.7237      46.7237      46.7237 
   87000     128.2176   -8119.8332   -7317.9937   -995.16881     102002.7      46.7237      46.7237      46.7237 
   88000    124.87317   -8151.2896   -7370.3654   -1141.6191     102002.7      46.7237      46.7237      46.7237 
   89000    128.97799   -8158.1299   -7351.5351    -965.6802     102002.7      46.7237      46.7237      46.7237 
   90000    134.53465   -8158.6119   -7317.2672   -795.21678     102002.7      46.7237      46.7237      46.7237 
   91000    135.70475   -8154.4517   -7305.7895    -744.9721     102002.7      46.7237      46.7237      46.7237 
   92000    132.15536   -8133.4921    -7307.027   -866.91713     102002.7      46.7237      46.7237      46.7237 
   93000    129.16403   -8148.4326   -7340.6744   -832.89548     102002.7      46.7237      46.7237      46.7237 
   94000    130.62666   -8161.6979   -7344.7928   -770.32422     102002.7      46.7237      46.7237      46.7237 
   95000    132.48813   -8145.9713    -7317.425   -857.10028     102002.7      46.7237      46.7237      46.7237 
   96000     128.9324   -8140.4682   -7334.1585   -1088.7448     102002.7      46.7237      46.7237      46.7237 
   97000    133.04223   -8159.5597   -7327.5482   -686.45563     102002.7      46.7237      46.7237      46.7237 
   98000    125.74267    -8160.763   -7374.4011   -925.97542     102002.7      46.7237      46.7237      46.7237 
   99000    125.66063   -8152.1418    -7366.293   -789.26624     102002.7      46.7237      46.7237      46.7237 
  100000    130.10244   -8153.9066   -7340.2798   -942.54391     102002.7      46.7237      46.7237      46.7237 
  101000    130.69245   -8164.5394   -7347.2229   -555.49834     102002.7      46.7237      46.7237      46.7237 
  102000    134.02195   -8132.1798   -7294.0414   -353.25784     102002.7      46.7237      46.7237      46.7237 
  103000    127.46614   -8142.6274   -7345.4874   -533.51479     102002.7      46.7237      46.7237      46.7237 
  104000    131.76544   -8142.8656   -7318.8389   -754.30902     102002.7      46.7237      46.7237      46.7237 
  105000    134.55689   -8125.4953   -7284.0116   -824.63979     102002.7      46.7237      46.7237      46.7237 
  106000    129.04047   -8140.0117   -7333.0262   -908.58039     102002.7      46.7237      46.7237      46.7237 
  107000    128.18205     -8184.74   -7383.1228   -764.22798     102002.7      46.7237      46.7237      46.7237 
  108000    131.73549   -8157.1914   -7333.3519   -554.94111     102002.7      46.7237      46.7237      46.7237 
  109000    129.12395   -8167.9819   -7360.4744    -477.6194     102002.7      46.7237      46.7237      46.7237 
  110000    127.27304   -8138.8289   -7342.8965   -627.83016     102002.7      46.7237      46.7237      46.7237 
  111000    131.37922    -8132.836   -7311.2245   -990.71172     102002.7      46.7237      46.7237      46.7237 
  112000    128.33159   -8166.9018   -7364.3495   -777.68093     102002.7      46.7237      46.7237      46.7237 
  113000    129.74287   -8135.0071   -7323.6289    -803.8427     102002.7      46.7237      46.7237      46.7237 
  114000    129.72519    -8166.035   -7354.7675   -1032.4377     102002.7      46.7237      46.7237      46.7237 
  115000    128.85558   -8143.7596   -7337.9304   -630.13112     102002.7      46.7237      46.7237      46.7237 
  116000    133.57149   -8123.8974   -7288.5762   -649.16926     102002.7      46.7237      46.7237      46.7237 
  117000    133.93308   -8153.8729   -7316.2903   -714.23551     102002.7      46.7237      46.7237      46.7237 
  118000    127.07736   -8135.1332   -7340.4244     -760.483     102002.7      46.7237      46.7237      46.7237 
  119000    126.42242   -8131.9247   -7341.3118   -958.27977     102002.7      46.7237      46.7237      46.7237 
  120000    130.63734     -8158.02   -7341.0481   -897.53348     102002.7      46.7237      46.7237      46.7237 
  121000    126.94666   -8151.6391   -7357.7477   -1010.6066     102002.7      46.7237      46.7237      46.7237 
  122000    127.51937    -8132.344   -7334.8711   -893.84024     102002.7      46.7237      46.7237      46.7237 
  123000    127.91236   -8159.8986    -7359.968    -822.6739     102002.7      46.7237      46.7237      46.7237 
  124000    129.12207   -8115.8742   -7308.3785   -780.04309     102002.7      46.7237      46.7237      46.7237 
  125000     126.9089   -8181.4647   -7387.8095   -745.88339     102002.7      46.7237      46.7237      46.7237 
  126000    132.99727   -8160.5327   -7328.8025   -525.61303     102002.7      46.7237      46.7237      46.7237 
  127000    127.73223   -8147.2496   -7348.4455   -643.74756     102002.7      46.7237      46.7237      46.7237 
  128000    129.30993   -8158.0421   -7349.3715   -652.66631     102002.7      46.7237      46.7237      46.7237 
  129000    131.00791   -8137.3787   -7318.0893   -732.42087     102002.7      46.7237      46.7237      46.7237 
  130000    133.97857   -8148.5866   -7310.7196   -923.65847     102002.7      46.7237      46.7237      46.7237 
  131000    125.68058   -8128.0641   -7342.0905   -851.33204     102002.7      46.7237      46.7237      46.7237 
  132000    128.10259   -8124.7803   -7323.6601    -810.1557     102002.7      46.7237      46.7237      46.7237 
  133000    129.63812   -8164.1322   -7353.4091   -647.54866     102002.7      46.7237      46.7237      46.7237 
  134000    130.78654   -8124.4441   -7306.5392   -941.75328     102002.7      46.7237      46.7237      46.7237 
  135000     126.9757   -8167.2903   -7373.2174   -728.23826     102002.7      46.7237      46.7237      46.7237 
  136000    131.06088   -8155.0239   -7335.4033   -726.88136     102002.7      46.7237      46.7237      46.7237 
  137000    129.32045   -8144.4732   -7335.7368   -565.33421     102002.7      46.7237      46.7237      46.7237 
  138000    127.60962   -8150.5783    -7352.541   -779.27962     102002.7      46.7237      46.7237      46.7237 
  139000    129.92674   -8151.9287   -7339.4007   -774.58347     102002.7      46.7237      46.7237      46.7237 
  140000    134.22619   -8138.3278   -7298.9122   -570.03435     102002.7      46.7237      46.7237      46.7237 
  141000    129.81757   -8160.3071   -7348.4619     -604.674     102002.7      46.7237      46.7237      46.7237 
  142000    130.16736     -8139.48   -7325.4472   -547.06521     102002.7      46.7237      46.7237      46.7237 
  143000    129.28468   -8144.0714   -7335.5587   -709.60229     102002.7      46.7237      46.7237      46.7237 
  144000    133.71409   -8133.6167   -7297.4037   -653.04329     102002.7      46.7237      46.7237      46.7237 
  145000     131.0069   -8144.8368   -7325.5538   -700.47811     102002.7      46.7237      46.7237      46.7237 
  146000    130.28613   -8113.7977   -7299.0222   -701.29805     102002.7      46.7237      46.7237      46.7237 
  147000    127.82789   -8132.3015   -7332.8992   -610.85064     102002.7      46.7237      46.7237      46.7237 
  148000    130.09306    -8127.842   -7314.2739   -688.48101     102002.7      46.7237      46.7237      46.7237 
  149000    132.03052   -8134.4844   -7308.7999   -788.81335     102002.7      46.7237      46.7237      46.7237 
  150000     129.3305   -8150.0137   -7341.2145   -538.95665     102002.7      46.7237      46.7237      46.7237 
  151000     129.2567   -8136.5862   -7328.2485   -530.37195     102002.7      46.7237      46.7237      46.7237 
  152000    131.51616   -8154.2305   -7331.7626   -399.92713     102002.7      46.7237      46.7237      46.7237 
  153000    130.76334   -8164.1458    -7346.386   -639.81139     102002.7      46.7237      46.7237      46.7237 
  154000     129.2601    -8127.171    -7318.812   -672.27618     102002.7      46.7237      46.7237      46.7237 
  155000    130.01278   -8170.5275   -7357.4614   -619.50013     102002.7      46.7237      46.7237      46.7237 
  156000    130.05075   -8134.5812   -7321.2777   -701.97781     102002.7      46.7237      46.7237      46.7237 
  157000    127.87919   -8157.9794   -7358.2562   -862.33923     102002.7      46.7237      46.7237      46.7237 
  158000    128.91992   -8178.0769   -7371.8453   -801.26462     102002.7      46.7237      46.7237      46.7237 
  159000    132.26789   -8142.2711   -7315.1021   -913.81885     102002.7      46.7237      46.7237      46.7237 
  160000    129.28354   -8131.3249   -7322.8193   -671.47064     102002.7      46.7237      46.7237      46.7237 
  161000    128.58934   -8153.3685   -7349.2043   -619.08197     102002.7      46.7237      46.7237      46.7237 
  162000    133.39378   -8145.7543   -7311.5444   -936.12309     102002.7      46.7237      46.7237      46.7237 
  163000     127.7376   -8139.6506   -7340.8129   -591.22943     102002.7      46.7237      46.7237      46.7237 
  164000    130.30222   -8151.3872   -7336.5111   -741.51107     102002.7      46.7237      46.7237      46.7237 
  165000    133.84144   -8127.3509   -7290.3414   -1118.4324     102002.7      46.7237      46.7237      46.7237 
  166000    130.97522   -8113.2289    -7294.144   -686.41946     102002.7      46.7237      46.7237      46.7237 
  167000    133.25461   -8142.1866    -7308.847   -553.89254     102002.7      46.7237      46.7237      46.7237 
  168000     128.3709   -8154.5636   -7351.7655   -383.21083     102002.7      46.7237      46.7237      46.7237 
  169000    125.13878   -8123.5985   -7341.0132   -816.99249     102002.7      46.7237      46.7237      46.7237 
  170000    129.62608   -8127.4118   -7316.7641   -766.23539     102002.7      46.7237      46.7237      46.7237 
  171000    128.41645   -8128.1415   -7325.0584   -940.52307     102002.7      46.7237      46.7237      46.7237 
  172000    129.10646   -8134.1695   -7326.7713   -926.49263     102002.7      46.7237      46.7237      46.7237 
  173000    128.73139   -8128.2301   -7323.1775   -864.80052     102002.7      46.7237      46.7237      46.7237 
  174000     134.7291   -8130.1635   -7287.6028   -813.70919     102002.7      46.7237      46.7237      46.7237 
  175000    131.90464   -8141.9887   -7317.0915   -719.36753     102002.7      46.7237      46.7237      46.7237 
  176000    128.14038    -8168.958   -7367.6015   -774.27958     102002.7      46.7237      46.7237      46.7237 
  177000    131.34431   -8149.1031     -7327.71   -721.55881     102002.7      46.7237      46.7237      46.7237 
  178000    131.07833   -8161.8052   -7342.0754   -494.21491     102002.7      46.7237      46.7237      46.7237 
  179000     131.0966   -8152.0848   -7332.2408   -581.40689     102002.7      46.7237      46.7237      46.7237 
  180000    129.79223   -8136.0941   -7324.4073   -903.82284     102002.7      46.7237      46.7237      46.7237 
  181000    130.64776   -8143.5216   -7326.4845   -507.72114     102002.7      46.7237      46.7237      46.7237 
  182000    133.26509   -8159.8599   -7326.4547   -495.06692     102002.7      46.7237      46.7237      46.7237 
  183000    130.17362   -8113.0694   -7298.9974   -774.10596     102002.7      46.7237      46.7237      46.7237 
  184000    130.06886   -8158.9686   -7345.5518   -700.55595     102002.7      46.7237      46.7237      46.7237 
  185000    126.63509   -8140.9701   -7349.0272   -564.33837     102002.7      46.7237      46.7237      46.7237 
  186000      131.957   -8133.2513   -7308.0266   -648.84466     102002.7      46.7237      46.7237      46.7237 
  187000    134.19501   -8139.0273   -7299.8066     -434.224     102002.7      46.7237      46.7237      46.7237 
  188000    129.02132   -8162.5799   -7355.7142   -700.34068     102002.7      46.7237      46.7237      46.7237 
  189000    127.90238   -8137.1108   -7337.2426   -510.04811     102002.7      46.7237      46.7237      46.7237 
  190000    128.88937   -8138.0971   -7332.0566    -1055.589     102002.7      46.7237      46.7237      46.7237 
  191000    129.51259   -8124.7885   -7314.8505     -620.187     102002.7      46.7237      46.7237      46.7237 
  192000    133.70613   -8136.7086   -7300.5453   -487.40257     102002.7      46.7237      46.7237      46.7237 
  193000    129.05829    -8139.534   -7332.4371   -455.93566     102002.7      46.7237      46.7237      46.7237 
  194000    130.64704   -8118.7207   -7301.6881    -265.8737     102002.7      46.7237      46.7237      46.7237 
  195000    135.90413   -8149.9404   -7300.0313   -425.11545     102002.7      46.7237      46.7237      46.7237 
  196000    130.81909   -8122.1509   -7304.0424   -671.38548     102002.7      46.7237      46.7237      46.7237 
  197000    129.50104   -8122.3653   -7312.4995   -685.79792     102002.7      46.7237      46.7237      46.7237 
  198000    129.37601   -8150.9078    -7341.824   -887.51795     102002.7      46.7237      46.7237      46.7237 
  199000    130.37647   -8146.4893   -7331.1489    -659.7018     102002.7      46.7237      46.7237      46.7237 
  200000    129.34779   -8197.7091   -7388.8017   -503.10807     102002.7      46.7237      46.7237      46.7237 
  201000    131.33691   -8162.1261   -7340.7793   -885.55786     102002.7      46.7237      46.7237      46.7237 
  202000    129.79321   -8110.6365   -7298.9436   -732.23646     102002.7      46.7237      46.7237      46.7237 
  203000    129.04387   -8162.5378    -7355.531   -717.46684     102002.7      46.7237      46.7237      46.7237 
  204000    131.34359   -8118.1229   -7296.7343   -825.25449     102002.7      46.7237      46.7237      46.7237 
  205000    131.26536   -8159.3962   -7338.4968    -894.1289     102002.7      46.7237      46.7237      46.7237 
  206000    127.77602    -8170.345   -7371.2671   -781.45462     102002.7      46.7237      46.7237      46.7237 
  207000    132.31034   -8147.3306   -7319.8962   -887.48991     102002.7      46.7237      46.7237      46.7237 
  208000    127.14471   -8140.7906   -7345.6607   -595.55741     102002.7      46.7237      46.7237      46.7237 
  209000    129.61528   -8124.0816   -7313.5014   -749.68201     102002.7      46.7237      46.7237      46.7237 
  210000    124.60658   -8162.2831    -7383.026   -928.84383     102002.7      46.7237      46.7237      46.7237 
  211000    130.38824   -8145.1024   -7329.6883   -793.29846     102002.7      46.7237      46.7237      46.7237 
  212000    129.28996   -8140.2618   -7331.7161    -784.0449     102002.7      46.7237      46.7237      46.7237 
  213000    130.35049   -8137.0169   -7321.8389   -721.66917     102002.7      46.7237      46.7237      46.7237 
  214000    130.50136   -8144.6725    -7328.551   -829.20689     102002.7      46.7237      46.7237      46.7237 
  215000    125.89513   -8118.0298   -7330.7145   -929.35531     102002.7      46.7237      46.7237      46.7237 
  216000    128.86333   -8136.6827    -7330.805   -869.80418     102002.7      46.7237      46.7237      46.7237 
  217000    131.99735   -8174.3694   -7348.8924   -750.99443     102002.7      46.7237      46.7237      46.7237 
  218000     129.2655   -8153.9985   -7345.6058   -544.33177     102002.7      46.7237      46.7237      46.7237 
  219000    127.13114   -8144.4031   -7349.3581   -809.74015     102002.7      46.7237      46.7237      46.7237 
  220000    133.44747   -8152.7862   -7318.2405   -690.25963     102002.7      46.7237      46.7237      46.7237 
  221000    128.95077   -8156.5722   -7350.1477   -545.37404     102002.7      46.7237      46.7237      46.7237 
  222000    126.54175   -8136.8677   -7345.5086   -836.21016     102002.7      46.7237      46.7237      46.7237 
  223000    128.84234   -8148.1124    -7342.366   -804.76934     102002.7      46.7237      46.7237      46.7237 
  224000    131.44922   -8100.5552    -7278.506   -625.07162     102002.7      46.7237      46.7237      46.7237 
  225000    130.77032   -8130.4478   -7312.6443   -886.08443     102002.7      46.7237      46.7237      46.7237 
  226000     129.7906   -8142.2894   -7330.6128   -913.03224     102002.7      46.7237      46.7237      46.7237 
  227000    128.15701   -8169.5717   -7368.1112   -934.78982     102002.7      46.7237      46.7237      46.7237 
  228000    130.62601   -8163.5625   -7346.6615   -849.92233     102002.7      46.7237      46.7237      46.7237 
  229000    133.99643   -8107.0754   -7269.0966   -692.39035     102002.7      46.7237      46.7237      46.7237 
  230000    126.45196    -8142.174   -7351.3764     -634.181     102002.7      46.7237      46.7237      46.7237 
  231000    132.16622   -8145.5193   -7318.9862   -901.26547     102002.7      46.7237      46.7237      46.7237 
  232000      124.951   -8139.0728   -7357.6618   -723.46583     102002.7      46.7237      46.7237      46.7237 
  233000    127.55133   -8156.7199   -7359.0471   -1060.3526     102002.7      46.7237      46.7237      46.7237 
  234000    131.70977   -8141.7145   -7318.0359   -848.81275     102002.7      46.7237      46.7237      46.7237 
  235000    129.63617   -8166.4959   -7355.7851   -869.46438     102002.7      46.7237      46.7237      46.7237 
  236000    129.01235   -8133.5149   -7326.7053   -741.26722     102002.7      46.7237      46.7237      46.7237 
  237000    130.79071   -8132.5303   -7314.5992   -710.60258     102002.7      46.7237      46.7237      46.7237 
  238000    127.67271   -8141.6614   -7343.2295   -727.68177     102002.7      46.7237      46.7237      46.7237 
  239000    130.60419   -8157.3705   -7340.6059    -818.6945     102002.7      46.7237      46.7237      46.7237 
  240000    128.98823   -8140.8662   -7334.2074   -792.18773     102002.7      46.7237      46.7237      46.7237 
  241000    131.50479   -8153.9502   -7331.5535   -626.69739     102002.7      46.7237      46.7237      46.7237 
  242000    131.70593   -8136.9674   -7313.3128   -580.56507     102002.7      46.7237      46.7237      46.7237 
  243000     131.6476   -8108.7899   -7285.5001   -290.59237     102002.7      46.7237      46.7237      46.7237 
  244000    128.21229   -8149.2773    -7347.471   -526.05582     102002.7      46.7237      46.7237      46.7237 
  245000    129.92809   -8124.3523   -7311.8159    -835.8909     102002.7      46.7237      46.7237      46.7237 
  246000    129.37269   -8138.4676   -7329.4045   -775.02005     102002.7      46.7237      46.7237      46.7237 
  247000    134.01232   -8108.0963   -7270.0182   -809.65842     102002.7      46.7237      46.7237      46.7237 
  248000      128.536   -8127.0812   -7323.2505   -838.47413     102002.7      46.7237      46.7237      46.7237 
  249000    128.76941   -8129.5179   -7324.2276   -811.39653     102002.7      46.7237      46.7237      46.7237 
  250000    131.08535   -8124.4314   -7304.6577   -956.30714     102002.7      46.7237      46.7237      46.7237 
  251000    129.87941   -8097.9572   -7285.7252   -986.84063     102002.7      46.7237      46.7237      46.7237 
  252000     126.0097   -8136.7988    -7348.767   -926.20997     102002.7      46.7237      46.7237      46.7237 
  253000    128.17908    -8104.134   -7302.5355   -642.20707     102002.7      46.7237      46.7237      46.7237 
  254000    127.24541    -8131.944   -7336.1844    -969.3559     102002.7      46.7237      46.7237      46.7237 
  255000    132.29765   -8122.3931   -7295.0381   -852.33013     102002.7      46.7237      46.7237      46.7237 
  256000     126.2576   -8132.6239   -7343.0418   -401.50211     102002.7      46.7237      46.7237      46.7237 
  257000    129.21828   -8147.7609   -7339.6635   -855.46582     102002.7      46.7237      46.7237      46.7237 
  258000    131.02566   -8148.6158   -7329.2155   -1024.9394     102002.7      46.7237      46.7237      46.7237 
  259000    129.28709   -8135.6136   -7327.0858   -661.05999     102002.7      46.7237      46.7237      46.7237 
  260000     129.0134   -8160.5949   -7353.7786   -670.64679     102002.7      46.7237      46.7237      46.7237 
  261000    131.05558   -8141.7699   -7322.1824   -681.53429     102002.7      46.7237      46.7237      46.7237 
  262000    129.21373   -8158.5335   -7350.4645   -642.38006     102002.7      46.7237      46.7237      46.7237 
  263000    131.35765   -8134.4283   -7312.9517    -854.6031     102002.7      46.7237      46.7237      46.7237 
  264000    130.58372   -8113.4491   -7296.8125   -721.90845     102002.7      46.7237      46.7237      46.7237 
  265000    130.03026   -8145.2188   -7332.0434    -821.0705     102002.7      46.7237      46.7237      46.7237 
  266000    130.89503   -8103.6021   -7285.0187   -601.74856     102002.7      46.7237      46.7237      46.7237 
  267000    129.40772   -8137.8909   -7328.6087   -471.42699     102002.7      46.7237      46.7237      46.7237 
  268000    130.18332   -8126.2108   -7312.0783   -794.69134     102002.7      46.7237      46.7237      46.7237 
  269000    130.66389   -8136.8439    -7319.706   -1151.9519     102002.7      46.7237      46.7237      46.7237 
  270000    130.26294   -8147.4904   -7332.8599   -1107.8623     102002.7      46.7237      46.7237      46.7237 
  271000    130.27603   -8162.8043   -7348.0919   -659.15158     102002.7      46.7237      46.7237      46.7237 
  272000     127.9933   -8140.3391   -7339.9024   -827.68599     102002.7      46.7237      46.7237      46.7237 
  273000    130.73468   -8134.0739   -7316.4932   -959.89555     102002.7      46.7237      46.7237      46.7237 
  274000    132.25132   -8146.9841   -7319.9188   -577.06801     102002.7      46.7237      46.7237      46.7237 
  275000    131.35109   -8151.9446   -7330.5091   -913.42746     102002.7      46.7237      46.7237      46.7237 
  276000    124.88607   -8145.7772   -7364.7723   -827.07142     102002.7      46.7237      46.7237      46.7237 
  277000    128.53893   -8152.1496   -7348.3007   -565.12174     102002.7      46.7237      46.7237      46.7237 
  278000    127.33448   -8126.8797    -7330.563   -911.87532     102002.7      46.7237      46.7237      46.7237 
  279000    128.86759   -8132.9577   -7327.0534   -686.42369     102002.7      46.7237      46.7237      46.7237 
  280000    125.95871   -8137.3238   -7349.6108   -844.60842     102002.7      46.7237      46.7237      46.7237 
  281000    132.75264   -8143.1085   -7312.9081   -841.87476     102002.7      46.7237      46.7237      46.7237 
  282000    130.18435   -8147.8346   -7333.6956   -826.94369     102002.7      46.7237      46.7237      46.7237 
  283000    126.15859   -8168.5393   -7379.5764    -598.2811     102002.7      46.7237      46.7237      46.7237 
  284000    134.71464   -8154.4549   -7311.9847   -917.02959     102002.7      46.7237      46.7237      46.7237 
  285000    128.54528   -8142.4933   -7338.6046   -852.44287     102002.7      46.7237      46.7237      46.7237 
  286000    129.01497   -8155.6064   -7348.7804   -533.54335     102002.7      46.7237      46.7237      46.7237 
  287000    129.63992    -8156.743   -7346.0087   -843.14473     102002.7      46.7237      46.7237      46.7237 
  288000    129.82143    -8124.852   -7312.9826   -750.82274     102002.7      46.7237      46.7237      46.7237 
  289000    131.52967   -8158.1931   -7335.6409   -687.44002     102002.7      46.7237      46.7237      46.7237 
  290000    127.66958   -8123.4837   -7325.0714   -969.30809     102002.7      46.7237      46.7237      46.7237 
  291000    133.25688   -8170.6387   -7337.2849   -884.52524     102002.7      46.7237      46.7237      46.7237 
  292000    129.72754   -8129.2164   -7317.9341   -750.82773     102002.7      46.7237      46.7237      46.7237 
  293000     134.4657    -8143.272   -7302.3586   -890.20055     102002.7      46.7237      46.7237      46.7237 
  294000    127.02933   -8134.3177   -7339.9094   -701.89643     102002.7      46.7237      46.7237      46.7237 
  295000    127.94924   -8132.6458   -7332.4845   -512.20358     102002.7      46.7237      46.7237      46.7237 
  296000    133.01592   -8135.5715   -7303.7245   -573.17831     102002.7      46.7237      46.7237      46.7237 
  297000    134.38417   -8135.6456    -7295.242   -542.09892     102002.7      46.7237      46.7237      46.7237 
  298000    129.73523   -8137.8959   -7326.5656   -807.88537     102002.7      46.7237      46.7237      46.7237 
  299000    134.84128   -8134.4623   -7291.2001   -735.05333     102002.7      46.7237      46.7237      46.7237 
  300000    128.99119   -8156.6015   -7349.9241   -603.44765     102002.7      46.7237      46.7237      46.7237 
  301000     130.5442    -8111.272   -7294.8825   -669.42316     102002.7      46.7237      46.7237      46.7237 
  302000    129.63182   -8154.0663   -7343.3826   -796.42323     102002.7      46.7237      46.7237      46.7237 
  303000    129.41332   -8154.6942    -7345.377   -491.05426     102002.7      46.7237      46.7237      46.7237 
  304000    128.14285   -8116.9289   -7315.5569   -976.14775     102002.7      46.7237      46.7237      46.7237 
  305000    131.51367   -8147.3463   -7324.8941   -922.18667     102002.7      46.7237      46.7237      46.7237 
  306000    130.07957   -8151.3603   -7337.8766    -716.1417     102002.7      46.7237      46.7237      46.7237 
  307000    127.88271   -8123.3136   -7323.5685   -604.44568     102002.7      46.7237      46.7237      46.7237 
  308000    133.44191   -8095.7384   -7261.2275   -652.64368     102002.7      46.7237      46.7237      46.7237 
  309000    130.57946   -8139.4042   -7322.7942    -617.5159     102002.7      46.7237      46.7237      46.7237 
  310000    128.18189   -8129.1909   -7327.5748   -674.94429     102002.7      46.7237      46.7237      46.7237 
  311000    131.08762   -8092.5525   -7272.7647   -514.98835     102002.7      46.7237      46.7237      46.7237 
  312000    128.58898   -8113.2639   -7309.1019   -956.66443     102002.7      46.7237      46.7237      46.7237 
  313000    128.00391   -8168.6836   -7368.1805   -822.08059     102002.7      46.7237      46.7237      46.7237 
  314000    128.33017   -8123.6532   -7321.1097   -925.25084     102002.7      46.7237      46.7237      46.7237 
  315000    126.24461   -8126.3514   -7336.8505    -876.8014     102002.7      46.7237      46.7237      46.7237 
  316000    128.95614   -8093.8081     -7287.35   -1021.5682     102002.7      46.7237      46.7237      46.7237 
  317000    126.59665   -8155.0478   -7363.3454   -643.37182     102002.7      46.7237      46.7237      46.7237 
  318000    130.76668     -8139.78   -7321.9992   -629.39971     102002.7      46.7237      46.7237      46.7237 
  319000    131.16178   -8151.1609   -7330.9093   -900.68013     102002.7      46.7237      46.7237      46.7237 
  320000    133.29291   -8134.7806   -7301.2015   -1058.3919     102002.7      46.7237      46.7237      46.7237 
  321000    129.20813   -8156.3307   -7348.2968   -548.56788     102002.7      46.7237      46.7237      46.7237 
  322000    132.01191   -8139.3871   -7313.8189   -802.65932     102002.7      46.7237      46.7237      46.7237 
  323000    127.99453   -8116.3918   -7315.9473   -788.80831     102002.7      46.7237      46.7237      46.7237 
  324000    131.27102   -8117.7973   -7296.8626   -614.07506     102002.7      46.7237      46.7237      46.7237 
  325000    130.00676   -8151.4776   -7338.4492   -1029.1965     102002.7      46.7237      46.7237      46.7237 
  326000    134.16725   -8120.1209   -7281.0738   -436.45545     102002.7      46.7237      46.7237      46.7237 
  327000    130.80682   -8154.4527   -7336.4209   -991.82958     102002.7      46.7237      46.7237      46.7237 
  328000    133.34252   -8138.4165   -7304.5271   -864.37528     102002.7      46.7237      46.7237      46.7237 
  329000    126.13265   -8136.8678    -7348.067    -997.9864     102002.7      46.7237      46.7237      46.7237 
  330000    127.62919   -8167.4862   -7369.3265    -790.5731     102002.7      46.7237      46.7237      46.7237 
  331000    131.16287   -8172.0463   -7351.7879   -646.78096     102002.7      46.7237      46.7237      46.7237 
  332000    127.28637   -8172.6275   -7376.6117   -620.19305     102002.7      46.7237      46.7237      46.7237 
  333000     132.8353   -8157.7427   -7327.0253   -684.18286     102002.7      46.7237      46.7237      46.7237 
  334000    129.93319   -8154.5298   -7341.9615   -475.40976     102002.7      46.7237      46.7237      46.7237 
  335000    129.35222   -8151.6878   -7342.7527   -806.65503     102002.7      46.7237      46.7237      46.7237 
  336000    131.45563   -8130.1325   -7308.0432   -714.97105     102002.7      46.7237      46.7237      46.7237 
  337000    130.63397   -8146.8561   -7329.9053   -697.49053     102002.7      46.7237      46.7237      46.7237 
  338000    131.18637    -8139.544   -7319.1386   -854.79252     102002.7      46.7237      46.7237      46.7237 
  339000     127.1487   -8145.9846   -7350.8298   -732.89875     102002.7      46.7237      46.7237      46.7237 
  340000    130.19333   -8132.6407   -7318.4455   -860.72469     102002.7      46.7237      46.7237      46.7237 
  341000    131.49571   -8141.7675   -7319.4276    -700.4434     102002.7      46.7237      46.7237      46.7237 
  342000    131.07144    -8142.982   -7323.2953   -538.52023     102002.7      46.7237      46.7237      46.7237 
  343000    126.75341   -8153.0818    -7360.399   -270.32828     102002.7      46.7237      46.7237      46.7237 
  344000    132.17068   -8148.7686   -7322.2077   -697.14546     102002.7      46.7237      46.7237      46.7237 
  345000    127.72461    -8140.156   -7341.3996   -866.29485     102002.7      46.7237      46.7237      46.7237 
  346000    124.82029   -8176.3038   -7395.7102   -661.54574     102002.7      46.7237      46.7237      46.7237 
  347000    129.44136   -8125.8056   -7316.3131   -875.17158     102002.7      46.7237      46.7237      46.7237 
  348000    128.24306    -8141.294   -7339.2953   -654.53928     102002.7      46.7237      46.7237      46.7237 
  349000    132.03396   -8135.3105   -7309.6045   -789.02373     102002.7      46.7237      46.7237      46.7237 
  350000    128.78699   -8134.9475   -7329.5472   -646.01743     102002.7      46.7237      46.7237      46.7237 
  351000    130.44074   -8121.1642   -7305.4218   -706.22208     102002.7      46.7237      46.7237      46.7237 
  352000    127.05278   -8158.6615   -7364.1065   -833.80874     102002.7      46.7237      46.7237      46.7237 
  353000    132.72543   -8157.2989   -7327.2686   -448.67492     102002.7      46.7237      46.7237      46.7237 
  354000    130.09107   -8124.7721   -7311.2165   -853.26898     102002.7      46.7237      46.7237      46.7237 
  355000    131.64899    -8162.819   -7339.5206   -599.56609     102002.7      46.7237      46.7237      46.7237 
  356000    126.86909   -8157.8025   -7364.3963   -757.21363     102002.7      46.7237      46.7237      46.7237 
  357000    131.67933   -8172.6702    -7349.182   -938.48815     102002.7      46.7237      46.7237      46.7237 
  358000    127.01715   -8176.9683   -7382.6361   -631.36719     102002.7      46.7237      46.7237      46.7237 
  359000    130.84485   -8144.7167   -7326.4471   -665.70674     102002.7      46.7237      46.7237      46.7237 
  360000    130.97967    -8106.786   -7287.6733   -852.59742     102002.7      46.7237      46.7237      46.7237 
  361000    132.02568   -8136.0798   -7310.4257    -686.3341     102002.7      46.7237      46.7237      46.7237 
  362000    131.03097   -8167.0643   -7347.6307   -578.81517     102002.7      46.7237      46.7237      46.7237 
  363000     132.0278   -8115.5801   -7289.9126   -1084.4214     102002.7      46.7237      46.7237      46.7237 
  364000    128.08362   -8133.6914   -7332.6898   -862.73363     102002.7      46.7237      46.7237      46.7237 
  365000    126.95503   -8165.6076   -7371.6639   -837.41964     102002.7      46.7237      46.7237      46.7237 
  366000    128.07931   -8152.6133   -7351.6387   -723.14151     102002.7      46.7237      46.7237      46.7237 
  367000    134.96317   -8137.0897   -7293.0651   -611.34965     102002.7      46.7237      46.7237      46.7237 
  368000    129.00615   -8132.2529   -7325.4821   -635.74097     102002.7      46.7237      46.7237      46.7237 
  369000    128.21504   -8135.0209   -7333.1974   -721.19402     102002.7      46.7237      46.7237      46.7237 
  370000    128.93844   -8160.2461   -7353.8987   -968.76723     102002.7      46.7237      46.7237      46.7237 
  371000    133.21683    -8158.702   -7325.5986    -871.6288     102002.7      46.7237      46.7237      46.7237 
  372000    131.91198     -8145.75   -7320.8068   -1000.6942     102002.7      46.7237      46.7237      46.7237 
  373000    132.48413   -8138.9534   -7310.4322   -643.45916     102002.7      46.7237      46.7237      46.7237 
  374000    129.81016   -8135.2145   -7323.4156   -1054.6215     102002.7      46.7237      46.7237      46.7237 
  375000    133.21407   -8125.5456   -7292.4595   -829.90803     102002.7      46.7237      46.7237      46.7237 
  376000    128.63728   -8144.0404   -7339.5763   -571.88063     102002.7      46.7237      46.7237      46.7237 
  377000    132.18524   -8133.2988   -7306.6468   -448.82501     102002.7      46.7237      46.7237      46.7237 
  378000     131.1956   -8158.1827   -7337.7196   -296.38562     102002.7      46.7237      46.7237      46.7237 
  379000    129.84246   -8113.4034   -7301.4025   -488.85897     102002.7      46.7237      46.7237      46.7237 
  380000    130.85544   -8162.2471   -7343.9113   -839.26692     102002.7      46.7237      46.7237      46.7237 
  381000    126.01151   -8136.8618   -7348.8187   -866.49537     102002.7      46.7237      46.7237      46.7237 
  382000    129.76874     -8138.85   -7327.3101   -965.40051     102002.7      46.7237      46.7237      46.7237 
  383000    128.63813   -8161.6187   -7357.1494   -875.67993     102002.7      46.7237      46.7237      46.7237 
  384000    129.37114   -8173.8784    -7364.825   -917.28879     102002.7      46.7237      46.7237      46.7237 
  385000    129.95337   -8157.6004   -7344.9058   -865.76647     102002.7      46.7237      46.7237      46.7237 
  386000    127.88334   -8132.1184   -7332.3693   -771.37615     102002.7      46.7237      46.7237      46.7237 
  387000    132.10773   -8140.1126   -7313.9453   -563.72462     102002.7      46.7237      46.7237      46.7237 
  388000    127.15212   -8132.7236   -7337.5474   -392.10415     102002.7      46.7237      46.7237      46.7237 
  389000    130.45327   -8141.6302   -7325.8094   -726.14084     102002.7      46.7237      46.7237      46.7237 
  390000    131.51996   -8145.7297   -7323.2382   -760.14002     102002.7      46.7237      46.7237      46.7237 
  391000    128.74783   -8151.4854     -7346.33   -806.15003     102002.7      46.7237      46.7237      46.7237 
  392000    135.38965   -8117.4554   -7270.7638   -796.80359     102002.7      46.7237      46.7237      46.7237 
  393000     130.4595   -8139.0801   -7323.2204   -565.70139     102002.7      46.7237      46.7237      46.7237 
  394000    130.87551   -8158.3028   -7339.8414   -618.89207     102002.7      46.7237      46.7237      46.7237 
  395000    130.98711   -8137.4829   -7318.3237   -787.27892     102002.7      46.7237      46.7237      46.7237 
  396000    134.88095   -8150.8886   -7307.3783   -994.28976     102002.7      46.7237      46.7237      46.7237 
  397000    133.32476   -8155.2328   -7321.4544   -535.05938     102002.7      46.7237      46.7237      46.7237 
  398000    132.15769   -8105.8203   -7279.3405   -502.16933     102002.7      46.7237      46.7237      46.7237 
  399000    131.60262   -8121.6107   -7298.6022   -486.73637     102002.7      46.7237      46.7237      46.7237 
  400000    130.48965   -8141.7632   -7325.7149   -634.90303     102002.7      46.7237      46.7237      46.7237 
  401000    128.08957   -8116.2796   -7315.2408   -611.26389     102002.7      46.7237      46.7237      46.7237 
  402000    126.41442   -8132.1437   -7341.5808   -953.25332     102002.7      46.7237      46.7237      46.7237 
  403000    129.48205   -8134.0311   -7324.2841   -566.36168     102002.7      46.7237      46.7237      46.7237 
  404000    131.23948   -8128.7235    -7307.986    -820.1981     102002.7      46.7237      46.7237      46.7237 
  405000    132.67069   -8146.9212   -7317.2333   -739.54592     102002.7      46.7237      46.7237      46.7237 
  406000    129.72191   -8138.0628   -7326.8157   -692.64721     102002.7      46.7237      46.7237      46.7237 
  407000    132.01185   -8137.7588   -7312.1911   -731.70897     102002.7      46.7237      46.7237      46.7237 
  408000    135.75694   -8108.1704   -7259.1818   -478.56825     102002.7      46.7237      46.7237      46.7237 
  409000     127.7208   -8122.0849   -7323.3523   -452.28243     102002.7      46.7237      46.7237      46.7237 
  410000    130.37196   -8117.1374   -7301.8252   -663.21778     102002.7      46.7237      46.7237      46.7237 
  411000    133.68113   -8137.2284   -7301.2214   -459.14727     102002.7      46.7237      46.7237      46.7237 
  412000     131.9752   -8151.8735    -7326.535   -474.33759     102002.7      46.7237      46.7237      46.7237 
  413000    132.21232   -8119.1676   -7292.3462   -552.65698     102002.7      46.7237      46.7237      46.7237 
  414000    130.80641   -8151.7126   -7333.6834    -760.3743     102002.7      46.7237      46.7237      46.7237 
  415000    127.23681   -8134.1163   -7338.4104   -699.32465     102002.7      46.7237      46.7237      46.7237 
  416000    128.56666    -8168.149   -7364.1265   -674.92036     102002.7      46.7237      46.7237      46.7237 
  417000    129.53567   -8147.4128   -7337.3305   -833.74686     102002.7      46.7237      46.7237      46.7237 
  418000    130.70138   -8145.0871   -7327.7148   -759.50407     102002.7      46.7237      46.7237      46.7237 
  419000    131.86473   -8139.0985   -7314.4508   -672.24371     102002.7      46.7237      46.7237      46.7237 
  420000    134.16464   -8156.5844   -7317.5537    -906.7052     102002.7      46.7237      46.7237      46.7237 
  421000    126.11896   -8158.3983   -7369.6832   -958.82564     102002.7      46.7237      46.7237      46.7237 
  422000    133.54429   -8145.2918   -7310.1406   -874.62508     102002.7      46.7237      46.7237      46.7237 
  423000    130.70727   -8161.7268   -7344.3176   -644.97672     102002.7      46.7237      46.7237      46.7237 
  424000    127.76357   -8149.6368   -7350.6367   -696.85041     102002.7      46.7237      46.7237      46.7237 
  425000     128.6953   -8149.7208    -7344.894   -679.21584     102002.7      46.7237      46.7237      46.7237 
  426000    129.64381   -8160.1198   -7349.3612   -776.33954     102002.7      46.7237      46.7237      46.7237 
  427000    131.12659   -8108.3074   -7288.2759   -608.11143     102002.7      46.7237      46.7237      46.7237 
  428000    129.02223   -8119.8227   -7312.9513   -847.62838     102002.7      46.7237      46.7237      46.7237 
  429000    129.35777   -8127.1777   -7318.2079   -684.76125     102002.7      46.7237      46.7237      46.7237 
  430000    127.36958   -8145.9064   -7349.3702    -918.4749     102002.7      46.7237      46.7237      46.7237 
  431000    126.30106   -8169.0159    -7379.162   -482.59997     102002.7      46.7237      46.7237      46.7237 
  432000    133.56929   -8149.2118   -7313.9043   -518.68984     102002.7      46.7237      46.7237      46.7237 
  433000    132.28243   -8120.3006   -7293.0408   -942.40231     102002.7      46.7237      46.7237      46.7237 
  434000    128.64029   -8130.2566   -7325.7738   -966.65236     102002.7      46.7237      46.7237      46.7237 
  435000    128.40492   -8140.5632   -7337.5523   -1005.0661     102002.7      46.7237      46.7237      46.7237 
  436000    130.20345   -8129.0555   -7314.7971   -531.05204     102002.7      46.7237      46.7237      46.7237 
  437000     133.0697   -8142.5683   -7310.3851   -649.56237     102002.7      46.7237      46.7237      46.7237 
  438000    130.43585   -8143.0693   -7327.3575   -628.79216     102002.7      46.7237      46.7237      46.7237 
  439000    129.54551   -8121.6388   -7311.4949   -647.12141     102002.7      46.7237      46.7237      46.7237 
  440000    129.22889   -8141.0937   -7332.9299   -757.45998     102002.7      46.7237      46.7237      46.7237 
  441000    129.77719   -8127.8721   -7316.2794   -843.62755     102002.7      46.7237      46.7237      46.7237 
  442000    132.20591   -8144.1421   -7317.3608   -825.36421     102002.7      46.7237      46.7237      46.7237 
  443000    128.33965   -8165.9619   -7363.3591   -730.62408     102002.7      46.7237      46.7237      46.7237 
  444000    131.44313    -8131.351   -7309.3399   -845.88562     102002.7      46.7237      46.7237      46.7237 
  445000    133.49091   -8146.5052   -7311.6878   -889.15559     102002.7      46.7237      46.7237      46.7237 
  446000    129.07989   -8149.8467   -7342.6147    -857.3153     102002.7      46.7237      46.7237      46.7237 
  447000    130.09169   -8124.2467   -7310.6872   -1143.9635     102002.7      46.7237      46.7237      46.7237 
  448000    130.10953   -8132.9151    -7319.244    -662.5678     102002.7      46.7237      46.7237      46.7237 
  449000    129.40605   -8144.7963   -7335.5246   -826.41956     102002.7      46.7237      46.7237      46.7237 
  450000    128.36646   -8144.2477   -7341.4773   -547.76952     102002.7      46.7237      46.7237      46.7237 
  451000    132.50551   -8153.5308   -7324.8759   -681.75891     102002.7      46.7237      46.7237      46.7237 
  452000    132.99726    -8153.139   -7321.4088   -547.09466     102002.7      46.7237      46.7237      46.7237 
  453000    128.22786   -8124.8307   -7322.9271   -336.09909     102002.7      46.7237      46.7237      46.7237 
  454000    131.49852   -8149.1489   -7326.7914   -608.28105     102002.7      46.7237      46.7237      46.7237 
  455000    131.84827   -8151.6726   -7327.1278   -527.24065     102002.7      46.7237      46.7237      46.7237 
  456000    126.17122   -8114.5966   -7325.5546   -580.49747     102002.7      46.7237      46.7237      46.7237 
  457000    134.67606   -8127.0271   -7284.7981   -641.94518     102002.7      46.7237      46.7237      46.7237 
  458000    131.86871   -8112.0993   -7287.4267   -547.52044     102002.7      46.7237      46.7237      46.7237 
  459000      126.664   -8126.6375   -7334.5139   -630.35462     102002.7      46.7237      46.7237      46.7237 
  460000     133.0514   -8132.3265   -7300.2578   -853.78726     102002.7      46.7237      46.7237      46.7237 
  461000    131.33017   -8152.1649   -7330.8603   -965.63474     102002.7      46.7237      46.7237      46.7237 
  462000     133.0768   -8120.1401   -7287.9124    -544.5854     102002.7      46.7237      46.7237      46.7237 
  463000    134.47773   -8151.8998   -7310.9111   -786.07841     102002.7      46.7237      46.7237      46.7237 
  464000    133.14409    -8150.157   -7317.5085   -886.98457     102002.7      46.7237      46.7237      46.7237 
  465000     130.2809   -8134.4174   -7319.6746   -917.25966     102002.7      46.7237      46.7237      46.7237 
  466000    128.90069   -8134.7582   -7328.6469   -1160.0906     102002.7      46.7237      46.7237      46.7237 
  467000    126.78135   -8130.3351   -7337.4776   -832.18963     102002.7      46.7237      46.7237      46.7237 
  468000    127.41227   -8134.2188   -7337.4157   -877.37462     102002.7      46.7237      46.7237      46.7237 
  469000    131.27617   -8117.5248   -7296.5578   -644.04429     102002.7      46.7237      46.7237      46.7237 
  470000    128.66602   -8113.1719   -7308.5281     -625.619     102002.7      46.7237      46.7237      46.7237 
  471000    129.81948   -8164.2476   -7352.3904   -440.87304     102002.7      46.7237      46.7237      46.7237 
  472000    134.27812   -8133.5536   -7293.8133   -659.81028     102002.7      46.7237      46.7237      46.7237 
  473000    128.85464    -8147.509   -7341.6856    -661.9469     102002.7      46.7237      46.7237      46.7237 
  474000    132.45409   -8142.6321   -7314.2987   -599.33335     102002.7      46.7237      46.7237      46.7237 
  475000    132.46959   -8128.8201   -7300.3898   -822.14572     102002.7      46.7237      46.7237      46.7237 
  476000    130.99537   -8124.6863   -7305.4754   -613.09784     102002.7      46.7237      46.7237      46.7237 
  477000    129.05611   -8164.6537   -7357.5704   -653.53454     102002.7      46.7237      46.7237      46.7237 
  478000    127.72771   -8118.6522   -7319.8764   -673.16958     102002.7      46.7237      46.7237      46.7237 
  479000    128.91369   -8156.1394   -7349.9467   -461.16982     102002.7      46.7237      46.7237      46.7237 
  480000    126.36198   -8139.4827   -7349.2478   -894.08191     102002.7      46.7237      46.7237      46.7237 
  481000    131.04149    -8133.611   -7314.1116   -755.12812     102002.7      46.7237      46.7237      46.7237 
  482000    133.67056   -8137.5368    -7301.596   -659.70512     102002.7      46.7237      46.7237      46.7237 
  483000    129.44684   -8124.6791   -7315.1522   -760.73351     102002.7      46.7237      46.7237      46.7237 
  484000     131.5064   -8110.7692   -7288.3624   -691.51472     102002.7      46.7237      46.7237      46.7237 
  485000     128.5357   -8098.8244   -7294.9956   -855.61129     102002.7      46.7237      46.7237      46.7237 
  486000    127.91917   -8139.1739   -7339.2007   -896.51802     102002.7      46.7237      46.7237      46.7237 
  487000     130.1189    -8121.523   -7307.7933   -547.61701     102002.7      46.7237      46.7237      46.7237 
  488000    128.30778   -8147.2984   -7344.8949    -512.4333     102002.7      46.7237      46.7237      46.7237 
  489000    130.21185   -8169.7962   -7355.4852   -548.61312     102002.7      46.7237      46.7237      46.7237 
  490000    133.66101   -8130.7544   -7294.8733   -772.48158     102002.7      46.7237      46.7237      46.7237 
  491000    133.40545   -8155.7198   -7321.4369   -665.25109     102002.7      46.7237      46.7237      46.7237 
  492000    126.12969   -8179.9058   -7391.1236    -719.2587     102002.7      46.7237      46.7237      46.7237 
  493000    135.65077   -8150.5957   -7302.2711   -475.58282     102002.7      46.7237      46.7237      46.7237 
  494000       131.91   -8097.7939   -7272.8631   -867.74111     102002.7      46.7237      46.7237      46.7237 
  495000    129.06893   -8127.7117   -7320.5482   -776.50639     102002.7      46.7237      46.7237      46.7237 
  496000    128.81184   -8134.9378   -7329.3821   -598.86903     102002.7      46.7237      46.7237      46.7237 
  497000     135.1469    -8126.597   -7281.4235   -790.16885     102002.7      46.7237      46.7237      46.7237 
  498000    131.26301   -8128.8102   -7307.9255   -777.30814     102002.7      46.7237      46.7237      46.7237 
  499000    127.32679   -8120.8376   -7324.5691   -530.82478     102002.7      46.7237      46.7237      46.7237 
  500000    130.60993   -8146.0894   -7329.2889   -997.22425     102002.7      46.7237      46.7237      46.7237 
  500501    131.53849   -8125.8135   -7303.2061   -739.64855     102002.7      46.7237      46.7237      46.7237 
Loop time of 1392.44 on 16 procs for 500000 steps with 2099 atoms

Performance: 31.025 ns/day, 0.774 hours/ns, 359.081 timesteps/s
99.8% CPU use with 16 MPI tasks x no OpenMP threads

MPI task timing breakdown:
Section |  min time  |  avg time  |  max time  |%varavg| %total
---------------------------------------------------------------
Pair    | 597.94     | 785.34     | 960.87     | 416.8 | 56.40
Bond    | 163.53     | 174.3      | 186.3      |  57.6 | 12.52
Neigh   | 8.3144     | 8.3916     | 8.5195     |   2.6 |  0.60
Comm    | 238.9      | 409.84     | 584.47     | 546.8 | 29.43
Output  | 0.020406   | 0.020956   | 0.024302   |   0.6 |  0.00
Modify  | 8.0424     | 8.7552     | 9.649      |  17.2 |  0.63
Other   |            | 5.79       |            |       |  0.42

Nlocal:    131.188 ave 153 max 97 min
Histogram: 1 0 1 2 0 3 4 2 0 3
Nghost:    2640.25 ave 2678 max 2616 min
Histogram: 3 1 3 1 2 3 2 0 0 1
Neighs:    11472.9 ave 16354 max 7951 min
Histogram: 2 1 3 2 3 1 1 1 1 1

Total # of neighbors = 183567
Ave neighs/atom = 87.4545
Ave special neighs/atom = 5.48833
Neighbor list builds = 4862
Dangerous builds = 0
Neighbor list info ...
  update every 1 steps, delay 10 steps, check yes
  max neighbors/atom: 2000, page size: 100000
  master list distance cutoff = 16
  ghost atom cutoff = 16
  binsize = 8, bins = 6 6 6
  3 neighbor lists, perpetual/occasional/extra = 3 0 0
  (1) pair buck6d/coul/gauss/dsf, perpetual, skip from (3)
      attributes: half, newton on
      pair build: skip
      stencil: none
      bin: none
  (2) pair lj/cut, perpetual, skip from (3)
      attributes: half, newton on
      pair build: skip
      stencil: none
      bin: none
  (3) neighbor class addition, perpetual
      attributes: half, newton on
      pair build: half/bin/newton
      stencil: half/bin/3d/newton
      bin: standard
Setting up Verlet run ...
  Unit style    : real
  Current step  : 500501
  Time step     : 1
WARNING: Inconsistent image flags (../domain.cpp:786)
Per MPI rank memory allocation (min/avg/max) = 23.17 | 23.35 | 23.37 Mbytes
Step Time TotEng KinEng PotEng E_mol E_pair Temp Pxx Pyy Pzz Pxy Pxz Pyz Cella Cellb Cellc CellAlpha CellBeta CellGamma Volume Press 
  500501       500000   -7303.2061    822.60742   -8125.8135    4389.6238   -12515.437    131.53849   -712.38478   -766.45959   -740.10126    474.77397    145.71792   -107.30702      46.7237      46.7237      46.7237           90           90           90     102002.7   -739.64855 
  501000       500499   -7306.1222    824.35548   -8130.4776    4398.2014   -12528.679    131.81801    -541.3869   -856.49344   -734.68979   -164.69006    406.60324    34.009414      46.7237      46.7237      46.7237           90           90           90     102002.7   -710.85671 
  502000       501499   -7336.2602    789.53724   -8125.7975    4390.0816   -12515.879    126.25042   -842.43042   -746.97546   -678.71802    203.36141    366.56879   -29.540771      46.7237      46.7237      46.7237           90           90           90     102002.7    -756.0413 
  503000       502499   -7360.9954     813.7666    -8174.762     4373.639   -12548.401     130.1248   -762.92035   -1100.1073   -1203.1774    -39.25402    57.647792    -49.46725      46.7237      46.7237      46.7237           90           90           90     102002.7   -1022.0684 
  504000       503499   -7311.8522    816.34463   -8128.1968     4408.444   -12536.641    130.53704   -814.64983   -722.14813   -973.00916    249.52974     232.6565   -5.2947627      46.7237      46.7237      46.7237           90           90           90     102002.7   -836.60237 
  505000       504499   -7351.5761    783.01048   -8134.5866     4381.023    -12515.61    125.20676   -642.83349   -882.76778   -1171.2716    -69.47422    237.63954    60.591514      46.7237      46.7237      46.7237           90           90           90     102002.7   -898.95761 
  506000       505499   -7362.1336    790.82933   -8152.9629    4387.3839   -12540.347    126.45703   -310.24393   -802.55871   -190.44885   -233.79087    11.973982     -221.531      46.7237      46.7237      46.7237           90           90           90     102002.7   -434.41716 
  507000       506499   -7347.0002    791.46457   -8138.4647      4381.47   -12519.935    126.55861   -890.39949    -890.0492   -608.41686    198.30527   -91.229776   -27.963912      46.7237      46.7237      46.7237           90           90           90     102002.7   -796.28852 
  508000       507499   -7295.6532    843.05231   -8138.7055    4376.0885   -12514.794    134.80771    -442.7406    -1107.143   -728.82002    111.86719    142.97165   -104.94724      46.7237      46.7237      46.7237           90           90           90     102002.7   -759.56788 
  509000       508499   -7312.4958    819.54846   -8132.0443    4411.6038   -12543.648    131.04935   -1253.6009    -992.6199   -921.99534    70.638909   -82.116982    9.3039218      46.7237      46.7237      46.7237           90           90           90     102002.7   -1056.0721 
  510000       509499   -7306.9618    832.68401   -8139.6458     4393.846   -12533.492    133.14978   -851.93388   -887.66436   -464.45417    58.440596   -65.495693    127.16059      46.7237      46.7237      46.7237           90           90           90     102002.7   -734.68414 
  511000       510499   -7344.5517    804.83475   -8149.3864    4375.0319   -12524.418    128.69656   -785.79653    -812.1543   -626.52729    -235.2117   -99.188671    239.65872      46.7237      46.7237      46.7237           90           90           90     102002.7   -741.49271 
  512000       511499   -7326.8881    793.00346   -8119.8915    4418.3053   -12538.197    126.80468   -1070.0513   -1150.6927     -493.118    -45.04143   -215.32619    209.89715      46.7237      46.7237      46.7237           90           90           90     102002.7   -904.62069 
  513000       512499   -7326.1413    817.78196   -8143.9233    4388.5445   -12532.468    130.76687   -727.31995   -1398.6054   -838.32871   -181.79625   -122.06435   -180.09865      46.7237      46.7237      46.7237           90           90           90     102002.7    -988.0847 
  514000       513499   -7341.4718    806.86691   -8148.3387    4370.2238   -12518.563    129.02151   -825.92995   -473.06315   -729.66875    220.95758   -278.50772   -18.597839      46.7237      46.7237      46.7237           90           90           90     102002.7   -676.22061 
  515000       514499   -7342.5674    810.61145   -8153.1788    4384.6111    -12537.79    129.62028   -800.04119   -819.21698    -218.7951    122.25549    166.89407   -83.063347      46.7237      46.7237      46.7237           90           90           90     102002.7   -612.68442 
  516000       515499   -7358.9385    793.36305   -8152.3015     4362.484   -12514.786    126.86218   -1022.7622   -513.48939   -455.47771    300.01867    135.44571    59.862149      46.7237      46.7237      46.7237           90           90           90     102002.7   -663.90976 
  517000       516499   -7311.8118    821.95933   -8133.7711     4407.076   -12540.847    131.43485   -650.64262   -1116.9642   -944.24691    202.83913   -168.65019    74.144501      46.7237      46.7237      46.7237           90           90           90     102002.7   -903.95125 
  518000       517499   -7353.2276    790.53467   -8143.7623    4396.5623   -12540.325    126.40991   -1135.4953   -879.87718   -790.36174    141.17908   -63.005642    123.11281      46.7237      46.7237      46.7237           90           90           90     102002.7   -935.24474 
  519000       518499   -7346.5928    820.33563   -8166.9284      4384.91   -12551.838    131.17522   -395.92532   -1327.0833   -1213.7969     17.20273   -101.55077   -161.89859      46.7237      46.7237      46.7237           90           90           90     102002.7    -978.9352 
  520000       519499   -7320.0162    815.82724   -8135.8434    4401.3671    -12537.21     130.4543    -405.5364    -598.2711    -749.9455   -70.186378   -251.46216    -110.1969      46.7237      46.7237      46.7237           90           90           90     102002.7   -584.58434 
  521000       520499   -7342.0469    809.54474   -8151.5916    4368.3248   -12519.916    129.44971   -487.93772   -528.88022    -758.6913     153.0009    12.890927    307.61015      46.7237      46.7237      46.7237           90           90           90     102002.7   -591.83641 
  522000       521499   -7364.7336    798.20202   -8162.9357    4366.1136   -12529.049    127.63596   -679.41381   -943.40928   -464.94594   -92.555725   -156.50793   -30.546033      46.7237      46.7237      46.7237           90           90           90     102002.7   -695.92301 
  523000       522499   -7339.5644    808.86337   -8148.4278    4379.7757   -12528.204    129.34075    2.2028994   -1051.7565   -704.07339    37.802239    -148.2642    16.122108      46.7237      46.7237      46.7237           90           90           90     102002.7   -584.54233 
  524000       523499    -7285.708    823.79465   -8109.5026    4398.1486   -12507.651    131.72833   -640.21835    -541.3584   -848.53672    104.81975    36.403564    225.51904      46.7237      46.7237      46.7237           90           90           90     102002.7   -676.70449 
  525000       524499   -7325.3474    821.64236   -8146.9898    4381.2837   -12528.274    131.38417   -424.82687   -749.16369   -415.65025    210.45809    37.681222    219.19266      46.7237      46.7237      46.7237           90           90           90     102002.7   -529.88027 
  526000       525499   -7322.9415    827.13149    -8150.073    4362.5165    -12512.59     132.2619   -581.00994   -606.11377   -729.94139    10.660772    411.33644   -257.29954      46.7237      46.7237      46.7237           90           90           90     102002.7    -639.0217 
  527000       526499   -7331.4366    809.38772   -8140.8244    4395.6043   -12536.429     129.4246    -1115.716   -585.05479   -1006.2022   -98.090055   -136.50352    104.83188      46.7237      46.7237      46.7237           90           90           90     102002.7   -902.32434 
  528000       527499    -7306.816    822.76703   -8129.5831    4382.8214   -12512.404    131.56401   -281.54389   -818.60381   -429.32555    206.61753   -115.70224   -149.08614      46.7237      46.7237      46.7237           90           90           90     102002.7   -509.82442 
  529000       528499    -7264.206    854.82872   -8119.0347    4416.7861   -12535.821    136.69081   -887.94551   -1089.0004   -607.60071    177.36116   -186.08387   -35.683562      46.7237      46.7237      46.7237           90           90           90     102002.7   -861.51552 
  530000       529499   -7321.0792     807.5365   -8128.6157    4392.4411   -12521.057    129.12858   -892.81129   -719.91475   -569.20515    20.624002    74.847676   -168.91923      46.7237      46.7237      46.7237           90           90           90     102002.7    -727.3104 
  531000       530499   -7330.6318    806.73678   -8137.3686    4395.1131   -12532.482     129.0007   -585.40366   -648.38588   -829.51185   -226.24802    156.65895   -288.06231      46.7237      46.7237      46.7237           90           90           90     102002.7   -687.76713 
  532000       531499   -7351.6699    820.72759   -8172.3975    4345.8494   -12518.247    131.23789   -806.50149   -820.23715    -510.4254   -309.49417    19.245849    5.8824031      46.7237      46.7237      46.7237           90           90           90     102002.7   -712.38801 
  533000       532499   -7329.3513    823.05069    -8152.402    4376.4648   -12528.867    131.60937   -610.69007   -183.88442   -358.22549    85.840037    160.09651    115.11939      46.7237      46.7237      46.7237           90           90           90     102002.7   -384.26666 
  534000       533499   -7336.8411    800.26706   -8137.1082    4388.0423    -12525.15    127.96617    -390.2056   -419.75354   -719.86481   -56.286682    32.453768    49.641658      46.7237      46.7237      46.7237           90           90           90     102002.7   -509.94131 
  535000       534499   -7350.7781    805.64053   -8156.4186    4371.5832   -12528.002    128.82541   -406.83039    -291.9869   -719.12957   -32.715138   -161.94397    104.92156      46.7237      46.7237      46.7237           90           90           90     102002.7   -472.64895 
  536000       535499   -7299.4207    844.04558   -8143.4663    4381.7378   -12525.204    134.96654    -616.3585   -922.19088   -440.66036    20.365829    146.17913    51.702285      46.7237      46.7237      46.7237           90           90           90     102002.7   -659.73658 
  537000       536499   -7335.1266    821.00617   -8156.1328    4380.1694   -12536.302    131.28244   -860.09133   -537.54836   -945.03397    240.99541    121.66366     176.2306      46.7237      46.7237      46.7237           90           90           90     102002.7   -780.89122 
  538000       537499   -7278.2484    824.33785   -8102.5863    4398.0973   -12500.684    131.81519   -822.63193   -1137.3637   -1271.9729   -88.658263   -66.657356   -14.400425      46.7237      46.7237      46.7237           90           90           90     102002.7   -1077.3229 
  539000       538499   -7333.5871    810.22525   -8143.8124     4384.382   -12528.194    129.55852   -1119.3565   -1116.1291   -821.86939    27.283674   -52.182023   -27.308993      46.7237      46.7237      46.7237           90           90           90     102002.7   -1019.1183 
  540000       539499   -7345.1533    807.19588   -8152.3492    4405.1399   -12557.489    129.07411   -867.06933   -862.52522   -574.64246    103.33483    199.27068   -75.918924      46.7237      46.7237      46.7237           90           90           90     102002.7     -768.079 
  541000       540499   -7318.0082    815.97994   -8133.9882    4392.9367   -12526.925    130.47872   -355.60159   -804.32136   -510.92507   -271.90015    169.39272   -240.46295      46.7237      46.7237      46.7237           90           90           90     102002.7   -556.94934 
  542000       541499   -7342.5077    793.65622   -8136.1639    4392.0137   -12528.178    126.90906   -645.80168   -333.85484   -601.35001   -92.118146   -67.617112   -206.06355      46.7237      46.7237      46.7237           90           90           90     102002.7   -527.00218 
  543000       542499   -7314.9203    835.15326   -8150.0736    4385.2978   -12535.371    133.54462   -146.13901   -633.90672   -375.24818    262.36136   -173.90309    15.232659      46.7237      46.7237      46.7237           90           90           90     102002.7   -385.09797 
  544000       543499   -7300.6739    822.82607      -8123.5    4394.1047   -12517.605    131.57345   -1052.2201   -919.55446   -611.66419    31.818641   -183.85777    11.427444      46.7237      46.7237      46.7237           90           90           90     102002.7   -861.14625 
  545000       544499   -7340.3052    804.19356   -8144.4988    4389.2755   -12533.774    128.59403   -127.25577   -493.16748   -533.93766   -46.680271   -162.29434   -58.785762      46.7237      46.7237      46.7237           90           90           90     102002.7   -384.78697 
  546000       545499   -7312.4343    813.92487   -8126.3592    4415.0672   -12541.426    130.15011   -488.34439   -709.20888   -904.35573    44.178448   -18.397149   -110.63173      46.7237      46.7237      46.7237           90           90           90     102002.7   -700.63633 
  547000       546499   -7323.2533    807.09381   -8130.3472    4404.3114   -12534.659    129.05779   -862.00114   -882.13488   -698.71984    164.44004   -45.615081   -26.493334      46.7237      46.7237      46.7237           90           90           90     102002.7   -814.28529 
  548000       547499   -7332.1882     798.5038    -8130.692    4390.7885    -12521.48    127.68421   -427.53506   -456.29869   -828.02053   -13.696985    147.13163   -78.598451      46.7237      46.7237      46.7237           90           90           90     102002.7   -570.61809 
  549000       548499   -7307.9546    807.07393   -8115.0286    4410.8753   -12525.904    129.05461   -903.29805   -1269.5134   -895.78171    28.613361    293.11038   -143.33063      46.7237      46.7237      46.7237           90           90           90     102002.7   -1022.8644 
  550000       549499   -7342.1325    816.08084   -8158.2133    4380.3004   -12538.514    130.49486   -574.89087   -732.59229   -511.29623   -15.536821   -82.722426    72.687202      46.7237      46.7237      46.7237           90           90           90     102002.7    -606.2598 
  551000       550499   -7310.5812    830.51836   -8141.0995    4387.3744   -12528.474    132.80348   -746.17617   -905.39919   -681.80051     88.15544    170.29884   -190.57026      46.7237      46.7237      46.7237           90           90           90     102002.7   -777.79195 
  552000       551499   -7293.9115    816.24466   -8110.1561    4411.4055   -12521.562    130.52105   -1037.7346   -1161.5522   -522.41342   -20.919749   -97.434931   -205.90523      46.7237      46.7237      46.7237           90           90           90     102002.7   -907.23342 
  553000       552499   -7335.9048    798.00411   -8133.9089    4392.2592   -12526.168    127.60431    -540.0824   -911.41364   -892.84662    189.55823   -68.147456    104.84417      46.7237      46.7237      46.7237           90           90           90     102002.7   -781.44755 
  554000       553499   -7342.7732    806.92047   -8149.6937    4355.3692   -12505.063    129.03007   -1157.0523   -1208.3711   -835.86579   -190.75045   -47.561955    -6.729964      46.7237      46.7237      46.7237           90           90           90     102002.7   -1067.0964 
  555000       554499   -7313.6321    828.73168   -8142.3638    4373.9219   -12516.286    132.51778   -746.14615   -833.24939   -744.99217   -225.14996     38.43075    49.138046      46.7237      46.7237      46.7237           90           90           90     102002.7    -774.7959 
[...]
  936000       935499   -7358.0981    789.25314   -8147.3512    4382.1523   -12529.504    126.20499   -711.69268   -801.32676    -723.3836    76.684488    -35.06059   -306.33491      46.7237      46.7237      46.7237           90           90           90     102002.7   -745.46768 
  937000       936499   -7296.9426    810.24975   -8107.1923    4416.4438   -12523.636    129.56244   -818.61734   -901.12878   -584.10071   -113.79095    255.92679   -117.00451      46.7237      46.7237      46.7237           90           90           90     102002.7   -767.94894 
  938000       937499    -7352.745    795.64752   -8148.3925    4398.5223   -12546.915    127.22748   -414.75932   -1214.3939   -788.32819   -93.729141   -6.5196027   -34.125516      46.7237      46.7237      46.7237           90           90           90     102002.7   -805.82714 
  939000       938499   -7311.3956    805.73813   -8117.1338    4400.1438   -12517.278    128.84101   -658.47735   -964.56849   -1040.2429   -24.149599   -177.33686   -72.734343      46.7237      46.7237      46.7237           90           90           90     102002.7    -887.7629 
  940000       939499   -7347.1772    787.34373    -8134.521    4404.6239   -12539.145    125.89967   -902.08673   -283.45821    -158.3277   -153.07553   -223.50349    82.011037      46.7237      46.7237      46.7237           90           90           90     102002.7   -447.95755 
  941000       940499   -7338.8079    797.89687   -8136.7048    4378.9395   -12515.644    127.58716   -536.89107   -917.04999   -363.39606    196.87611   -134.95195    175.72014      46.7237      46.7237      46.7237           90           90           90     102002.7   -605.77904 
  942000       941499   -7327.8854    796.88384   -8124.7692    4382.1646   -12506.934    127.42517   -708.94121   -637.71839   -654.16444   -60.810703    253.66031   -132.25672      46.7237      46.7237      46.7237           90           90           90     102002.7   -666.94135 
  943000       942499   -7340.1143    827.82959   -8167.9439    4356.1761    -12524.12    132.37353   -948.66783   -347.50525   -362.91868   -123.06148    -10.67628    124.07765      46.7237      46.7237      46.7237           90           90           90     102002.7   -553.03059 
  944000       943499   -7357.4951    788.54663   -8146.0417    4384.5864   -12530.628    126.09202    90.435654   -391.70193   -532.62808    27.839398   -357.60412   -9.4312202      46.7237      46.7237      46.7237           90           90           90     102002.7   -277.96479 
  945000       944499   -7366.8661    795.08817   -8161.9543    4365.3019   -12527.256    127.13804   -1083.0431   -676.90033   -681.51829    184.37224    82.775991   -267.99667      46.7237      46.7237      46.7237           90           90           90     102002.7   -813.82058 
  946000       945499    -7347.227      806.576    -8153.803    4383.9754   -12537.778    128.97499   -741.60847   -688.66706   -562.54101    85.322045    48.107961    53.712927      46.7237      46.7237      46.7237           90           90           90     102002.7   -664.27218 
  947000       946499   -7316.1263    832.32315   -8148.4495     4400.142   -12548.591    133.09207   -484.62263   -1168.8284   -743.49215   -58.306225    45.446004    253.58788      46.7237      46.7237      46.7237           90           90           90     102002.7   -798.98108 
  948000       947499   -7341.1118    806.25796   -8147.3697    4389.1772   -12536.547    128.92414   -1627.2108   -1405.5958   -537.84928   -226.23336    -259.9117    141.50321      46.7237      46.7237      46.7237           90           90           90     102002.7   -1190.2186 
  949000       948499   -7360.2596    795.76961   -8156.0292    4405.1825   -12561.212      127.247   -650.28098    -1007.209    -920.2317    61.788614    12.991643    9.7193581      46.7237      46.7237      46.7237           90           90           90     102002.7   -859.24058 
  950000       949499   -7317.8581    819.74102   -8137.5991    4374.2397   -12511.839    131.08014   -1031.6056   -1361.9556   -835.11333    119.44039   -382.71271   -18.300753      46.7237      46.7237      46.7237           90           90           90     102002.7   -1076.2248 
  951000       950499   -7351.1913    796.58874     -8147.78    4378.2026   -12525.983    127.37799   -510.61632   -1117.3095   -1567.3161   -186.24744   -2.0462679   -95.836739      46.7237      46.7237      46.7237           90           90           90     102002.7   -1065.0807 
  952000       951499   -7343.2992    814.10761   -8157.4068    4376.6694   -12534.076    130.17933   -1179.2759   -867.00706   -804.13494   -165.55536   -162.71509    132.47709      46.7237      46.7237      46.7237           90           90           90     102002.7   -950.13929 
  953000       952499   -7316.0292    829.50476   -8145.5339    4396.8235   -12542.357     132.6414     -664.501   -201.00887   -343.34903   -221.76436    337.65914   -13.843176      46.7237      46.7237      46.7237           90           90           90     102002.7   -402.95297 
  954000       953499    -7314.205    816.45792   -8130.6629    4392.1005   -12522.763    130.55515   -801.57719    -410.7722   -586.01305   -26.090786    173.22661   -40.906224      46.7237      46.7237      46.7237           90           90           90     102002.7   -599.45415 
  955000       954499   -7319.5843    809.74236   -8129.3266    4400.2554   -12529.582    129.48131       -986.2   -549.40678    -878.9612    73.449054   -41.551209    178.48191      46.7237      46.7237      46.7237           90           90           90     102002.7   -804.85599 
  956000       955499   -7301.3408    819.50608   -8120.8469    4378.1867   -12499.034    131.04257   -463.64261    -544.7892   -679.69139    108.75416    214.38831   -74.475875      46.7237      46.7237      46.7237           90           90           90     102002.7   -562.70773 
  957000       956499   -7326.5812    821.95618   -8148.5374    4385.5641   -12534.101    131.43435   -996.52989   -1058.1408   -1087.3885   -166.99364    13.662081   -171.96185      46.7237      46.7237      46.7237           90           90           90     102002.7   -1047.3531 
  958000       957499     -7310.09    820.75605    -8130.846    4398.7452   -12529.591    131.24244    -143.0178    -702.5281   -408.57055    4.7242473   -12.490323    77.490399      46.7237      46.7237      46.7237           90           90           90     102002.7   -418.03882 
  959000       958499   -7333.4409    813.84009    -8147.281    4384.8284   -12532.109    130.13655   -626.34503   -518.91531   -666.59441    20.647282    178.33026   -135.67486      46.7237      46.7237      46.7237           90           90           90     102002.7   -603.95158 
  960000       959499   -7308.7239    846.36913    -8155.093    4371.0399   -12526.133    135.33809   -162.27709   -786.76416   -527.97108   -63.816907   -113.50426    -148.5616      46.7237      46.7237      46.7237           90           90           90     102002.7   -492.33744 
  961000       960499   -7349.6794    797.07009   -8146.7495    4388.5705    -12535.32    127.45496   -516.67963   -1126.0929   -862.57483    42.774072   -72.561542    20.467203      46.7237      46.7237      46.7237           90           90           90     102002.7   -835.11579 
  962000       961499   -7340.2478    804.19012   -8144.4379     4404.114   -12548.552    128.59348   -812.94281    -615.6312   -755.73049    1.8260213    278.64273    19.561429      46.7237      46.7237      46.7237           90           90           90     102002.7    -728.1015 
  963000       962499   -7350.2844    807.75079   -8158.0352    4366.3201   -12524.355    129.16285   -743.14876   -568.40694    -570.5485   -0.5494615    -357.2331    139.35054      46.7237      46.7237      46.7237           90           90           90     102002.7   -627.36807 
  964000       963499   -7303.2025    841.38536   -8144.5879    4365.4116   -12509.999    134.54116   -303.05341   -575.29376   -778.18287    98.829606   -42.523096    37.916549      46.7237      46.7237      46.7237           90           90           90     102002.7   -552.17668 
  965000       964499   -7332.8965    802.24039   -8135.1369    4391.7744   -12526.911    128.28171   -1004.6199   -936.98827   -710.22183    186.00767    16.288463    -160.9078      46.7237      46.7237      46.7237           90           90           90     102002.7   -883.94334 
  966000       965499   -7339.8361    819.97957   -8159.8157    4362.8536   -12522.669    131.11828   -322.80619   -865.87031   -1023.3966   -72.981146    -54.16868    -132.4756      46.7237      46.7237      46.7237           90           90           90     102002.7    -737.3577 
  967000       966499   -7344.0872    788.97641   -8133.0637    4376.9469   -12510.011    126.16074   -943.45753   -6.3695075   -570.24867    12.093858    225.24355    19.221488      46.7237      46.7237      46.7237           90           90           90     102002.7    -506.6919 
  968000       967499   -7287.5932    814.76907   -8102.3623    4438.5684   -12540.931     130.2851   -497.27778   -1275.1476    138.12594    157.32091   -26.567825    133.69631      46.7237      46.7237      46.7237           90           90           90     102002.7   -544.76648 
  969000       968499   -7333.9475    797.05136   -8130.9989    4410.9526   -12541.952    127.45196   -911.26515   -497.32152   -581.87431    221.48855    32.430577   -49.632827      46.7237      46.7237      46.7237           90           90           90     102002.7   -663.48699 
  970000       969499   -7328.0592    819.31161   -8147.3708    4400.5056   -12547.876    131.01147   -812.36015   -801.21751   -883.25244   -61.343482   -115.92152    95.008637      46.7237      46.7237      46.7237           90           90           90     102002.7    -832.2767 
  971000       970499   -7337.4014    818.37233   -8155.7738    4387.7172   -12543.491    130.86128   -1340.8485   -566.19804    -368.7494   -151.17594    174.35537   -177.69859      46.7237      46.7237      46.7237           90           90           90     102002.7   -758.59864 
  972000       971499   -7270.9063    835.21945   -8106.1258    4411.0518   -12517.178     133.5552   -847.47331    -968.8834    -393.7325   0.26825116     576.9235   -57.198129      46.7237      46.7237      46.7237           90           90           90     102002.7    -736.6964 
  973000       972499   -7337.8162    791.61712   -8129.4334    4401.3098   -12530.743      126.583   -270.11842   -921.94337   -1104.1943   -95.059189    72.842525    165.66614      46.7237      46.7237      46.7237           90           90           90     102002.7    -765.4187 
  974000       973499   -7335.8676    784.05027   -8119.9178    4404.0535   -12523.971    125.37303   -788.53581   -360.17663   -329.50442    11.573303    160.96198   -274.59453      46.7237      46.7237      46.7237           90           90           90     102002.7   -492.73895 
  975000       974499   -7317.4174    816.75231   -8134.1697    4394.6636   -12528.833    130.60223   -836.12006   -451.13962   -400.75135   -335.75601   -32.684701   -24.432288      46.7237      46.7237      46.7237           90           90           90     102002.7   -562.67034 
  976000       975499   -7339.5924    823.46635   -8163.0587    4365.8039   -12528.863    131.67583   -786.96374   -521.02296   -484.61748   -232.10439     181.6459    190.56665      46.7237      46.7237      46.7237           90           90           90     102002.7   -597.53472 
  977000       976499   -7326.5743    823.19915   -8149.7735    4379.3991   -12529.173    131.63311     -644.906   -573.84145   -809.61568   -25.982837   -9.8364446    100.88653      46.7237      46.7237      46.7237           90           90           90     102002.7   -676.12104 
  978000       977499   -7320.9922    813.47124   -8134.4635    4387.9215   -12522.385    130.07757   -951.13567   -1488.2242   -949.93355   -2.6861685    16.147346    129.19983      46.7237      46.7237      46.7237           90           90           90     102002.7   -1129.7645 
  979000       978499   -7335.5417    781.88782   -8117.4296    4406.6601    -12524.09    125.02725   -633.10232     -668.755   -998.05683   -38.659356   -85.181375    152.81758      46.7237      46.7237      46.7237           90           90           90     102002.7   -766.63805 
  980000       979499     -7262.19    847.22013   -8109.4102    4433.4741   -12542.884    135.47416   -703.06168   -1231.8807   -373.48337   -65.728507   -22.771795    263.59249      46.7237      46.7237      46.7237           90           90           90     102002.7   -769.47524 
  981000       980499   -7335.2336    823.71545    -8158.949    4354.1956   -12513.145    131.71566   -498.18112   -1162.7884   -716.68794    278.56674    163.45106   -30.734869      46.7237      46.7237      46.7237           90           90           90     102002.7   -792.55249 
  982000       981499    -7311.249    819.66079   -8130.9098    4377.3556   -12508.265    131.06731    -848.3399   -474.26853   -208.43187     211.8396    306.01771    171.75654      46.7237      46.7237      46.7237           90           90           90     102002.7   -510.34677 
  983000       982499   -7330.2949    831.23126   -8161.5261    4366.7883   -12528.314    132.91748   -1025.4206   -1307.7037   -630.48389     197.7622    255.46108     207.7119      46.7237      46.7237      46.7237           90           90           90     102002.7   -987.86939 
  984000       983499   -7333.3676    817.79134    -8151.159    4375.9281   -12527.087    130.76837   -526.68901   -735.83731   -1010.0212     226.6689   -143.98684    27.486674      46.7237      46.7237      46.7237           90           90           90     102002.7   -757.51586 
  985000       984499   -7317.1557    813.02662   -8130.1823    4386.1671   -12516.349    130.00647   -942.64391   -571.45384   -1149.3464   -52.797717   -58.329905    92.275867      46.7237      46.7237      46.7237           90           90           90     102002.7   -887.81471 
  986000       985499   -7344.6944    828.67788   -8173.3723    4358.3032   -12531.675    132.50918   -933.16901    -531.6762   -531.10769    46.774359   -209.60405    150.37649      46.7237      46.7237      46.7237           90           90           90     102002.7   -665.31763 
  987000       986499   -7315.9742    816.00485    -8131.979    4390.6233   -12522.602    130.48271   -752.19628   -462.44646   -727.22797     157.3915   -15.552392    -293.1418      46.7237      46.7237      46.7237           90           90           90     102002.7   -647.29024 
  988000       987499   -7336.6292    821.75058   -8158.3798    4358.7076   -12517.087    131.40147   -1043.3811   -1136.4349   -816.56438    274.86117    110.05703   -123.43342      46.7237      46.7237      46.7237           90           90           90     102002.7   -998.79346 
  989000       988499   -7335.8223    822.40683   -8158.2291    4379.2115   -12537.441    131.50641   -1228.4629   -742.62698   -708.40495   -167.89864    -64.91685    158.59987      46.7237      46.7237      46.7237           90           90           90     102002.7   -893.16493 
  990000       989499    -7296.594    826.08533   -8122.6793    4397.7717   -12520.451    132.09462   -1188.6593   -886.69779   -1127.3688    282.89223    30.821898     120.1135      46.7237      46.7237      46.7237           90           90           90     102002.7   -1067.5753 
  991000       990499   -7329.5508    813.70645   -8143.2573    4380.5888   -12523.846    130.11518   -823.50273   -865.68878   -331.67268   -310.09945   -176.82791    192.35509      46.7237      46.7237      46.7237           90           90           90     102002.7   -673.62139 
  992000       991499   -7333.5544    841.18278   -8174.7372      4371.58   -12546.317    134.50877   -749.56056   -324.82436   -505.33144   -15.927465   -99.581476   -184.46047      46.7237      46.7237      46.7237           90           90           90     102002.7   -526.57212 
  993000       992499   -7343.7437      804.548   -8148.2917    4361.8496   -12510.141    128.65071   -599.61973   -838.27281   -254.01969    98.015086   -101.52808   -298.00329      46.7237      46.7237      46.7237           90           90           90     102002.7   -563.97074 
  994000       993499   -7356.5383    801.53674    -8158.075    4362.7584   -12520.833    128.16919   -663.84306   -634.66463   -545.90554    8.9696005   -215.34641    16.876081      46.7237      46.7237      46.7237           90           90           90     102002.7   -614.80441 
  995000       994499   -7330.6902    828.77639   -8159.4666    4387.1122   -12546.579    132.52493   -887.15485    -827.2213    -1106.693    17.163083    11.045988    140.61233      46.7237      46.7237      46.7237           90           90           90     102002.7   -940.35637 
  996000       995499   -7319.9192    824.29892   -8144.2182    4381.7033   -12525.921    131.80896   -618.47202   -1398.0361   -817.38091    15.738659    33.673043    26.447673      46.7237      46.7237      46.7237           90           90           90     102002.7   -944.62969 
  997000       996499   -7348.0483    820.58043   -8168.6287    4360.1115    -12528.74    131.21436    -590.7889   -634.27029   -441.46594   -138.27526   -273.60805    180.04999      46.7237      46.7237      46.7237           90           90           90     102002.7   -555.50838 
  998000       997499   -7330.5602    801.15225   -8131.7125    4380.6868   -12512.399    128.10771   -1043.7341   -776.95859    -1006.742   -53.751465    74.604935    161.30957      46.7237      46.7237      46.7237           90           90           90     102002.7   -942.47826 
  999000       998499   -7343.1399    822.10892   -8165.2488    4354.1096   -12519.358    131.45877    -1013.902    -875.8912   -1053.8178    174.61518   -230.66651   -99.247081      46.7237      46.7237      46.7237           90           90           90     102002.7   -981.20367 
 1000000       999499   -7323.2663    820.86275    -8144.129    4379.3614    -12523.49    131.25951   -863.84988   -952.69027   -358.65371    -130.8278   -3.8763624   -205.11664      46.7237      46.7237      46.7237           90           90           90     102002.7   -725.06462 
 1000501      1000000   -7354.9322    781.18305   -8136.1153    4392.5996   -12528.715    124.91455   -499.62914   -717.09143   -1126.2223    89.155059    157.54105    134.70625      46.7237      46.7237      46.7237           90           90           90     102002.7   -780.98095 
Loop time of 1561.69 on 16 procs for 500000 steps with 2099 atoms

Performance: 27.662 ns/day, 0.868 hours/ns, 320.165 timesteps/s
99.8% CPU use with 16 MPI tasks x no OpenMP threads

MPI task timing breakdown:
Section |  min time  |  avg time  |  max time  |%varavg| %total
---------------------------------------------------------------
Pair    | 688.02     | 919.77     | 1130.7     | 432.8 | 58.90
Bond    | 166.41     | 183.25     | 207.67     |  91.3 | 11.73
Neigh   | 8.1284     | 8.2073     | 8.3382     |   2.7 |  0.53
Comm    | 219.33     | 421.87     | 657.27     | 609.3 | 27.01
Output  | 0.1057     | 0.1107     | 0.11118    |   0.4 |  0.01
Modify  | 22.129     | 22.895     | 23.759     |  10.6 |  1.47
Other   |            | 5.6        |            |       |  0.36

Nlocal:    131.188 ave 146 max 107 min
Histogram: 1 0 1 2 2 2 1 1 2 4
Nghost:    2647.5 ave 2671 max 2631 min
Histogram: 5 1 2 0 0 2 3 0 0 3
Neighs:    11473 ave 16510 max 7801 min
Histogram: 1 2 2 4 3 1 1 0 0 2

Total # of neighbors = 183568
Ave neighs/atom = 87.455
Ave special neighs/atom = 5.48833
Neighbor list builds = 4866
Dangerous builds = 0
Total wall time: 0:49:17
