LAMMPS (30 Mar 2018)
Reading data file ...
  orthogonal box = (0 0 0) to (46.7237 46.7237 46.7237)
  2 by 2 by 4 MPI processor grid
  reading atoms ...
  2055 atoms
  scanning bonds ...
  5 = max bonds/atom
  scanning angles ...
  10 = max angles/atom
  scanning dihedrals ...
  32 = max dihedrals/atom
  scanning impropers ...
  3 = max impropers/atom
  reading bonds ...
  2064 bonds
  reading angles ...
  3696 angles
  reading dihedrals ...
  6240 dihedrals
  reading impropers ...
  1008 impropers
Finding 1-2 1-3 1-4 neighbors ...
  special bond factors lj:   0          0          0         
  special bond factors coul: 0          0          0         
  5 = max # of 1-2 neighbors
  8 = max # of 1-3 neighbors
  20 = max # of 1-4 neighbors
  19 = max # of special neighbors
Finding 1-2 1-3 1-4 neighbors ...
  special bond factors lj:   0          0          1         
  special bond factors coul: 1          1          1         
  5 = max # of 1-2 neighbors
  8 = max # of 1-3 neighbors
  19 = max # of special neighbors
WARNING: Using 'neigh_modify every 1 delay 0 check yes' setting during minimization (../min.cpp:168)
Neighbor list info ...
  update every 1 steps, delay 0 steps, check yes
  max neighbors/atom: 2000, page size: 100000
  master list distance cutoff = 16
  ghost atom cutoff = 16
  binsize = 8, bins = 6 6 6
  3 neighbor lists, perpetual/occasional/extra = 3 0 0
  (1) pair buck6d/coul/gauss/dsf, perpetual, skip from (3)
      attributes: half, newton on
      pair build: skip
      stencil: none
      bin: none
  (2) pair lj/cut, perpetual, skip from (3)
      attributes: half, newton on
      pair build: skip
      stencil: none
      bin: none
  (3) neighbor class addition, perpetual
      attributes: half, newton on
      pair build: half/bin/newton
      stencil: half/bin/3d/newton
      bin: standard
Setting up cg style minimization ...
  Unit style    : real
  Current step  : 0
WARNING: Inconsistent image flags (../domain.cpp:786)
Per MPI rank memory allocation (min/avg/max) = 22.91 | 23.37 | 23.81 Mbytes
Step Temp E_pair E_mol TotEng Press 
       0            0   -12454.801    6482.8914   -5971.9099    6071.2498 
     501            0   -12623.187    3725.8977   -8897.2896   -678.42229 
Loop time of 3.7432 on 16 procs for 501 steps with 2055 atoms

99.8% CPU use with 16 MPI tasks x no OpenMP threads

Minimization stats:
  Stopping criterion = max force evaluations
  Energy initial, next-to-last, final = 
        -5971.90994799     -8897.24498661     -8897.28959026
  Force two-norm initial, final = 2575.4 10.2838
  Force max component initial, final = 152.192 1.55148
  Final line search alpha, max atom move = 0.00357009 0.00553893
  Iterations, force evaluations = 501 1000

MPI task timing breakdown:
Section |  min time  |  avg time  |  max time  |%varavg| %total
---------------------------------------------------------------
Pair    | 1.33       | 1.9635     | 2.6425     |  25.7 | 52.45
Bond    | 0.29833    | 0.37365    | 0.51275    |   9.6 |  9.98
Neigh   | 0.02956    | 0.029832   | 0.0301     |   0.1 |  0.80
Comm    | 0.54435    | 1.3332     | 1.9839     |  33.3 | 35.62
Output  | 0          | 0          | 0          |   0.0 |  0.00
Modify  | 0          | 0          | 0          |   0.0 |  0.00
Other   |            | 0.04303    |            |       |  1.15

Nlocal:    128.438 ave 149 max 110 min
Histogram: 1 1 2 3 1 3 3 0 0 2
Nghost:    2524.94 ave 2543 max 2502 min
Histogram: 1 1 0 2 2 2 3 3 0 2
Neighs:    11464.4 ave 15628 max 6556 min
Histogram: 1 0 2 3 1 3 0 3 1 2

Total # of neighbors = 183430
Ave neighs/atom = 89.2603
Ave special neighs/atom = 5.60584
Neighbor list builds = 14
Dangerous builds = 0
Neighbor list info ...
  update every 1 steps, delay 10 steps, check yes
  max neighbors/atom: 2000, page size: 100000
  master list distance cutoff = 16
  ghost atom cutoff = 16
  binsize = 8, bins = 6 6 6
  3 neighbor lists, perpetual/occasional/extra = 3 0 0
  (1) pair buck6d/coul/gauss/dsf, perpetual, skip from (3)
      attributes: half, newton on
      pair build: skip
      stencil: none
      bin: none
  (2) pair lj/cut, perpetual, skip from (3)
      attributes: half, newton on
      pair build: skip
      stencil: none
      bin: none
  (3) neighbor class addition, perpetual
      attributes: half, newton on
      pair build: half/bin/newton
      stencil: half/bin/3d/newton
      bin: standard
Setting up Verlet run ...
  Unit style    : real
  Current step  : 501
  Time step     : 1
WARNING: Inconsistent image flags (../domain.cpp:786)
Per MPI rank memory allocation (min/avg/max) = 22.56 | 22.66 | 23.03 Mbytes
Step Temp PotEng TotEng Press Volume Lx Ly Lz 
     501          130   -8897.2896   -8101.3537   -321.72545     102002.7      46.7237      46.7237      46.7237 
    1000    113.60167   -8202.5481   -7507.0124   -639.35867     102002.7      46.7237      46.7237      46.7237 
    2000    140.16534   -8089.5142   -7231.3402    -839.2901     102002.7      46.7237      46.7237      46.7237 
    3000    130.01271   -8036.1717    -7240.158    -879.7763     102002.7      46.7237      46.7237      46.7237 
    4000    131.34408   -8042.7492    -7238.584   -743.51723     102002.7      46.7237      46.7237      46.7237 
    5000      129.544   -8061.3338   -7268.1898   -1131.7123     102002.7      46.7237      46.7237      46.7237 
    6000    128.34277   -8025.5991   -7239.8097   -766.29492     102002.7      46.7237      46.7237      46.7237 
    7000    128.18606   -8045.8713   -7261.0414   -659.35328     102002.7      46.7237      46.7237      46.7237 
    8000    127.58587   -8063.0849   -7281.9297   -852.76268     102002.7      46.7237      46.7237      46.7237 
    9000     134.0516   -8039.4698   -7218.7277   -954.62733     102002.7      46.7237      46.7237      46.7237 
   10000    127.77271   -8070.1994   -7287.9003   -854.36999     102002.7      46.7237      46.7237      46.7237 
   11000    130.58524   -8042.4624   -7242.9433   -740.88698     102002.7      46.7237      46.7237      46.7237 
   12000    124.61318   -8079.7223   -7316.7677   -457.30147     102002.7      46.7237      46.7237      46.7237 
   13000    130.67183   -8050.0611   -7250.0119   -775.12907     102002.7      46.7237      46.7237      46.7237 
   14000    130.69458   -8051.1159   -7250.9274   -449.35969     102002.7      46.7237      46.7237      46.7237 
   15000      128.613   -8075.9763   -7288.5324   -927.16096     102002.7      46.7237      46.7237      46.7237 
   16000    128.66956   -8040.6827   -7252.8926   -827.36311     102002.7      46.7237      46.7237      46.7237 
   17000    127.46086   -8042.5413   -7262.1514   -1094.5036     102002.7      46.7237      46.7237      46.7237 
   18000    132.13411   -8036.8796   -7227.8774   -1042.6079     102002.7      46.7237      46.7237      46.7237 
   19000    126.23854   -8056.1926   -7283.2866   -901.57316     102002.7      46.7237      46.7237      46.7237 
   20000    129.42784   -8032.2369   -7239.8041   -931.49001     102002.7      46.7237      46.7237      46.7237 
   21000    127.22984   -8042.1563    -7263.181   -754.75977     102002.7      46.7237      46.7237      46.7237 
   22000    126.97144     -8049.28   -7271.8867   -761.17115     102002.7      46.7237      46.7237      46.7237 
   23000    128.02828   -8028.9443   -7245.0804   -569.62052     102002.7      46.7237      46.7237      46.7237 
   24000    133.55202   -8085.7681   -7268.0846   -738.43881     102002.7      46.7237      46.7237      46.7237 
   25000    134.85557   -8059.6976   -7234.0331     -454.983     102002.7      46.7237      46.7237      46.7237 
   26000    133.59998   -8049.9138   -7231.9368   -712.56411     102002.7      46.7237      46.7237      46.7237 
   27000    128.56628   -8031.6528    -7244.495    -630.3737     102002.7      46.7237      46.7237      46.7237 
   28000    130.27192    -8039.349   -7241.7482    -701.5655     102002.7      46.7237      46.7237      46.7237 
   29000    131.04916   -8057.3812   -7255.0217   -969.56901     102002.7      46.7237      46.7237      46.7237 
   30000    127.91598   -8042.3362   -7259.1599   -931.63218     102002.7      46.7237      46.7237      46.7237 
   31000    135.13958   -8061.1967   -7233.7933   -558.37334     102002.7      46.7237      46.7237      46.7237 
   32000    132.17579   -8034.9554   -7225.6981   -658.51218     102002.7      46.7237      46.7237      46.7237 
   33000    131.74856   -8050.9621   -7244.3205   -736.17009     102002.7      46.7237      46.7237      46.7237 
   34000    133.35058   -8041.5826   -7225.1325   -762.78973     102002.7      46.7237      46.7237      46.7237 
   35000    132.39181   -8077.9393   -7267.3594   -782.73095     102002.7      46.7237      46.7237      46.7237 
   36000    131.42338   -8035.1955   -7230.5448   -754.40094     102002.7      46.7237      46.7237      46.7237 
   37000    128.37277   -8037.3934   -7251.4204   -778.13478     102002.7      46.7237      46.7237      46.7237 
   38000     130.3736   -8036.0225   -7237.7992   -1063.7279     102002.7      46.7237      46.7237      46.7237 
   39000    127.43191   -8049.9987   -7269.7861    -915.1462     102002.7      46.7237      46.7237      46.7237 
   40000    132.51553   -8074.0703   -7262.7329   -1121.4329     102002.7      46.7237      46.7237      46.7237 
   41000     133.2996   -8058.7186   -7242.5806   -677.23522     102002.7      46.7237      46.7237      46.7237 
   42000    130.55289   -8066.2892   -7266.9682   -1032.4899     102002.7      46.7237      46.7237      46.7237 
   43000    131.77491   -8015.9818   -7209.1788   -754.23756     102002.7      46.7237      46.7237      46.7237 
   44000    130.45917   -8032.1215   -7233.3743   -663.84982     102002.7      46.7237      46.7237      46.7237 
   45000    131.83027   -8049.4128   -7242.2709   -881.14954     102002.7      46.7237      46.7237      46.7237 
   46000    130.76938   -8026.0354    -7225.389   -745.37912     102002.7      46.7237      46.7237      46.7237 
   47000    125.99847   -8049.4397   -7278.0035   -916.90581     102002.7      46.7237      46.7237      46.7237 
   48000    128.71575   -8038.1416   -7250.0687   -711.81781     102002.7      46.7237      46.7237      46.7237 
   49000    132.71613    -8008.163   -7195.5974    -662.9143     102002.7      46.7237      46.7237      46.7237 
   50000    131.27025   -8045.4312    -7241.718   -933.06337     102002.7      46.7237      46.7237      46.7237 
   51000    128.68933   -8023.5273   -7235.6161   -1075.5035     102002.7      46.7237      46.7237      46.7237 
   52000     132.2541   -8054.8199   -7245.0831   -684.89747     102002.7      46.7237      46.7237      46.7237 
   53000    127.19551   -8043.4505   -7264.6853   -995.77986     102002.7      46.7237      46.7237      46.7237 
   54000    127.67547   -8048.3469   -7266.6432   -687.07113     102002.7      46.7237      46.7237      46.7237 
   55000    135.15077   -8053.4207   -7225.9487   -813.38753     102002.7      46.7237      46.7237      46.7237 
   56000    133.32438   -8039.6511   -7223.3614   -713.08414     102002.7      46.7237      46.7237      46.7237 
   57000    127.27759   -8025.1759   -7245.9082   -917.57424     102002.7      46.7237      46.7237      46.7237 
   58000    130.06349   -8013.4633   -7217.1387   -766.78605     102002.7      46.7237      46.7237      46.7237 
   59000    127.50424    -8025.106   -7244.4506   -914.35893     102002.7      46.7237      46.7237      46.7237 
   60000    126.89626   -8041.0826   -7264.1496      -740.02     102002.7      46.7237      46.7237      46.7237 
   61000    130.20321    -8043.908   -7246.7279   -809.03064     102002.7      46.7237      46.7237      46.7237 
   62000    130.78706   -8043.7877    -7243.033   -1173.7617     102002.7      46.7237      46.7237      46.7237 
   63000    129.40647   -8053.8544   -7261.5524   -712.81642     102002.7      46.7237      46.7237      46.7237 
   64000     126.9195   -8048.7934   -7271.7181   -956.05509     102002.7      46.7237      46.7237      46.7237 
   65000    126.02704   -8064.0845   -7292.4734   -959.37945     102002.7      46.7237      46.7237      46.7237 
   66000    129.87681   -8050.1988   -7255.0171   -987.77228     102002.7      46.7237      46.7237      46.7237 
   67000    130.34467   -8039.4804   -7241.4342   -892.78668     102002.7      46.7237      46.7237      46.7237 
   68000    128.41143   -7998.7038    -7212.494   -1108.4034     102002.7      46.7237      46.7237      46.7237 
   69000    128.04773   -8026.9792   -7242.9962   -1244.0849     102002.7      46.7237      46.7237      46.7237 
   70000     125.5278    -8029.435   -7260.8805   -967.24862     102002.7      46.7237      46.7237      46.7237 
   71000    133.46911   -8049.7147   -7232.5389   -772.93228     102002.7      46.7237      46.7237      46.7237 
   72000    128.75251   -8024.1318   -7235.8338   -665.67667     102002.7      46.7237      46.7237      46.7237 
   73000    127.49582   -8029.1198   -7248.5159   -848.24715     102002.7      46.7237      46.7237      46.7237 
   74000    132.54194   -8028.9422   -7217.4431   -893.77152     102002.7      46.7237      46.7237      46.7237 
   75000    135.53348    -8034.919   -7205.1039   -932.63566     102002.7      46.7237      46.7237      46.7237 
   76000    128.53322   -8049.4551   -7262.4996   -735.45832     102002.7      46.7237      46.7237      46.7237 
   77000    130.85265   -8045.5721   -7244.4158    -774.8475     102002.7      46.7237      46.7237      46.7237 
   78000    133.19194   -8057.5353   -7242.0564   -647.65418     102002.7      46.7237      46.7237      46.7237 
   79000     127.2672   -8061.0599   -7281.8558   -879.55101     102002.7      46.7237      46.7237      46.7237 
   80000    129.95739   -8030.9525   -7235.2775   -1088.1094     102002.7      46.7237      46.7237      46.7237 
   81000    129.22829   -8043.9011     -7252.69   -738.70695     102002.7      46.7237      46.7237      46.7237 
   82000    133.55655   -8043.9203   -7226.2091   -856.00634     102002.7      46.7237      46.7237      46.7237 
   83000     126.1542   -8018.9752   -7246.5856   -1023.2569     102002.7      46.7237      46.7237      46.7237 
   84000    123.77388   -8011.0823   -7253.2664    -628.1373     102002.7      46.7237      46.7237      46.7237 
   85000    128.19035   -8031.8469   -7246.9907   -1049.9196     102002.7      46.7237      46.7237      46.7237 
   86000    129.76192    -8038.477   -7243.9988   -610.32022     102002.7      46.7237      46.7237      46.7237 
   87000    129.15021   -8019.2213   -7228.4883   -690.56634     102002.7      46.7237      46.7237      46.7237 
   88000    131.98291   -8074.4063   -7266.3299   -962.65268     102002.7      46.7237      46.7237      46.7237 
   89000    130.46109   -8034.6135   -7235.8545   -1028.3816     102002.7      46.7237      46.7237      46.7237 
   90000     130.2991   -8025.1188   -7227.3516   -873.35424     102002.7      46.7237      46.7237      46.7237 
   91000    129.50117   -8057.8189   -7264.9371   -522.60422     102002.7      46.7237      46.7237      46.7237 
   92000    131.75022   -8056.7139   -7250.0621   -998.20592     102002.7      46.7237      46.7237      46.7237 
   93000    130.27701   -8020.3331   -7222.7011   -915.44961     102002.7      46.7237      46.7237      46.7237 
   94000    126.10559   -8065.3829   -7293.2909   -946.27063     102002.7      46.7237      46.7237      46.7237 
   95000    129.32249   -8013.4169   -7221.6292   -1045.6543     102002.7      46.7237      46.7237      46.7237 
   96000    130.35225    -8067.254   -7269.1614   -786.78317     102002.7      46.7237      46.7237      46.7237 
   97000    130.20285   -8049.0437   -7251.8659   -682.14405     102002.7      46.7237      46.7237      46.7237 
   98000     133.5856   -8042.3394   -7224.4504   -805.77088     102002.7      46.7237      46.7237      46.7237 
   99000    127.55195   -8009.0031   -7228.0556   -940.57574     102002.7      46.7237      46.7237      46.7237 
  100000    130.16258   -8053.9954   -7257.0642   -1088.1116     102002.7      46.7237      46.7237      46.7237 
  101000    130.22382   -8047.5346   -7250.2283   -655.02572     102002.7      46.7237      46.7237      46.7237 
  102000    127.38923    -8037.639   -7257.6878   -843.49921     102002.7      46.7237      46.7237      46.7237 
  103000    131.43607   -8015.4797   -7210.7513   -577.72296     102002.7      46.7237      46.7237      46.7237 
  104000    129.45376   -8032.9344   -7240.3428   -720.75188     102002.7      46.7237      46.7237      46.7237 
  105000    131.99956   -8051.2655   -7243.0871   -988.54019     102002.7      46.7237      46.7237      46.7237 
  106000    128.57948   -8032.9789   -7245.7402   -720.37004     102002.7      46.7237      46.7237      46.7237 
  107000    130.64131   -8040.5086   -7240.6462   -985.90446     102002.7      46.7237      46.7237      46.7237 
  108000    132.35648   -8039.9495   -7229.5859   -1125.0806     102002.7      46.7237      46.7237      46.7237 
  109000    133.39625   -8051.0193   -7234.2895    -978.7885     102002.7      46.7237      46.7237      46.7237 
  110000    132.35627     -8018.64   -7208.2777   -906.48821     102002.7      46.7237      46.7237      46.7237 
  111000    133.70717   -8014.3606   -7195.7273   -886.67337     102002.7      46.7237      46.7237      46.7237 
  112000    135.15767    -8043.675   -7216.1609   -883.43578     102002.7      46.7237      46.7237      46.7237 
  113000    131.32828   -8054.3459   -7250.2775   -981.23726     102002.7      46.7237      46.7237      46.7237 
  114000    128.52791   -8027.8156   -7240.8927   -1030.2549     102002.7      46.7237      46.7237      46.7237 
  115000    129.68418    -8029.675   -7235.6728   -709.84591     102002.7      46.7237      46.7237      46.7237 
  116000    128.33133   -8023.4613    -7237.742   -762.38745     102002.7      46.7237      46.7237      46.7237 
  117000    133.81766   -8033.0081   -7213.6982   -616.24897     102002.7      46.7237      46.7237      46.7237 
  118000    130.58053   -8011.2758   -7211.7855   -989.64582     102002.7      46.7237      46.7237      46.7237 
  119000    129.35868   -8004.8283   -7212.8189   -727.88941     102002.7      46.7237      46.7237      46.7237 
  120000    130.70701   -8037.5432   -7237.2786    -568.7865     102002.7      46.7237      46.7237      46.7237 
  121000    131.33811   -8022.5614   -7218.4328     -744.754     102002.7      46.7237      46.7237      46.7237 
  122000    131.42055   -8027.3579   -7222.7246   -818.03788     102002.7      46.7237      46.7237      46.7237 
  123000    132.57883   -8041.4593   -7229.7343   -769.76234     102002.7      46.7237      46.7237      46.7237 
  124000     126.1054   -8024.2091   -7252.1182   -753.07302     102002.7      46.7237      46.7237      46.7237 
  125000    129.17296   -8008.0961   -7217.2238    -548.6133     102002.7      46.7237      46.7237      46.7237 
  126000    128.11916    -8037.457   -7253.0368     -839.161     102002.7      46.7237      46.7237      46.7237 
  127000    130.94348   -8052.8944   -7251.1819    -821.1971     102002.7      46.7237      46.7237      46.7237 
  128000    129.80414   -8040.4229   -7245.6862   -931.95845     102002.7      46.7237      46.7237      46.7237 
  129000    132.61306   -8039.2578   -7227.3233   -618.48493     102002.7      46.7237      46.7237      46.7237 
  130000    129.70824   -8034.8922   -7240.7426   -729.45339     102002.7      46.7237      46.7237      46.7237 
  131000    128.56826   -8008.1109   -7220.9409     -694.728     102002.7      46.7237      46.7237      46.7237 
  132000    130.29871   -8039.2496   -7241.4848   -802.45801     102002.7      46.7237      46.7237      46.7237 
  133000    132.32678    -8042.096   -7231.9142   -534.00547     102002.7      46.7237      46.7237      46.7237 
  134000    130.38483   -8058.2721     -7259.98   -567.49283     102002.7      46.7237      46.7237      46.7237 
  135000    130.51525   -8045.4452   -7246.3546   -775.29178     102002.7      46.7237      46.7237      46.7237 
  136000    129.88416   -8033.3321   -7238.1055    -834.2899     102002.7      46.7237      46.7237      46.7237 
  137000    132.93103   -8045.2818   -7231.4005    -731.7254     102002.7      46.7237      46.7237      46.7237 
  138000    132.57855    -8060.864   -7249.1407    -804.4034     102002.7      46.7237      46.7237      46.7237 
  139000    132.46825   -8031.0484   -7220.0004    -981.5715     102002.7      46.7237      46.7237      46.7237 
  140000    129.49474   -8042.7211   -7249.8787   -636.39774     102002.7      46.7237      46.7237      46.7237 
  141000    134.55869   -8030.7647   -7206.9178   -935.53876     102002.7      46.7237      46.7237      46.7237 
  142000    128.03444   -8029.0973   -7245.1958   -609.15082     102002.7      46.7237      46.7237      46.7237 
  143000     132.3739   -8020.7666   -7210.2963   -776.74348     102002.7      46.7237      46.7237      46.7237 
  144000    131.92154   -8034.8614   -7227.1607   -450.82949     102002.7      46.7237      46.7237      46.7237 
  145000    132.19459   -8042.9127   -7233.5402   -686.63035     102002.7      46.7237      46.7237      46.7237 
  146000    129.33171   -8033.5554   -7241.7112   -433.53925     102002.7      46.7237      46.7237      46.7237 
  147000    133.77021   -8045.2841   -7226.2648   -513.92072     102002.7      46.7237      46.7237      46.7237 
  148000    126.18461   -8031.5608   -7258.9849   -621.47599     102002.7      46.7237      46.7237      46.7237 
  149000    124.43546   -8016.8242   -7254.9576   -535.68087     102002.7      46.7237      46.7237      46.7237 
  150000    130.94609   -8024.8482   -7223.1198   -758.04606     102002.7      46.7237      46.7237      46.7237 
  151000    132.30094   -8026.3558   -7216.3322   -791.16355     102002.7      46.7237      46.7237      46.7237 
  152000    129.34558   -8032.8152   -7240.8861   -644.82145     102002.7      46.7237      46.7237      46.7237 
  153000    130.15086     -8009.05   -7212.1905   -800.94831     102002.7      46.7237      46.7237      46.7237 
  154000    129.21972   -8042.3012   -7251.1426    -858.4603     102002.7      46.7237      46.7237      46.7237 
  155000    132.35505   -8009.5467   -7199.1919   -944.96023     102002.7      46.7237      46.7237      46.7237 
  156000    128.44331   -8029.5762   -7243.1712   -790.65726     102002.7      46.7237      46.7237      46.7237 
  157000    130.79439   -8036.8957   -7236.0961   -687.07959     102002.7      46.7237      46.7237      46.7237 
  158000    129.60676   -8040.0847   -7246.5565   -975.13772     102002.7      46.7237      46.7237      46.7237 
  159000    133.56012   -8028.1212   -7210.3882   -428.89569     102002.7      46.7237      46.7237      46.7237 
  160000    129.95426   -8031.2972   -7235.6413   -674.54743     102002.7      46.7237      46.7237      46.7237 
  161000    128.08164    -8003.652   -7219.4615   -589.00993     102002.7      46.7237      46.7237      46.7237 
  162000    132.11176   -8013.2566   -7204.3913   -602.34881     102002.7      46.7237      46.7237      46.7237 
  163000    128.14843   -8032.6879   -7248.0884   -870.88535     102002.7      46.7237      46.7237      46.7237 
  164000    130.25435   -8026.7915   -7229.2984   -861.12919     102002.7      46.7237      46.7237      46.7237 
  165000    130.50809   -8031.1697    -7232.123   -276.90381     102002.7      46.7237      46.7237      46.7237 
  166000    130.72085   -8067.1035   -7266.7541   -442.10387     102002.7      46.7237      46.7237      46.7237 
  167000    130.36207   -8034.7139   -7236.5612   -846.17137     102002.7      46.7237      46.7237      46.7237 
  168000    130.60153   -8032.3047   -7232.6859   -335.88901     102002.7      46.7237      46.7237      46.7237 
  169000    130.48977   -7992.3994   -7193.4649   -615.71337     102002.7      46.7237      46.7237      46.7237 
  170000    128.11536   -8030.2402   -7245.8432   -573.63756     102002.7      46.7237      46.7237      46.7237 
  171000      129.925   -8023.0919   -7227.6152   -571.40212     102002.7      46.7237      46.7237      46.7237 
  172000    132.11269    -8015.283    -7206.412   -910.11808     102002.7      46.7237      46.7237      46.7237 
  173000    127.20939   -8042.5692   -7263.7191   -443.88545     102002.7      46.7237      46.7237      46.7237 
  174000    125.63034   -8018.3295   -7249.1473   -930.83168     102002.7      46.7237      46.7237      46.7237 
  175000    127.57421   -8013.1384   -7232.0546   -837.71384     102002.7      46.7237      46.7237      46.7237 
  176000    126.57295   -8012.8264   -7237.8729   -906.91925     102002.7      46.7237      46.7237      46.7237 
  177000     127.7652    -8018.297   -7236.0439   -990.65483     102002.7      46.7237      46.7237      46.7237 
  178000    125.79901   -8040.3743   -7270.1594   -837.08086     102002.7      46.7237      46.7237      46.7237 
  179000    127.39324   -8035.1843   -7255.2085   -919.80456     102002.7      46.7237      46.7237      46.7237 
  180000     129.3027   -8021.3616    -7229.695   -609.09969     102002.7      46.7237      46.7237      46.7237 
  181000    130.56835   -8047.0699   -7247.6542   -800.33248     102002.7      46.7237      46.7237      46.7237 
  182000    128.86572   -8030.0219   -7241.0307   -973.50027     102002.7      46.7237      46.7237      46.7237 
  183000    126.54144    -8033.835   -7259.0744   -753.52708     102002.7      46.7237      46.7237      46.7237 
  184000    127.50315   -8049.4772   -7268.8285   -796.75241     102002.7      46.7237      46.7237      46.7237 
  185000    129.28171   -8027.0625   -7235.5243   -457.64097     102002.7      46.7237      46.7237      46.7237 
  186000    127.81007   -8021.0675   -7238.5396   -576.21376     102002.7      46.7237      46.7237      46.7237 
  187000    125.52004   -8050.0502   -7281.5432   -953.76257     102002.7      46.7237      46.7237      46.7237 
  188000    129.06926   -8016.4067   -7226.1693   -779.01921     102002.7      46.7237      46.7237      46.7237 
  189000     131.6793   -8040.5025    -7234.285   -925.59953     102002.7      46.7237      46.7237      46.7237 
  190000    131.79975   -8031.1715   -7224.2165   -704.18861     102002.7      46.7237      46.7237      46.7237 
  191000    131.10048   -8056.4211   -7253.7474   -921.63071     102002.7      46.7237      46.7237      46.7237 
  192000    131.28814   -8023.7506    -7219.928   -851.20583     102002.7      46.7237      46.7237      46.7237 
  193000    129.51983   -8011.8671   -7218.8711    -956.8761     102002.7      46.7237      46.7237      46.7237 
  194000    127.65085   -8008.0416   -7226.4886   -866.43621     102002.7      46.7237      46.7237      46.7237 
  195000    130.36758    -8015.181   -7216.9945   -981.04653     102002.7      46.7237      46.7237      46.7237 
  196000    130.06508   -8006.4919   -7210.1576   -553.33929     102002.7      46.7237      46.7237      46.7237 
  197000    127.89273   -7998.3599   -7215.3259   -700.46848     102002.7      46.7237      46.7237      46.7237 
  198000    132.77535    -8014.825   -7201.8968   -549.31243     102002.7      46.7237      46.7237      46.7237 
  199000    131.94049   -8032.9736   -7225.1569   -744.03218     102002.7      46.7237      46.7237      46.7237 
  200000    126.84531   -8012.3931    -7235.772   -729.48799     102002.7      46.7237      46.7237      46.7237 
  201000     134.0572   -8047.4809   -7226.7045   -651.82048     102002.7      46.7237      46.7237      46.7237 
  202000    134.36758   -8006.1671   -7183.4904    -679.2997     102002.7      46.7237      46.7237      46.7237 
  203000    132.19341   -8042.5035   -7233.1383   -781.35977     102002.7      46.7237      46.7237      46.7237 
  204000    134.53381   -8026.7028   -7203.0083     -710.284     102002.7      46.7237      46.7237      46.7237 
  205000    131.44806   -8018.0589   -7213.2572   -705.01934     102002.7      46.7237      46.7237      46.7237 
  206000    128.98197   -8030.1567   -7240.4538   -744.59488     102002.7      46.7237      46.7237      46.7237 
  207000    132.29844   -8031.8498   -7221.8415   -917.80105     102002.7      46.7237      46.7237      46.7237 
  208000    128.96304   -8005.9142   -7216.3272    -641.4597     102002.7      46.7237      46.7237      46.7237 
  209000     129.2503   -8031.3615   -7240.0157    -995.2024     102002.7      46.7237      46.7237      46.7237 
  210000    132.30063   -8046.8925   -7236.8707    -1091.606     102002.7      46.7237      46.7237      46.7237 
  211000    131.84452   -8004.1681    -7196.939   -992.81534     102002.7      46.7237      46.7237      46.7237 
  212000    131.15188   -8044.8805   -7241.8921    -1122.663     102002.7      46.7237      46.7237      46.7237 
  213000     134.0318    -8020.812   -7200.1911   -711.62219     102002.7      46.7237      46.7237      46.7237 
  214000    130.85856   -8024.1989   -7223.0063   -957.93119     102002.7      46.7237      46.7237      46.7237 
  215000    126.44887   -8008.5603   -7234.3664   -978.11751     102002.7      46.7237      46.7237      46.7237 
  216000    131.25305   -8005.2863   -7201.6785   -1449.2935     102002.7      46.7237      46.7237      46.7237 
  217000    129.45902   -8013.8565   -7221.2328   -1053.6511     102002.7      46.7237      46.7237      46.7237 
  218000    127.33739   -8014.9332   -7235.2994   -1100.0942     102002.7      46.7237      46.7237      46.7237 
  219000    130.04982   -8000.4974   -7204.2565    -680.5258     102002.7      46.7237      46.7237      46.7237 
  220000     131.4782   -8011.0894   -7206.1031   -876.46185     102002.7      46.7237      46.7237      46.7237 
  221000    133.89601   -8031.3078   -7211.5182   -946.05403     102002.7      46.7237      46.7237      46.7237 
  222000    132.55237   -8001.2415   -7189.6784    -845.4941     102002.7      46.7237      46.7237      46.7237 
  223000    128.67289   -8026.1043   -7238.2938   -771.37346     102002.7      46.7237      46.7237      46.7237 
  224000    127.39269   -8036.9552   -7256.9827    -991.4281     102002.7      46.7237      46.7237      46.7237 
  225000    132.32705   -8020.4124   -7210.2289   -845.82839     102002.7      46.7237      46.7237      46.7237 
  226000    129.34072   -8028.1729   -7236.2735   -502.71326     102002.7      46.7237      46.7237      46.7237 
  227000    130.23544   -8007.2862   -7209.9088   -611.68691     102002.7      46.7237      46.7237      46.7237 
  228000    128.94376   -8021.2723   -7231.8033     -731.749     102002.7      46.7237      46.7237      46.7237 
  229000    122.03334    -8008.782   -7261.6226   -667.71738     102002.7      46.7237      46.7237      46.7237 
  230000    134.61872   -8049.3268   -7225.1124   -857.15557     102002.7      46.7237      46.7237      46.7237 
  231000    128.76595   -8040.2911   -7251.9107    -586.6802     102002.7      46.7237      46.7237      46.7237 
  232000    134.26189   -8022.1552   -7200.1255   -665.30268     102002.7      46.7237      46.7237      46.7237 
  233000    134.38876   -8002.3263   -7179.5198   -752.86094     102002.7      46.7237      46.7237      46.7237 
  234000    128.43003   -8024.0012   -7237.6776   -669.86794     102002.7      46.7237      46.7237      46.7237 
  235000    131.90942   -8022.9071   -7215.2806   -910.45993     102002.7      46.7237      46.7237      46.7237 
  236000    132.34447   -8026.1172   -7215.8271   -589.86887     102002.7      46.7237      46.7237      46.7237 
  237000     127.4359   -8028.5107   -7248.2738   -833.44335     102002.7      46.7237      46.7237      46.7237 
  238000    128.04084   -8037.2454   -7253.3047   -855.50994     102002.7      46.7237      46.7237      46.7237 
  239000    131.41734   -8008.8625   -7204.2489   -702.56949     102002.7      46.7237      46.7237      46.7237 
  240000    127.75281   -8043.0465   -7260.8692   -795.49361     102002.7      46.7237      46.7237      46.7237 
  241000    131.35419     -8024.28    -7220.053    -682.4678     102002.7      46.7237      46.7237      46.7237 
  242000    128.50368   -8030.3112   -7243.5367   -555.42216     102002.7      46.7237      46.7237      46.7237 
  243000    131.35702   -8039.5666   -7235.3222   -864.53038     102002.7      46.7237      46.7237      46.7237 
  244000    131.18234    -8041.561   -7238.3862   -842.62299     102002.7      46.7237      46.7237      46.7237 
  245000    134.47103   -8033.5113   -7210.2011   -610.04951     102002.7      46.7237      46.7237      46.7237 
  246000    132.83887   -8026.1442    -7212.827    -719.7028     102002.7      46.7237      46.7237      46.7237 
  247000    130.16814   -8034.5475   -7237.5821   -734.68261     102002.7      46.7237      46.7237      46.7237 
  248000    126.80915   -8026.7963   -7250.3967   -790.73331     102002.7      46.7237      46.7237      46.7237 
  249000    133.65835   -8052.2107   -7233.8763   -841.08096     102002.7      46.7237      46.7237      46.7237 
  250000    128.90662   -8036.8051   -7247.5635   -584.93047     102002.7      46.7237      46.7237      46.7237 
  251000    124.68637   -8027.8377    -7264.435   -779.53058     102002.7      46.7237      46.7237      46.7237 
  252000    127.50849   -8030.4694    -7249.788   -923.34581     102002.7      46.7237      46.7237      46.7237 
  253000    130.96854    -8016.631   -7214.7652   -847.99175     102002.7      46.7237      46.7237      46.7237 
  254000    129.82843    -8031.173   -7236.2875   -1182.4673     102002.7      46.7237      46.7237      46.7237 
  255000    127.01419   -8027.0809   -7249.4259   -845.83046     102002.7      46.7237      46.7237      46.7237 
  256000    133.94315   -8018.3779   -7198.2998   -1112.1371     102002.7      46.7237      46.7237      46.7237 
  257000    127.39658   -8014.7435   -7234.7473   -1443.6773     102002.7      46.7237      46.7237      46.7237 
  258000    126.85885   -8039.6432   -7262.9392   -896.24702     102002.7      46.7237      46.7237      46.7237 
  259000    128.68054   -8006.4098   -7218.5524   -708.11693     102002.7      46.7237      46.7237      46.7237 
  260000    131.06248   -8027.3442   -7224.9031   -845.97581     102002.7      46.7237      46.7237      46.7237 
  261000    133.56132   -7990.5695   -7172.8291   -613.82312     102002.7      46.7237      46.7237      46.7237 
  262000    130.34085   -8025.0086   -7226.9859   -724.48287     102002.7      46.7237      46.7237      46.7237 
  263000    128.78837   -8049.4605   -7260.9428   -905.29875     102002.7      46.7237      46.7237      46.7237 
  264000     125.1002   -8018.9998   -7253.0633   -1294.9928     102002.7      46.7237      46.7237      46.7237 
  265000    130.89809     -8026.94   -7225.5055   -782.62307     102002.7      46.7237      46.7237      46.7237 
  266000    126.50361   -8037.1636   -7262.6347   -819.68544     102002.7      46.7237      46.7237      46.7237 
  267000    128.22653   -7997.8665   -7212.7888   -894.42708     102002.7      46.7237      46.7237      46.7237 
  268000    130.75535   -8021.3605   -7220.7999   -1108.4998     102002.7      46.7237      46.7237      46.7237 
  269000    130.20148   -8039.9313   -7242.7618   -579.58382     102002.7      46.7237      46.7237      46.7237 
  270000    131.43436   -8031.8268   -7227.1089   -736.12717     102002.7      46.7237      46.7237      46.7237 
  271000    127.05778   -8045.3471   -7267.4252    -970.9603     102002.7      46.7237      46.7237      46.7237 
  272000    130.58221   -8015.3888   -7215.8882   -1006.2656     102002.7      46.7237      46.7237      46.7237 
  273000    132.60305   -8017.7654   -7205.8921   -624.82054     102002.7      46.7237      46.7237      46.7237 
  274000    128.46314   -8035.7036   -7249.1772   -954.42554     102002.7      46.7237      46.7237      46.7237 
  275000    131.52106   -8019.4123   -7214.1636   -806.86974     102002.7      46.7237      46.7237      46.7237 
  276000    128.18261   -8013.5336   -7228.7248   -864.70359     102002.7      46.7237      46.7237      46.7237 
  277000    126.92755   -8017.4397   -7240.3151   -638.59409     102002.7      46.7237      46.7237      46.7237 
  278000    130.92757   -8031.6528   -7230.0378   -776.63365     102002.7      46.7237      46.7237      46.7237 
  279000    129.82227   -8039.1474   -7244.2996   -794.21389     102002.7      46.7237      46.7237      46.7237 
  280000     128.5127   -8035.3682   -7248.5384    -1021.999     102002.7      46.7237      46.7237      46.7237 
  281000    130.67312   -8010.6714   -7210.6143   -862.99822     102002.7      46.7237      46.7237      46.7237 
  282000    132.48722   -8055.5461   -7244.3819   -718.07941     102002.7      46.7237      46.7237      46.7237 
  283000    131.86261   -8019.4654   -7212.1255   -1310.6016     102002.7      46.7237      46.7237      46.7237 
  284000    128.39992   -8021.0565   -7234.9172   -918.02376     102002.7      46.7237      46.7237      46.7237 
  285000    130.04897   -8052.2781   -7256.0424   -838.99352     102002.7      46.7237      46.7237      46.7237 
  286000    128.80947   -8044.1889   -7255.5422   -730.29956     102002.7      46.7237      46.7237      46.7237 
  287000    129.76674   -8000.2184   -7205.7107   -605.46311     102002.7      46.7237      46.7237      46.7237 
  288000    125.60727   -8039.5082   -7270.4671   -463.64405     102002.7      46.7237      46.7237      46.7237 
  289000    129.68964   -8039.0551   -7245.0194   -611.72206     102002.7      46.7237      46.7237      46.7237 
  290000    133.55241   -8033.9351   -7216.2492   -497.47189     102002.7      46.7237      46.7237      46.7237 
  291000     126.4616   -8037.0397   -7262.7679   -748.54131     102002.7      46.7237      46.7237      46.7237 
  292000    127.91498   -8018.3701   -7235.1999   -778.36705     102002.7      46.7237      46.7237      46.7237 
  293000    127.30089     -8028.88   -7249.4696   -720.32951     102002.7      46.7237      46.7237      46.7237 
  294000    130.61529   -8015.2402   -7215.5371   -732.79789     102002.7      46.7237      46.7237      46.7237 
  295000     131.0259   -8027.4785   -7225.2614   -654.69324     102002.7      46.7237      46.7237      46.7237 
  296000    128.64436   -8056.2443   -7268.6084   -765.89172     102002.7      46.7237      46.7237      46.7237 
  297000    129.81771   -8060.3342   -7265.5145   -816.40575     102002.7      46.7237      46.7237      46.7237 
  298000    133.12829   -8035.9718   -7220.8827   -661.91642     102002.7      46.7237      46.7237      46.7237 
  299000    129.62693   -8024.7164   -7231.0646   -952.76014     102002.7      46.7237      46.7237      46.7237 
  300000    133.39264   -8024.0027   -7207.2951   -1053.1518     102002.7      46.7237      46.7237      46.7237 
  301000    132.40013   -8067.6595   -7257.0286   -947.33871     102002.7      46.7237      46.7237      46.7237 
  302000    131.17746    -8028.148    -7225.003   -910.23666     102002.7      46.7237      46.7237      46.7237 
  303000    131.15487   -8006.5171   -7203.5104   -985.28379     102002.7      46.7237      46.7237      46.7237 
  304000     132.5286   -8040.2497   -7228.8322   -842.08496     102002.7      46.7237      46.7237      46.7237 
  305000    130.90558   -7995.8511   -7194.3707   -412.20786     102002.7      46.7237      46.7237      46.7237 
  306000      129.156   -8026.1454    -7235.377   -889.53283     102002.7      46.7237      46.7237      46.7237 
  307000    134.64263   -8023.8723   -7199.5115   -836.72178     102002.7      46.7237      46.7237      46.7237 
  308000    126.35506   -8045.9802   -7272.3608    -585.0238     102002.7      46.7237      46.7237      46.7237 
  309000    130.97601    -8018.819   -7216.9074   -830.89241     102002.7      46.7237      46.7237      46.7237 
  310000    122.46884   -8012.6484   -7262.8227    -746.4541     102002.7      46.7237      46.7237      46.7237 
  311000    129.20535   -8020.2127   -7229.1421   -801.49281     102002.7      46.7237      46.7237      46.7237 
  312000    127.57491   -8034.4356   -7253.3475    -801.9013     102002.7      46.7237      46.7237      46.7237 
  313000    132.00394   -8055.1465   -7246.9414   -524.03203     102002.7      46.7237      46.7237      46.7237 
  314000     138.0575    -8049.608   -7204.3394   -1053.1531     102002.7      46.7237      46.7237      46.7237 
  315000    132.15598   -8044.3376   -7235.2015   -847.88518     102002.7      46.7237      46.7237      46.7237 
  316000    128.27552   -8034.5631   -7249.1855   -873.53001     102002.7      46.7237      46.7237      46.7237 
  317000    130.80034   -8076.7446   -7275.9086   -857.49037     102002.7      46.7237      46.7237      46.7237 
  318000    131.97904   -8018.1258    -7210.073   -1062.7239     102002.7      46.7237      46.7237      46.7237 
  319000    127.48156   -8034.8567   -7254.3401   -1123.3982     102002.7      46.7237      46.7237      46.7237 
  320000    128.20797   -8011.9653   -7227.0013   -986.93679     102002.7      46.7237      46.7237      46.7237 
  321000    129.98306   -8022.6519   -7226.8197   -753.66048     102002.7      46.7237      46.7237      46.7237 
  322000    131.77171     -8038.76   -7231.9767   -943.09081     102002.7      46.7237      46.7237      46.7237 
  323000    127.47251   -8020.1471    -7239.686    -823.4512     102002.7      46.7237      46.7237      46.7237 
  324000     127.9768   -8027.3205   -7243.7718   -873.79364     102002.7      46.7237      46.7237      46.7237 
  325000    127.36329   -8076.9088   -7297.1164    -754.9002     102002.7      46.7237      46.7237      46.7237 
  326000    128.18234   -8009.2609   -7224.4538    -1137.168     102002.7      46.7237      46.7237      46.7237 
  327000    129.38966   -8036.3677   -7244.1686   -645.68243     102002.7      46.7237      46.7237      46.7237 
  328000    130.19309   -8027.6947   -7230.5765   -995.08474     102002.7      46.7237      46.7237      46.7237 
  329000    131.24484   -8035.8847   -7232.3272   -948.31497     102002.7      46.7237      46.7237      46.7237 
  330000    127.54456   -8053.4393   -7272.5371   -740.89767     102002.7      46.7237      46.7237      46.7237 
  331000    131.16035      -8012.4   -7209.3597   -807.69547     102002.7      46.7237      46.7237      46.7237 
  332000    131.42748   -8011.9242   -7207.2485   -738.99722     102002.7      46.7237      46.7237      46.7237 
  333000      128.898    -8023.389   -7234.2002   -650.98841     102002.7      46.7237      46.7237      46.7237 
  334000    130.22448   -8018.4524   -7221.1421   -680.85063     102002.7      46.7237      46.7237      46.7237 
  335000    129.81373   -8065.4408   -7270.6454   -637.56753     102002.7      46.7237      46.7237      46.7237 
  336000    129.12961   -8017.8906   -7227.2838   -518.00704     102002.7      46.7237      46.7237      46.7237 
  337000    129.37367   -8014.8895   -7222.7883   -671.94059     102002.7      46.7237      46.7237      46.7237 
  338000    127.93185   -8021.3884   -7238.1149   -650.94355     102002.7      46.7237      46.7237      46.7237 
  339000    130.71989   -8009.5876   -7209.2441   -604.33312     102002.7      46.7237      46.7237      46.7237 
  340000    131.42483   -8039.5754   -7234.9159    -902.9747     102002.7      46.7237      46.7237      46.7237 
  341000    134.72462   -8009.1829   -7184.3202   -936.60582     102002.7      46.7237      46.7237      46.7237 
  342000    127.38484   -8048.5139   -7268.5896   -526.13987     102002.7      46.7237      46.7237      46.7237 
  343000    133.04359   -8031.0196    -7216.449   -662.42201     102002.7      46.7237      46.7237      46.7237 
  344000    127.05247   -8016.9475   -7239.0581   -707.38486     102002.7      46.7237      46.7237      46.7237 
  345000     129.6753   -8013.7704   -7219.8225   -631.43145     102002.7      46.7237      46.7237      46.7237 
  346000    129.15546   -7998.2834   -7207.5183   -905.36605     102002.7      46.7237      46.7237      46.7237 
  347000    130.66001   -8025.5012   -7225.5243   -720.90592     102002.7      46.7237      46.7237      46.7237 
  348000    127.58519   -8015.8121   -7234.6611   -991.97567     102002.7      46.7237      46.7237      46.7237 
  349000    130.94778   -8004.7493   -7203.0105   -916.44311     102002.7      46.7237      46.7237      46.7237 
  350000    135.51559   -8017.4134   -7187.7079   -666.93328     102002.7      46.7237      46.7237      46.7237 
  351000     132.1187   -8023.1858    -7214.278   -528.04366     102002.7      46.7237      46.7237      46.7237 
  352000    128.91437   -8018.7572   -7229.4682   -895.70602     102002.7      46.7237      46.7237      46.7237 
  353000    129.93676   -8046.6226   -7251.0739   -696.12851     102002.7      46.7237      46.7237      46.7237 
  354000     129.4062   -8029.3429   -7237.0426   -790.01055     102002.7      46.7237      46.7237      46.7237 
  355000    130.19416   -8000.7535   -7203.6288   -663.72339     102002.7      46.7237      46.7237      46.7237 
  356000    127.01552    -8023.845   -7246.1818   -535.34402     102002.7      46.7237      46.7237      46.7237 
  357000    138.16221   -8025.9649   -7180.0552   -1013.8531     102002.7      46.7237      46.7237      46.7237 
  358000    129.96079   -8018.1102   -7222.4144   -883.98469     102002.7      46.7237      46.7237      46.7237 
  359000    131.02014   -8023.7763   -7221.5945   -1013.2948     102002.7      46.7237      46.7237      46.7237 
  360000    128.00908   -8039.1308   -7255.3845   -509.74476     102002.7      46.7237      46.7237      46.7237 
  361000    128.94808   -8025.3573   -7235.8619    -990.2696     102002.7      46.7237      46.7237      46.7237 
  362000    127.95385   -8043.8535   -7260.4453   -1087.6053     102002.7      46.7237      46.7237      46.7237 
  363000    131.86201   -8022.1928   -7214.8566   -1222.4538     102002.7      46.7237      46.7237      46.7237 
  364000    129.83438   -7989.2578   -7194.3359   -920.27418     102002.7      46.7237      46.7237      46.7237 
  365000    131.80025   -7991.6606   -7184.7025    -850.4604     102002.7      46.7237      46.7237      46.7237 
  366000    130.26783   -8032.4258   -7234.8501   -1170.0711     102002.7      46.7237      46.7237      46.7237 
  367000    127.92712   -8018.7885    -7235.544    -731.4022     102002.7      46.7237      46.7237      46.7237 
  368000    131.95157   -8025.7767   -7217.8921   -789.58578     102002.7      46.7237      46.7237      46.7237 
  369000    130.89824   -8009.2328   -7207.7973   -853.41423     102002.7      46.7237      46.7237      46.7237 
  370000    130.97443   -8013.6175   -7211.7156   -1027.5164     102002.7      46.7237      46.7237      46.7237 
  371000    128.44516   -8018.6301   -7232.2139   -682.59373     102002.7      46.7237      46.7237      46.7237 
  372000    131.29423   -8042.0908   -7238.2309   -615.05081     102002.7      46.7237      46.7237      46.7237 
  373000    128.90458   -8008.4083   -7219.1792   -882.60428     102002.7      46.7237      46.7237      46.7237 
  374000    127.72376   -8010.6757   -7228.6763   -799.88039     102002.7      46.7237      46.7237      46.7237 
  375000    128.37981   -7990.2716   -7204.2554   -716.57033     102002.7      46.7237      46.7237      46.7237 
  376000    129.13496    -8000.281   -7209.6413   -738.49412     102002.7      46.7237      46.7237      46.7237 
  377000    130.43444   -8020.3284   -7221.7326   -384.48731     102002.7      46.7237      46.7237      46.7237 
  378000    128.16288   -8036.9474   -7252.2594   -493.00177     102002.7      46.7237      46.7237      46.7237 
  379000    130.55297   -8021.8952   -7222.5737   -941.85597     102002.7      46.7237      46.7237      46.7237 
  380000    129.10204   -8025.6822   -7235.2442   -898.72504     102002.7      46.7237      46.7237      46.7237 
  381000    130.06436   -8021.9906   -7225.6607   -658.71675     102002.7      46.7237      46.7237      46.7237 
  382000    131.30144   -8036.4539   -7232.5499   -533.78177     102002.7      46.7237      46.7237      46.7237 
  383000     128.6358   -8051.0912   -7263.5077   -693.29004     102002.7      46.7237      46.7237      46.7237 
  384000    129.95885   -8036.0098   -7240.3258   -630.27697     102002.7      46.7237      46.7237      46.7237 
  385000    129.61282   -8023.1634    -7229.598   -671.10406     102002.7      46.7237      46.7237      46.7237 
  386000    126.89157   -8026.3909   -7249.4866   -619.20774     102002.7      46.7237      46.7237      46.7237 
  387000    125.36491   -8017.6144   -7250.0572   -740.16771     102002.7      46.7237      46.7237      46.7237 
  388000    128.32076    -8030.244   -7244.5894   -637.24713     102002.7      46.7237      46.7237      46.7237 
  389000    125.93511   -8041.1214   -7270.0731   -920.78566     102002.7      46.7237      46.7237      46.7237 
  390000    127.85921   -8024.1187   -7241.2899   -672.72725     102002.7      46.7237      46.7237      46.7237 
  391000    127.63552   -8012.3555   -7230.8963   -1014.7885     102002.7      46.7237      46.7237      46.7237 
  392000    131.41547    -8019.896   -7215.2938   -753.10368     102002.7      46.7237      46.7237      46.7237 
  393000    127.59406   -8018.7565   -7237.5512     -772.849     102002.7      46.7237      46.7237      46.7237 
  394000    129.15007   -8019.6735   -7228.9414   -1011.6929     102002.7      46.7237      46.7237      46.7237 
  395000    125.84942   -8043.5932   -7273.0695   -773.58392     102002.7      46.7237      46.7237      46.7237 
  396000    130.51053   -8038.2322   -7239.1705   -977.90192     102002.7      46.7237      46.7237      46.7237 
  397000    130.64752   -8047.0497   -7247.1493   -933.31077     102002.7      46.7237      46.7237      46.7237 
  398000    130.61799   -8010.9466    -7211.227   -848.63667     102002.7      46.7237      46.7237      46.7237 
  399000    131.47363   -8015.3148   -7210.3565   -923.62841     102002.7      46.7237      46.7237      46.7237 
  400000     130.4068   -8035.3918   -7236.9652   -870.32835     102002.7      46.7237      46.7237      46.7237 
  401000    129.68086    -8025.883   -7231.9011   -806.55122     102002.7      46.7237      46.7237      46.7237 
  402000    135.73147   -8000.1996   -7169.1723   -960.19056     102002.7      46.7237      46.7237      46.7237 
  403000    129.66306   -8034.2258   -7240.3529   -1003.7323     102002.7      46.7237      46.7237      46.7237 
  404000    131.13757    -8021.649   -7218.7482   -1115.9858     102002.7      46.7237      46.7237      46.7237 
  405000    127.63245   -8002.3385   -7220.8981   -725.23975     102002.7      46.7237      46.7237      46.7237 
  406000    127.79025   -8049.8196   -7267.4131   -1122.9461     102002.7      46.7237      46.7237      46.7237 
  407000    130.13233   -8014.4939   -7217.7478   -756.24236     102002.7      46.7237      46.7237      46.7237 
  408000    132.56603   -8040.2024   -7228.5558    -636.1758     102002.7      46.7237      46.7237      46.7237 
  409000    127.98225   -8015.1395   -7231.5574    -613.3843     102002.7      46.7237      46.7237      46.7237 
  410000       132.23   -8002.3047   -7192.7155   -857.72913     102002.7      46.7237      46.7237      46.7237 
  411000    132.17685    -8035.042   -7225.7781   -1075.4361     102002.7      46.7237      46.7237      46.7237 
  412000    128.55737   -8031.1456   -7244.0423   -1162.5933     102002.7      46.7237      46.7237      46.7237 
  413000    129.22496   -8030.3145   -7239.1238   -951.13372     102002.7      46.7237      46.7237      46.7237 
  414000    128.77444   -8024.6969   -7236.2646   -1078.0938     102002.7      46.7237      46.7237      46.7237 
  415000    130.25282    -8017.368   -7219.8843   -970.05882     102002.7      46.7237      46.7237      46.7237 
  416000    130.70158    -8012.516   -7212.2847   -913.98265     102002.7      46.7237      46.7237      46.7237 
  417000    131.12039   -8012.9366    -7210.141   -1099.4109     102002.7      46.7237      46.7237      46.7237 
  418000     128.9185   -8014.0181   -7224.7038   -984.52405     102002.7      46.7237      46.7237      46.7237 
  419000    131.41246   -8038.4419   -7233.8581   -765.21935     102002.7      46.7237      46.7237      46.7237 
  420000    131.44464   -8053.8413   -7249.0605   -462.22523     102002.7      46.7237      46.7237      46.7237 
  421000    130.19708   -8010.9859   -7213.8434   -764.58278     102002.7      46.7237      46.7237      46.7237 
  422000    130.73334   -8032.0667   -7231.6409   -788.89045     102002.7      46.7237      46.7237      46.7237 
  423000      126.297   -8022.8195   -7249.5556   -869.81609     102002.7      46.7237      46.7237      46.7237 
  424000    128.40092   -8016.1469   -7230.0015   -527.65569     102002.7      46.7237      46.7237      46.7237 
  425000     132.2463   -8001.8401   -7192.1511   -751.58493     102002.7      46.7237      46.7237      46.7237 
  426000    126.96462   -8029.5463   -7252.1948   -598.97393     102002.7      46.7237      46.7237      46.7237 
  427000    128.75392   -8000.8681   -7212.5614   -695.57655     102002.7      46.7237      46.7237      46.7237 
  428000    126.31068   -8045.7138    -7272.366   -980.99441     102002.7      46.7237      46.7237      46.7237 
  429000    126.14438   -8034.8029   -7262.4733   -686.74452     102002.7      46.7237      46.7237      46.7237 
  430000     131.3814   -8045.9123   -7241.5187   -800.68685     102002.7      46.7237      46.7237      46.7237 
  431000    130.45939   -8057.5095   -7258.7609   -688.54921     102002.7      46.7237      46.7237      46.7237 
  432000    130.88372   -8047.1402   -7245.7937   -844.04296     102002.7      46.7237      46.7237      46.7237 
  433000    130.76293   -8025.6213   -7225.0144   -818.57263     102002.7      46.7237      46.7237      46.7237 
  434000     126.2525   -8029.7775    -7256.786   -743.48655     102002.7      46.7237      46.7237      46.7237 
  435000    133.14616   -8038.4398   -7223.2412   -1037.8398     102002.7      46.7237      46.7237      46.7237 
  436000    129.15921   -8038.0878   -7247.2997   -1113.7599     102002.7      46.7237      46.7237      46.7237 
  437000    129.16372   -8010.1084   -7219.2927   -815.10831     102002.7      46.7237      46.7237      46.7237 
  438000    129.54969   -8062.6861   -7269.5073   -851.62795     102002.7      46.7237      46.7237      46.7237 
  439000    130.18594   -8019.5622   -7222.4879   -988.63502     102002.7      46.7237      46.7237      46.7237 
  440000    132.22541   -8022.5996   -7213.0385   -519.84596     102002.7      46.7237      46.7237      46.7237 
  441000    131.46449   -8047.5233    -7242.621   -768.04116     102002.7      46.7237      46.7237      46.7237 
  442000    130.30886   -8040.5466   -7242.7197   -704.12418     102002.7      46.7237      46.7237      46.7237 
  443000    131.69131   -8012.0047   -7205.7136   -609.54422     102002.7      46.7237      46.7237      46.7237 
  444000    128.87196   -8015.6539   -7226.6245   -691.84774     102002.7      46.7237      46.7237      46.7237 
  445000    130.29972   -8040.1495   -7242.3785   -731.68423     102002.7      46.7237      46.7237      46.7237 
  446000    130.60943   -8022.2982    -7222.631   -719.88354     102002.7      46.7237      46.7237      46.7237 
  447000    125.71665    -8011.834   -7242.1232   -730.80197     102002.7      46.7237      46.7237      46.7237 
  448000    128.77988   -8032.8867   -7244.4211   -563.43622     102002.7      46.7237      46.7237      46.7237 
  449000    131.10793   -8022.6995   -7219.9802   -724.35151     102002.7      46.7237      46.7237      46.7237 
  450000    129.40662    -8017.941   -7225.6381   -854.51943     102002.7      46.7237      46.7237      46.7237 
  451000    128.87668   -7997.5211   -7208.4629   -851.54854     102002.7      46.7237      46.7237      46.7237 
  452000    127.83137   -8022.8026   -7240.1443   -766.12165     102002.7      46.7237      46.7237      46.7237 
  453000    131.31045   -8036.2495   -7232.2903    -1198.811     102002.7      46.7237      46.7237      46.7237 
  454000    128.50097   -8022.3041   -7235.5461    -851.0094     102002.7      46.7237      46.7237      46.7237 
  455000    124.49007   -8016.3538   -7254.1529    -977.8273     102002.7      46.7237      46.7237      46.7237 
  456000    126.88391    -8023.425   -7246.5677   -691.28304     102002.7      46.7237      46.7237      46.7237 
  457000    128.32613   -8001.0613   -7215.3738   -924.76095     102002.7      46.7237      46.7237      46.7237 
  458000    128.59827   -8011.8174   -7224.4637   -950.96479     102002.7      46.7237      46.7237      46.7237 
  459000    128.36779    -8012.296   -7226.3534   -1037.2144     102002.7      46.7237      46.7237      46.7237 
  460000    129.16728   -8006.4303   -7215.5928   -831.02376     102002.7      46.7237      46.7237      46.7237 
  461000    128.85471   -8040.7063   -7251.7825   -948.20749     102002.7      46.7237      46.7237      46.7237 
  462000    132.32453   -8035.2912   -7225.1232   -927.10769     102002.7      46.7237      46.7237      46.7237 
  463000    131.13743   -8017.5836   -7214.6837   -730.40134     102002.7      46.7237      46.7237      46.7237 
  464000    126.67702   -8006.3809   -7230.7902   -779.14344     102002.7      46.7237      46.7237      46.7237 
  465000    131.42843    -8034.519   -7229.8374   -601.59863     102002.7      46.7237      46.7237      46.7237 
  466000    129.84446    -8024.192   -7229.2084   -586.08535     102002.7      46.7237      46.7237      46.7237 
  467000    128.11319   -8027.9901   -7243.6064    -923.0637     102002.7      46.7237      46.7237      46.7237 
  468000    128.93004   -8006.3841   -7216.9991   -896.51278     102002.7      46.7237      46.7237      46.7237 
  469000    130.41196   -8001.7055   -7203.2473   -943.39525     102002.7      46.7237      46.7237      46.7237 
  470000    134.18478     -8013.29   -7191.7324   -979.08939     102002.7      46.7237      46.7237      46.7237 
  471000    128.19864   -8020.9283   -7236.0214   -1080.8608     102002.7      46.7237      46.7237      46.7237 
  472000    130.88816   -8025.2123   -7223.8385   -893.77591     102002.7      46.7237      46.7237      46.7237 
  473000    131.08205   -8009.2792   -7206.7184    -828.0677     102002.7      46.7237      46.7237      46.7237 
  474000    128.75315   -7992.4571   -7204.1551   -701.84742     102002.7      46.7237      46.7237      46.7237 
  475000    125.75664   -8020.1303   -7250.1747   -798.93908     102002.7      46.7237      46.7237      46.7237 
  476000    129.95853   -8024.0093   -7228.3273   -445.33271     102002.7      46.7237      46.7237      46.7237 
  477000    128.68559   -8011.5341   -7223.6458   -711.42288     102002.7      46.7237      46.7237      46.7237 
  478000    129.55729   -8045.6717   -7252.4463   -819.87279     102002.7      46.7237      46.7237      46.7237 
  479000    129.79599   -7999.1082   -7204.4214   -691.74236     102002.7      46.7237      46.7237      46.7237 
  480000    133.96719   -8026.0406   -7205.8152   -648.74266     102002.7      46.7237      46.7237      46.7237 
  481000    128.48999   -7993.3986   -7206.7079   -638.83964     102002.7      46.7237      46.7237      46.7237 
  482000    129.88131   -8063.7889   -7268.5797   -538.43532     102002.7      46.7237      46.7237      46.7237 
  483000    127.55408   -7993.7995   -7212.8389   -810.30422     102002.7      46.7237      46.7237      46.7237 
  484000    129.73417   -7997.5421   -7203.2338    -899.7768     102002.7      46.7237      46.7237      46.7237 
  485000    129.14626   -8009.3193   -7218.6105   -780.37826     102002.7      46.7237      46.7237      46.7237 
  486000    132.08963   -8030.5463   -7221.8165   -713.64448     102002.7      46.7237      46.7237      46.7237 
  487000    129.40236    -7998.812   -7206.5353   -642.90026     102002.7      46.7237      46.7237      46.7237 
  488000    130.73714   -8018.3634   -7217.9143   -847.34482     102002.7      46.7237      46.7237      46.7237 
  489000    127.67016   -8017.4358   -7235.7646   -812.02566     102002.7      46.7237      46.7237      46.7237 
  490000     131.3328   -8030.6348   -7226.5388   -834.96861     102002.7      46.7237      46.7237      46.7237 
  491000    130.21249   -8018.0449    -7220.808   -679.93475     102002.7      46.7237      46.7237      46.7237 
  492000    129.16639   -8034.3935   -7243.5614   -773.42457     102002.7      46.7237      46.7237      46.7237 
  493000    128.68733   -8007.2292   -7219.3302   -709.77391     102002.7      46.7237      46.7237      46.7237 
  494000    128.78311   -8035.1734    -7246.688   -936.05988     102002.7      46.7237      46.7237      46.7237 
  495000    126.85365   -8003.9332    -7227.261   -575.44638     102002.7      46.7237      46.7237      46.7237 
  496000    130.82854   -8026.2802   -7225.2715   -941.72326     102002.7      46.7237      46.7237      46.7237 
  497000     130.7986   -8035.4862   -7234.6608   -659.71363     102002.7      46.7237      46.7237      46.7237 
  498000    130.20885   -8000.0791   -7202.8645   -794.69983     102002.7      46.7237      46.7237      46.7237 
  499000    126.71057   -8044.8963   -7269.1002   -918.58488     102002.7      46.7237      46.7237      46.7237 
  500000    129.71844   -8048.4524   -7254.2404   -685.68276     102002.7      46.7237      46.7237      46.7237 
  500501    132.18484   -8037.4032   -7228.0904   -870.12622     102002.7      46.7237      46.7237      46.7237 
Loop time of 1459.44 on 16 procs for 500000 steps with 2055 atoms

Performance: 29.600 ns/day, 0.811 hours/ns, 342.597 timesteps/s
99.9% CPU use with 16 MPI tasks x no OpenMP threads

MPI task timing breakdown:
Section |  min time  |  avg time  |  max time  |%varavg| %total
---------------------------------------------------------------
Pair    | 513        | 776.72     | 1047       | 652.3 | 53.22
Bond    | 157.82     | 174.91     | 193.59     | 106.9 | 11.98
Neigh   | 8.228      | 8.2591     | 8.2814     |   0.5 |  0.57
Comm    | 197.93     | 486.12     | 766.54     | 888.1 | 33.31
Output  | 0.020424   | 0.020807   | 0.024002   |   0.6 |  0.00
Modify  | 6.9891     | 8.0361     | 8.9365     |  26.4 |  0.55
Other   |            | 5.377      |            |       |  0.37

Nlocal:    128.438 ave 139 max 114 min
Histogram: 2 2 1 0 1 0 2 3 1 4
Nghost:    2601.19 ave 2617 max 2584 min
Histogram: 1 0 3 4 2 0 0 1 3 2
Neighs:    11471.2 ave 15658 max 6475 min
Histogram: 1 2 0 3 1 2 1 2 1 3

Total # of neighbors = 183539
Ave neighs/atom = 89.3134
Ave special neighs/atom = 5.60584
Neighbor list builds = 4800
Dangerous builds = 0
Neighbor list info ...
  update every 1 steps, delay 10 steps, check yes
  max neighbors/atom: 2000, page size: 100000
  master list distance cutoff = 16
  ghost atom cutoff = 16
  binsize = 8, bins = 6 6 6
  3 neighbor lists, perpetual/occasional/extra = 3 0 0
  (1) pair buck6d/coul/gauss/dsf, perpetual, skip from (3)
      attributes: half, newton on
      pair build: skip
      stencil: none
      bin: none
  (2) pair lj/cut, perpetual, skip from (3)
      attributes: half, newton on
      pair build: skip
      stencil: none
      bin: none
  (3) neighbor class addition, perpetual
      attributes: half, newton on
      pair build: half/bin/newton
      stencil: half/bin/3d/newton
      bin: standard
Setting up Verlet run ...
  Unit style    : real
  Current step  : 500501
  Time step     : 1
WARNING: Inconsistent image flags (../domain.cpp:786)
Per MPI rank memory allocation (min/avg/max) = 23.25 | 23.35 | 23.36 Mbytes
Step Time TotEng KinEng PotEng E_mol E_pair Temp Pxx Pyy Pzz Pxy Pxz Pyz Cella Cellb Cellc CellAlpha CellBeta CellGamma Volume Press 
  500501       500000   -7228.0904    809.31277   -8037.4032    4380.2382   -12417.641    132.18484   -1136.3721   -775.05487   -698.95173    120.07296    136.98595    131.50035      46.7237      46.7237      46.7237           90           90           90     102002.7   -870.12622 
  501000       500499   -7236.1322    803.98447   -8040.1167    4400.7145   -12440.831    131.31457   -1323.6076   -914.55097   -718.29727    175.73748    2.9807222    101.99339      46.7237      46.7237      46.7237           90           90           90     102002.7   -985.48529 
  502000       501499   -7189.9105    824.89907   -8014.8095    4412.4131   -12427.223    134.73055   -1109.0334   -944.13399   -757.18395    32.888106   -84.912571    305.51806      46.7237      46.7237      46.7237           90           90           90     102002.7   -936.78377 
  503000       502499   -7220.2999    808.09406    -8028.394    4378.8603   -12407.254    131.98579   -840.78697   -800.81156   -1124.8735     29.56191   -4.4614919    186.36885      46.7237      46.7237      46.7237           90           90           90     102002.7   -922.15735 
  504000       503499   -7251.2722    804.38021   -8055.6524    4370.9208   -12426.573    131.37921   -1223.1369   -1118.9677   -838.58269    206.07432    -21.87162   -137.54983      46.7237      46.7237      46.7237           90           90           90     102002.7   -1060.2291 
  505000       504499   -7222.1751    795.32151   -8017.4966     4419.695   -12437.192    129.89965   -688.95613   -617.53599   -1179.4459   -106.34761      195.475    143.95916      46.7237      46.7237      46.7237           90           90           90     102002.7     -828.646 
  506000       505499   -7198.8868    811.93867   -8010.8254    4393.1386   -12403.964    132.61373   -1094.4547    -1080.119   -713.57967    112.37822    10.828248     232.4206      46.7237      46.7237      46.7237           90           90           90     102002.7   -962.71779 
  507000       506499    -7183.181    835.45394   -8018.6349    4398.0133   -12416.648    136.45447      -1407.8   -939.38405   -952.60417   -65.580863    134.97732   -181.18661      46.7237      46.7237      46.7237           90           90           90     102002.7   -1099.9294 
  508000       507499   -7248.4466    781.98143   -8030.4281    4406.0224   -12436.451    127.72082   -992.15697   -808.80165   -1197.4493    216.07428    13.422684    -68.31641      46.7237      46.7237      46.7237           90           90           90     102002.7   -999.46931 
  509000       508499   -7196.7186    800.61352   -7997.3321    4398.6529   -12395.985    130.76399   -691.62196   -1105.4328   -1099.9122    210.62538    16.958615    87.612026      46.7237      46.7237      46.7237           90           90           90     102002.7   -965.65565 
  510000       509499   -7238.4975    797.12855    -8035.626    4370.1294   -12405.755    130.19479   -820.68609   -616.37446    -953.2106    67.529639    103.21861    64.759809      46.7237      46.7237      46.7237           90           90           90     102002.7   -796.75705 
  511000       510499   -7243.5508    814.59338   -8058.1442    4352.8284   -12410.973    133.04732   -827.27477   -557.34587   -692.90752    213.25095    128.62616    111.11172      46.7237      46.7237      46.7237           90           90           90     102002.7   -692.50938 
  512000       511499   -7258.9821    765.67886    -8024.661    4369.8048   -12394.466    125.05813   -977.90034   -567.97873   -1129.2223    -78.77317    9.3437847   -134.68583      46.7237      46.7237      46.7237           90           90           90     102002.7   -891.70047 
  513000       512499   -7199.5043    805.73657   -8005.2409    4405.2991    -12410.54    131.60074   -116.14656   -803.22754   -935.12412    20.324471   -262.91996   -6.7944728      46.7237      46.7237      46.7237           90           90           90     102002.7   -618.16608 
  514000       513499   -7247.7667    795.25863   -8043.0253    4373.6171   -12416.642    129.88938   -503.24242   -775.40359   -440.81145   -31.920679    11.923435    49.382695      46.7237      46.7237      46.7237           90           90           90     102002.7   -573.15249 
  515000       514499   -7243.8279    786.84639   -8030.6743    4386.6032   -12417.277    128.51541   -685.58212   -834.47312   -1038.1885     69.68955   -31.105838    -98.12494      46.7237      46.7237      46.7237           90           90           90     102002.7    -852.7479 
  516000       515499   -7230.8035    794.84574   -8025.6492    4395.9141   -12421.563    129.82194   -500.25764   -951.62438   -917.80222   -118.78752   -17.729312   -69.756635      46.7237      46.7237      46.7237           90           90           90     102002.7   -789.89475 
  517000       516499   -7248.6899    775.52104   -8024.2109    4385.7027   -12409.914    126.66565   -645.49084   -769.48825   -537.48685    136.19804    -191.4932   -116.59659      46.7237      46.7237      46.7237           90           90           90     102002.7   -650.82198 
  518000       517499   -7223.8757      804.469   -8028.3447     4383.864   -12412.209    131.39371   -614.17316   -798.48975   -493.18105   -240.46525    41.133243   -77.154698      46.7237      46.7237      46.7237           90           90           90     102002.7   -635.28132 
  519000       518499   -7203.9795    812.41817   -8016.3977    4397.1537   -12413.551    132.69204   -404.36839   -808.43548   -242.19921   -96.918347   -56.616463    -160.6955      46.7237      46.7237      46.7237           90           90           90     102002.7   -485.00103 
  520000       519499   -7217.1969     790.5156   -8007.7125     4398.397    -12406.11     129.1147   -1117.6932   -222.11315   -752.05076   -46.387441   -113.57205   -122.02251      46.7237      46.7237      46.7237           90           90           90     102002.7   -697.28569 
  521000       520499   -7265.7626    783.72619   -8049.4888    4364.9281   -12414.417    128.00579   -685.13477   -120.78621   -697.02339     22.87876    62.009754   -34.040161      46.7237      46.7237      46.7237           90           90           90     102002.7   -500.98146 
  522000       521499   -7215.9365    813.28676   -8029.2233    4379.8146   -12409.038    132.83391    -393.3424    -882.7113   -208.40211    3.2531045   -210.51561   -101.03861      46.7237      46.7237      46.7237           90           90           90     102002.7   -494.81861 
  523000       522499   -7242.4532    795.60417   -8038.0574    4379.0432   -12417.101    129.94582   -762.80294   -1067.2424   -286.20535    195.07112   -64.141312   -17.372416      46.7237      46.7237      46.7237           90           90           90     102002.7   -705.41688 
  524000       523499   -7259.7909     794.8318   -8054.6227      4373.08   -12427.703    129.81967   -725.67011   -224.99918   -653.43796   -134.91785    218.94311   -17.067336      46.7237      46.7237      46.7237           90           90           90     102002.7   -534.70241 
  525000       524499   -7221.8422    813.02868   -8034.8709    4383.7672   -12418.638    132.79176   -885.99764   -832.25361   -1034.5703    62.505972   -47.896881    179.90374      46.7237      46.7237      46.7237           90           90           90     102002.7   -917.60717 
  526000       525499   -7244.6292    785.80647   -8030.4357    4396.2538   -12426.689    128.34556   -518.34443   -1002.0096   -1043.2114   -192.77631    316.34392   -148.03406      46.7237      46.7237      46.7237           90           90           90     102002.7   -854.52182 
  527000       526499   -7240.3201    786.50273   -8026.8228    4373.9598   -12400.783    128.45928   -998.31743   -438.16537    -431.6248   -116.72975    242.18677    -55.62011      46.7237      46.7237      46.7237           90           90           90     102002.7   -622.70253 
  528000       527499    -7186.647    821.74527   -8008.3923    4385.3944   -12393.787    134.21544   -893.45678   -379.07554   -1139.2417     257.4698     67.16526    180.16828      46.7237      46.7237      46.7237           90           90           90     102002.7   -803.92467 
  529000       528499   -7246.3772    807.29628   -8053.6735    4352.2102   -12405.884    131.85549   -620.09158   -1030.9695   -1153.3458   -280.93665   -136.94573   -235.16721      46.7237      46.7237      46.7237           90           90           90     102002.7   -934.80229 
  530000       529499   -7245.6372    785.98659   -8031.6238    4397.8746   -12429.498    128.37498   -191.48538   -570.12286   -1010.0068   -55.742004   -15.456673   -196.03281      46.7237      46.7237      46.7237           90           90           90     102002.7   -590.53836 
  531000       530499   -7240.3435     793.7015    -8034.045    4380.2825   -12414.328    129.63506   -924.99615   -715.73953   -473.27668    30.432247    117.81983    24.994418      46.7237      46.7237      46.7237           90           90           90     102002.7   -704.67079 
  532000       531499   -7216.3588    798.79827   -8015.1571    4393.3974   -12408.554    130.46751   -655.71185   -470.96458   -1105.1336     20.63635    130.79462    50.824812      46.7237      46.7237      46.7237           90           90           90     102002.7   -743.93669 
  533000       532499   -7234.2292    803.59286   -8037.8221    4381.5004   -12419.322    131.25061   -303.98326   -425.87649   -1105.2844   -307.69274   -282.20217    109.00375      46.7237      46.7237      46.7237           90           90           90     102002.7   -611.71472 
  534000       533499   -7235.6038     806.2505   -8041.8544    4373.3716   -12415.226    131.68468   -818.12065   -503.37759   -739.51832    65.954051    89.369163  -0.37049833      46.7237      46.7237      46.7237           90           90           90     102002.7   -687.00552 
  535000       534499   -7256.9895    775.53926   -8032.5287    4386.1433   -12418.672    126.66862   -1133.8397   -483.57192   -688.82737    59.309039   -13.532843   -216.20771      46.7237      46.7237      46.7237           90           90           90     102002.7   -768.74631 
  536000       535499   -7236.1631    792.32751   -8028.4906    4379.6855   -12408.176    129.41064    -1219.763   -737.52316   -849.82127   -168.39317   0.64660513   -28.865033      46.7237      46.7237      46.7237           90           90           90     102002.7   -935.70249 
  537000       536499    -7214.443    790.76877   -8005.2117    4402.0409   -12407.253    129.15605   -1036.2188   -550.58843   -1056.7277    110.88457     187.5044    62.555762      46.7237      46.7237      46.7237           90           90           90     102002.7   -881.17832 
  538000       537499   -7209.9301    815.06938   -8024.9995    4415.0888   -12440.088    133.12507   -258.27479   -791.85308   -755.03916    179.30002     144.1843   -87.621369      46.7237      46.7237      46.7237           90           90           90     102002.7   -601.72234 
  539000       538499   -7236.0176    786.39766   -8022.4153    4395.8757   -12418.291    128.44212   -1057.9079   -808.74841   -1138.3651   -167.75724    148.76186    25.408438      46.7237      46.7237      46.7237           90           90           90     102002.7   -1001.6738 
  540000       539499   -7265.3054    780.08031   -8045.3857    4404.7111   -12450.097    127.41031   -512.36667   -685.69384    -356.8843    50.245071   -194.96373     12.33925      46.7237      46.7237      46.7237           90           90           90     102002.7   -518.31494 
  541000       540499   -7255.1511    770.89487   -8026.0459     4399.908   -12425.954    125.91006   -1005.4364   -389.48904   -961.71589    194.55037   -172.82565    34.471066      46.7237      46.7237      46.7237           90           90           90     102002.7   -785.54712 
  542000       541499   -7224.9523    776.75537   -8001.7076    4434.2281   -12435.936    126.86725   -791.12945   -560.81034   -929.58551     42.79307    60.424851    -5.921559      46.7237      46.7237      46.7237           90           90           90     102002.7   -760.50843 
  543000       542499    -7251.881    786.06952   -8037.9505    4394.3266   -12432.277    128.38853   -1024.0558   -642.95784   -359.48461    -220.5823   -137.41134    288.59824      46.7237      46.7237      46.7237           90           90           90     102002.7   -675.49943 
  544000       543499   -7277.3891    767.73177   -8045.1209    4369.0193    -12414.14    125.39343   -916.33635   -664.91273   -483.35794    -105.8015   -214.57157    83.088292      46.7237      46.7237      46.7237           90           90           90     102002.7   -688.20234 
  545000       544499   -7241.8679     803.2181    -8045.086    4369.2353   -12414.321     131.1894   -347.21288   -576.96833   -760.60766   -146.44092   -256.85315   -205.93431      46.7237      46.7237      46.7237           90           90           90     102002.7   -561.59629 
  546000       545499   -7204.6066    818.37262   -8022.9792    4401.7408    -12424.72    133.66458   -1090.8897   -490.97568   -851.39581   -173.12916    88.382735    2.3115517      46.7237      46.7237      46.7237           90           90           90     102002.7   -811.08708 
  547000       546499   -7235.3437    788.04716   -8023.3908    4392.8111   -12416.202    128.71153   -895.44838   -716.07194    -1070.821    146.49356   -36.352159    47.891789      46.7237      46.7237      46.7237           90           90           90     102002.7   -894.11378 
  548000       547499   -7209.4022    788.02863   -7997.4308    4425.5472   -12422.978    128.70851    -731.7182   -558.29421   -330.63711   -149.48057   -37.827058   -214.35812      46.7237      46.7237      46.7237           90           90           90     102002.7   -540.21651 
  549000       548499    -7222.684    791.35515   -8014.0392    4386.7845   -12400.824    129.25183   -742.73719   -408.93737   -764.49509   -17.665977   -175.95174    36.483806      46.7237      46.7237      46.7237           90           90           90     102002.7   -638.72321 
  550000       549499   -7260.1687    762.54489   -8022.7136    4382.0647   -12404.778    124.54626   -788.31461   -465.15845    -1113.974   -380.13605   -78.562217   -13.711802      46.7237      46.7237      46.7237           90           90           90     102002.7   -789.14902 
  551000       550499   -7198.1664    818.50173   -8016.6681    4394.1205   -12410.789    133.68567   -946.31638   -747.85775   -529.88753    191.85169    44.978286    51.676674      46.7237      46.7237      46.7237           90           90           90     102002.7   -741.35389 
  552000       551499   -7236.3602    780.18307   -8016.5433    4400.1142   -12416.658     127.4271   -1131.5532   -825.27432   -924.44776    158.03754    -141.5718    267.51059      46.7237      46.7237      46.7237           90           90           90     102002.7    -960.4251 
  553000       552499   -7197.3149    817.73725   -8015.0521    4419.0192   -12434.071    133.56081   -663.71837   -584.56139   -666.70323    35.839667   -151.59257    57.753482      46.7237      46.7237      46.7237           90           90           90     102002.7   -638.32766 
  554000       553499   -7216.3172    801.35853   -8017.6758    4398.8555   -12416.531    130.88568   -1293.0771   -1044.1039   -533.06603    71.416471    40.462148    14.618574      46.7237      46.7237      46.7237           90           90           90     102002.7   -956.74903 
  555000       554499   -7226.0109    772.81097   -7998.8218    4389.8373   -12388.659    126.22301    -887.3556   -1017.9008   -708.27343   -127.32736   -38.653662   -41.743415      46.7237      46.7237      46.7237           90           90           90     102002.7   -871.17659 
[...]
  936000       935499   -7206.7082    809.26952   -8015.9778    4383.9327    -12399.91    132.17778   -660.03526   -314.99449   -803.78504   -314.06514    35.260413   -75.347714      46.7237      46.7237      46.7237           90           90           90     102002.7   -592.93826 
  937000       936499   -7214.7249    820.37965   -8035.1045    4406.8459    -12441.95    133.99239   -980.76718   -305.64202   -606.72683    198.13028   -249.07747     9.961725      46.7237      46.7237      46.7237           90           90           90     102002.7   -631.04534 
  938000       937499   -7225.2989    791.85891   -8017.1578    4401.9671   -12419.125    129.33411   -494.05372   -759.53508   -880.75823   -100.18756    20.260751    236.77785      46.7237      46.7237      46.7237           90           90           90     102002.7   -711.44901 
  939000       938499   -7258.0293     770.7225   -8028.7518    4395.2264   -12423.978     125.8819   -593.68665   -609.16458    -845.5064    337.16237   -266.60693     66.60107      46.7237      46.7237      46.7237           90           90           90     102002.7   -682.78588 
  940000       939499   -7197.8915    838.43701   -8036.3285     4389.843   -12426.172     136.9417   -714.86313   -413.46828   -524.03524    267.71433   -185.08119   -71.979144      46.7237      46.7237      46.7237           90           90           90     102002.7   -550.78889 
  941000       940499   -7230.0921    795.93855   -8026.0306    4407.7351   -12433.766    130.00043   -431.12318   -593.96759   -949.79058   -14.358072    57.543801   -139.52837      46.7237      46.7237      46.7237           90           90           90     102002.7   -658.29379 
  942000       941499   -7211.3883    804.93322   -8016.3215    4419.5503   -12435.872    131.46953   -783.57823   -987.09626   -626.56728    72.484635     4.518573    185.58262      46.7237      46.7237      46.7237           90           90           90     102002.7   -799.08059 
  943000       942499   -7245.4601    784.10381   -8029.5639     4407.038   -12436.602    128.06747   -617.99341    -1119.669   -365.71519    139.18352    257.98309    17.979255      46.7237      46.7237      46.7237           90           90           90     102002.7   -701.12588 
  944000       943499   -7220.8901    796.72283   -8017.6129    4394.0883   -12411.701    130.12853   -506.46922   -458.28835   -740.85714   -119.76884    100.13798    -214.5964      46.7237      46.7237      46.7237           90           90           90     102002.7   -568.53823 
  945000       944499   -7239.2778     792.9971   -8032.2749    4389.2449    -12421.52    129.52001   -708.30094   -727.81714   -787.35583    120.76894   -167.58263     -26.1115      46.7237      46.7237      46.7237           90           90           90     102002.7   -741.15797 
  946000       945499    -7259.788    784.04879   -8043.8368    4382.3533    -12426.19    128.05848   -939.97071   -742.47476    -441.0248     56.23256    149.21323   -119.04716      46.7237      46.7237      46.7237           90           90           90     102002.7   -707.82342 
  947000       946499   -7207.2797     803.6589   -8010.9386    4421.0196   -12431.958     131.2614   -609.51842   -700.56601   -239.29337    51.390819   -125.14312    80.508538      46.7237      46.7237      46.7237           90           90           90     102002.7   -516.45927 
  948000       947499    -7197.431    820.17169   -8017.6027    4399.5545   -12417.157    133.95843   -769.71834   -594.30991   -655.73704   -36.024606    -2.513217   -96.285684      46.7237      46.7237      46.7237           90           90           90     102002.7    -673.2551 
  949000       948499   -7217.3341    800.78221   -8018.1163    4405.2288   -12423.345    130.79155    -270.8957   -623.90278   -1237.0692    284.04134   -73.369792    75.856005      46.7237      46.7237      46.7237           90           90           90     102002.7   -710.62257 
  950000       949499   -7193.2481    812.11941   -8005.3675    4391.8533   -12397.221    132.64325   -1049.7209   -1009.8738   -574.44266   -85.634279   -58.303049   -172.28117      46.7237      46.7237      46.7237           90           90           90     102002.7   -878.01246 
  951000       950499   -7239.7291    787.66099   -8027.3901    4385.9946   -12413.385    128.64846    -253.0691   -563.83535   -460.95938    292.17896    295.40378   -76.374706      46.7237      46.7237      46.7237           90           90           90     102002.7   -425.95461 
  952000       951499   -7197.5556    817.93299   -8015.4886    4403.9278   -12419.416    133.59278   -985.38634   -827.37062   -1106.0442    88.953977   -45.425421   -219.81832      46.7237      46.7237      46.7237           90           90           90     102002.7    -972.9337 
  953000       952499   -7222.7191    789.46674   -8012.1859    4390.1805   -12402.366    128.94339   -1024.6454   -672.69166   -1080.1177   -65.034215   -57.116683    225.13527      46.7237      46.7237      46.7237           90           90           90     102002.7   -925.81826 
  954000       953499   -7235.9314    795.71835   -8031.6498    4374.2089   -12405.859    129.96447   -353.16658   -772.48509   -423.23829    99.409821    202.91963    181.50441      46.7237      46.7237      46.7237           90           90           90     102002.7   -516.29665 
  955000       954499    -7203.706    816.03336   -8019.7393    4379.4843   -12399.224    133.28251   -987.00902   -652.07961   -646.25245    141.85718   -104.06983    44.317492      46.7237      46.7237      46.7237           90           90           90     102002.7   -761.78036 
  956000       955499   -7249.3671    793.71336   -8043.0804     4363.488   -12406.568    129.63699   -895.73353   -669.90668   -753.32213    252.93348   -241.59634   -114.35764      46.7237      46.7237      46.7237           90           90           90     102002.7   -772.98745 
  957000       956499   -7260.6195    784.15895   -8044.7784    4366.2544   -12411.033    128.07647   -893.52446   -675.29022   -942.43717    108.37641   -98.366191    39.791855      46.7237      46.7237      46.7237           90           90           90     102002.7   -837.08395 
  958000       957499   -7230.9687    804.99269   -8035.9614    4410.1604   -12446.122    131.47924   -883.81664   -701.42446    -727.6974   -228.43473   -29.962852    236.59462      46.7237      46.7237      46.7237           90           90           90     102002.7    -770.9795 
  959000       958499   -7241.1201    777.50191    -8018.622    4371.1519   -12389.774    126.98918    -320.0532   -470.89128   -794.79469   -326.16655   -60.968578   -6.0988903      46.7237      46.7237      46.7237           90           90           90     102002.7   -528.57972 
  960000       959499   -7258.6497     794.5252   -8053.1749    4361.5879   -12414.763    129.76959   -932.31405   -446.85456   -1027.0837   -93.653879   -1.1335121   -121.49317      46.7237      46.7237      46.7237           90           90           90     102002.7   -802.08409 
  961000       960499   -7231.8866    779.88441    -8011.771    4419.5559   -12431.327    127.37831   -821.60187   -542.11865   -702.90914    168.73838   -7.3914594    224.45761      46.7237      46.7237      46.7237           90           90           90     102002.7   -688.87655 
  962000       961499   -7219.6167    807.36821   -8026.9849    4395.6223   -12422.607    131.86724   -793.86303   -554.30468   -137.65587   -209.93034   -65.174828   -118.83017      46.7237      46.7237      46.7237           90           90           90     102002.7   -495.27453 
  963000       962499   -7222.5225    785.45648    -8007.979    4398.5416   -12406.521     128.2884   -905.33606   -1202.3949   -477.79918   -229.39594    289.69748   -58.283228      46.7237      46.7237      46.7237           90           90           90     102002.7    -861.8434 
  964000       963499   -7221.7038    801.38414    -8023.088     4407.237   -12430.325    130.88986   -748.58623   -1364.3809   -560.65808    72.656066   -91.410869    123.15355      46.7237      46.7237      46.7237           90           90           90     102002.7   -891.20839 
  965000       964499   -7269.4837    779.18499   -8048.6687     4381.668   -12430.337    127.26408   -1168.4656   -689.87046   -474.34857    12.080241   -122.76339   -118.69214      46.7237      46.7237      46.7237           90           90           90     102002.7   -777.56154 
  966000       965499   -7224.1491    805.24957   -8029.3987    4405.5234   -12434.922     131.5212   -621.86727   -1135.7627   -861.86915    119.68085   -159.56995     73.46807      46.7237      46.7237      46.7237           90           90           90     102002.7   -873.16636 
  967000       966499   -7232.6024    796.51091   -8029.1133    4377.4947   -12406.608    130.09392   -755.88444   -445.98044   -563.53948   -54.450905    67.869428    83.056389      46.7237      46.7237      46.7237           90           90           90     102002.7   -588.46812 
  968000       967499   -7239.2504    805.56508   -8044.8154     4367.196   -12412.011    131.57273   -667.60322   -707.97533   -933.63057    -192.2992    122.63914     240.6318      46.7237      46.7237      46.7237           90           90           90     102002.7   -769.73637 
  969000       968499   -7245.6899    802.38312    -8048.073    4336.8042   -12384.877    131.05302   -1139.8807   -247.96902   -641.01428   -124.85806   -138.16896    163.06288      46.7237      46.7237      46.7237           90           90           90     102002.7   -676.28802 
  970000       969499   -7231.3249    786.12621   -8017.4511    4371.8756   -12389.327    128.39779   -356.11641   -946.09459   -655.42622    132.53839    69.280323    88.511664      46.7237      46.7237      46.7237           90           90           90     102002.7   -652.54574 
  971000       970499   -7205.1754    797.32661   -8002.5021    4405.1506   -12407.653    130.22714   -670.00829   -1032.2738   -517.95915   -46.437998     57.42084   -90.068482      46.7237      46.7237      46.7237           90           90           90     102002.7   -740.08041 
  972000       971499   -7251.5648    787.95268   -8039.5174    4381.7261   -12421.244     128.6961   -967.56385   -728.95518   -635.05501    303.42255   -38.609729   -121.61937      46.7237      46.7237      46.7237           90           90           90     102002.7   -777.19135 
  973000       972499   -7209.1494    803.95811   -8013.1075    4391.8655   -12404.973    131.31027    -275.6416   -1198.7029   -1079.1239   -124.59854    49.593632   -230.17426      46.7237      46.7237      46.7237           90           90           90     102002.7   -851.15614 
  974000       973499   -7226.8444    811.11136   -8037.9558    4385.8646    -12423.82     132.4786   -994.79171   -482.28703   -1468.1594   -160.38334   -70.828435    99.084952      46.7237      46.7237      46.7237           90           90           90     102002.7   -981.74605 
  975000       974499   -7277.3172    763.25272   -8040.5699    4365.1855   -12405.755    124.66187   -1282.8987   -584.39471   -1072.1951    336.12733    97.727942    186.47545      46.7237      46.7237      46.7237           90           90           90     102002.7   -979.82951 
  976000       975499   -7244.4843    775.61713   -8020.1014    4395.0518   -12415.153    126.68134   -382.94966   -735.20242   -1001.3468    90.974335   -26.550736    113.51321      46.7237      46.7237      46.7237           90           90           90     102002.7   -706.49963 
  977000       976499   -7206.6554    800.27209   -8006.9275    4395.3274   -12402.255    130.70823   -380.49475   -770.04448   -609.79017   -189.63253    325.31859    133.37569      46.7237      46.7237      46.7237           90           90           90     102002.7   -586.77647 
  978000       977499   -7242.2713    808.54887   -8050.8202     4358.401   -12409.221    132.06007    -1220.569   -984.02514    -1218.279   -200.84035     274.4867   -61.278179      46.7237      46.7237      46.7237           90           90           90     102002.7   -1140.9577 
  979000       978499   -7226.5523    788.27146   -8014.8237    4402.1285   -12416.952    128.74817   -818.31903   -1085.1536   -1547.0131   -153.54426   -198.88362     -31.2052      46.7237      46.7237      46.7237           90           90           90     102002.7   -1150.1619 
  980000       979499   -7250.8778    772.37839   -8023.2562    4409.2616   -12432.518    126.15236   -652.09716   -1262.4129   -958.16651   -26.142745     293.1153   -107.98119      46.7237      46.7237      46.7237           90           90           90     102002.7   -957.55886 
  981000       980499   -7248.0605    773.62003   -8021.6805    4374.1992    -12395.88    126.35516   -423.85946   -586.48598   -862.39065    76.518472    232.91511    308.35273      46.7237      46.7237      46.7237           90           90           90     102002.7   -624.24536 
  982000       981499   -7214.6887    791.11674   -8005.8055    4396.1708   -12401.976    129.21289   -715.76903   -809.14098   -1018.2065    88.685543   -77.518707    -4.627252      46.7237      46.7237      46.7237           90           90           90     102002.7   -847.70551 
  983000       982499   -7197.4852    809.45031   -8006.9355    4398.8993   -12405.835    132.20731   -559.01697   -767.94873   -566.69459    362.65058    187.70136   -123.01374      46.7237      46.7237      46.7237           90           90           90     102002.7    -631.2201 
  984000       983499   -7236.0706    768.13474   -8004.2053    4377.3446    -12381.55    125.45924   -910.43956   -591.47877   -878.22722   -103.32592    191.86346  -0.64109404      46.7237      46.7237      46.7237           90           90           90     102002.7   -793.38185 
  985000       984499   -7192.4192    785.53223   -7977.9514    4431.5695   -12409.521    128.30077   -352.24294   -1244.5847   -1333.2868   -181.28029    105.11907   -172.97293      46.7237      46.7237      46.7237           90           90           90     102002.7   -976.70483 
  986000       985499   -7228.9987    801.33071   -8030.3294    4389.7604    -12420.09    130.88113   -1092.4163   -899.96825   -800.78119   -202.44593   -107.11551   -123.21676      46.7237      46.7237      46.7237           90           90           90     102002.7   -931.05524 
  987000       986499   -7196.9326    825.64843   -8022.5811    4383.1358   -12405.717    134.85294   -412.56625   -859.38153   -824.43993   -80.357252    86.846111   -6.3801515      46.7237      46.7237      46.7237           90           90           90     102002.7    -698.7959 
  988000       987499   -7234.2126    787.46319   -8021.6758    4395.1139    -12416.79    128.61615    -491.2311   -946.47013   -218.98687    -29.90916   -235.71029   -69.797037      46.7237      46.7237      46.7237           90           90           90     102002.7   -552.22937 
  989000       988499   -7242.2921    777.41303   -8019.7051    4375.5567   -12395.262    126.97466   -388.67263   -295.02465   -943.04027   -128.41164     -216.354   -144.36473      46.7237      46.7237      46.7237           90           90           90     102002.7   -542.24585 
  990000       989499   -7212.5357    796.94038   -8009.4761    4395.9884   -12405.464    130.16406   -774.62911   -437.59186   -1263.2789   -35.007451   -96.289059   -191.22125      46.7237      46.7237      46.7237           90           90           90     102002.7   -825.16663 
  991000       990499   -7195.2034     794.3554   -7989.5588    4400.9624   -12390.521    129.74186   -712.59535   -529.54989   -848.48376    107.98281    275.84951   -131.36542      46.7237      46.7237      46.7237           90           90           90     102002.7   -696.87633 
  992000       991499    -7211.406     786.1686   -7997.5746    4412.2705   -12409.845    128.40471    -1303.995   -1067.0834   -829.05183     395.9011    89.091657   -172.41932      46.7237      46.7237      46.7237           90           90           90     102002.7   -1066.7101 
  993000       992499   -7231.8897    771.80794   -8003.6977    4411.5919    -12415.29    126.05919   -918.34399   -990.28474   -1183.8311   -103.87616   -166.02914   -1.4636808      46.7237      46.7237      46.7237           90           90           90     102002.7   -1030.8199 
  994000       993499   -7229.1114     803.7254   -8032.8368    4374.0306   -12406.867    131.27226   -629.59068   -1262.1695   -1100.4623   -215.27489    83.518158     53.00863      46.7237      46.7237      46.7237           90           90           90     102002.7    -997.4075 
  995000       994499   -7211.6645    802.52822   -8014.1927    4412.0508   -12426.244    131.07672   -941.87242   -1093.5739   -1063.5274   -4.4553976   -23.078724   -92.396897      46.7237      46.7237      46.7237           90           90           90     102002.7   -1032.9912 
  996000       995499   -7232.1943    797.15531   -8029.3496    4386.7861   -12416.136    130.19917   -337.42484   -1187.9121   -810.65652   -74.563059   -185.64769   -149.39596      46.7237      46.7237      46.7237           90           90           90     102002.7   -778.66448 
  997000       996499   -7235.9087    784.69411   -8020.6028    4396.8494   -12417.452    128.16388   -683.27763   -972.30778   -871.65404   -269.03053    254.83613   -121.68462      46.7237      46.7237      46.7237           90           90           90     102002.7   -842.41315 
  998000       997499   -7188.1786    842.53123   -8030.7099     4378.726   -12409.436     137.6104   -1031.3988   -798.07627   -765.90051   -132.32095   -141.60464   -71.348873      46.7237      46.7237      46.7237           90           90           90     102002.7   -865.12519 
  999000       998499   -7213.8944    814.59771   -8028.4921    4385.0582    -12413.55    133.04803   -972.37875   -1143.6626     -397.762    217.33488   -245.27372   -130.94937      46.7237      46.7237      46.7237           90           90           90     102002.7   -837.93446 
 1000000       999499   -7217.8186     789.4042   -8007.2228    4408.7901   -12416.013    128.93318   -696.40898   -746.43763   -899.29521   -209.77631   -43.746002    100.57044      46.7237      46.7237      46.7237           90           90           90     102002.7   -780.71394 
 1000501      1000000   -7209.1355    801.24768   -8010.3832    4409.4332   -12419.816    130.86757     -243.823   -512.13832   -625.20048    70.913146    77.914146    39.151787      46.7237      46.7237      46.7237           90           90           90     102002.7   -460.38727 
Loop time of 1567.63 on 16 procs for 500000 steps with 2055 atoms

Performance: 27.557 ns/day, 0.871 hours/ns, 318.952 timesteps/s
99.9% CPU use with 16 MPI tasks x no OpenMP threads

MPI task timing breakdown:
Section |  min time  |  avg time  |  max time  |%varavg| %total
---------------------------------------------------------------
Pair    | 749.12     | 911.37     | 1076.2     | 253.9 | 58.14
Bond    | 143.64     | 183.95     | 224.12     | 215.7 | 11.73
Neigh   | 8.179      | 8.2034     | 8.2463     |   0.8 |  0.52
Comm    | 300.24     | 435.44     | 567.58     | 311.6 | 27.78
Output  | 0.10693    | 0.11243    | 0.11287    |   0.4 |  0.01
Modify  | 21.812     | 22.956     | 24.132     |  20.9 |  1.46
Other   |            | 5.602      |            |       |  0.36

Nlocal:    128.438 ave 157 max 95 min
Histogram: 3 2 2 0 0 2 0 0 1 6
Nghost:    2618.69 ave 2651 max 2575 min
Histogram: 1 2 1 3 0 1 0 3 0 5
Neighs:    11464.5 ave 14212 max 7754 min
Histogram: 1 0 2 1 2 1 2 5 1 1

Total # of neighbors = 183432
Ave neighs/atom = 89.2613
Ave special neighs/atom = 5.60584
Neighbor list builds = 4837
Dangerous builds = 0
Total wall time: 0:50:30
