LAMMPS (30 Mar 2018)
Reading data file ...
  orthogonal box = (0 0 0) to (46.7237 46.7237 46.7237)
  2 by 2 by 4 MPI processor grid
  reading atoms ...
  3231 atoms
  scanning bonds ...
  5 = max bonds/atom
  scanning angles ...
  10 = max angles/atom
  scanning dihedrals ...
  32 = max dihedrals/atom
  scanning impropers ...
  3 = max impropers/atom
  reading bonds ...
  2064 bonds
  reading angles ...
  3696 angles
  reading dihedrals ...
  6240 dihedrals
  reading impropers ...
  1008 impropers
Finding 1-2 1-3 1-4 neighbors ...
  special bond factors lj:   0          0          0         
  special bond factors coul: 0          0          0         
  5 = max # of 1-2 neighbors
  8 = max # of 1-3 neighbors
  20 = max # of 1-4 neighbors
  19 = max # of special neighbors
Finding 1-2 1-3 1-4 neighbors ...
  special bond factors lj:   0          0          1         
  special bond factors coul: 1          1          1         
  5 = max # of 1-2 neighbors
  8 = max # of 1-3 neighbors
  19 = max # of special neighbors
WARNING: Using 'neigh_modify every 1 delay 0 check yes' setting during minimization (../min.cpp:168)
Neighbor list info ...
  update every 1 steps, delay 0 steps, check yes
  max neighbors/atom: 2000, page size: 100000
  master list distance cutoff = 16
  ghost atom cutoff = 16
  binsize = 8, bins = 6 6 6
  3 neighbor lists, perpetual/occasional/extra = 3 0 0
  (1) pair buck6d/coul/gauss/dsf, perpetual, skip from (3)
      attributes: half, newton on
      pair build: skip
      stencil: none
      bin: none
  (2) pair lj/cut, perpetual, skip from (3)
      attributes: half, newton on
      pair build: skip
      stencil: none
      bin: none
  (3) neighbor class addition, perpetual
      attributes: half, newton on
      pair build: half/bin/newton
      stencil: half/bin/3d/newton
      bin: standard
Setting up cg style minimization ...
  Unit style    : real
  Current step  : 0
WARNING: Inconsistent image flags (../domain.cpp:786)
Per MPI rank memory allocation (min/avg/max) = 23.02 | 23.47 | 23.92 Mbytes
Step Temp E_pair E_mol TotEng Press 
       0            0   -15693.691    6482.8914   -9210.7991    5995.2551 
     500            0   -16032.204    3764.5986   -12267.605   -1812.3916 
Loop time of 5.34276 on 16 procs for 500 steps with 3231 atoms

99.8% CPU use with 16 MPI tasks x no OpenMP threads

Minimization stats:
  Stopping criterion = max force evaluations
  Energy initial, next-to-last, final = 
        -9210.79910979     -12267.5517614     -12267.6053524
  Force two-norm initial, final = 2575.2 11.3447
  Force max component initial, final = 152.054 1.49505
  Final line search alpha, max atom move = 0.00830461 0.0124158
  Iterations, force evaluations = 500 1000

MPI task timing breakdown:
Section |  min time  |  avg time  |  max time  |%varavg| %total
---------------------------------------------------------------
Pair    | 2.4167     | 3.356      | 4.3858     |  26.0 | 62.81
Bond    | 0.30479    | 0.37945    | 0.45723    |   7.8 |  7.10
Neigh   | 0.036224   | 0.036256   | 0.036318   |   0.0 |  0.68
Comm    | 0.41334    | 1.5238     | 2.4891     |  41.0 | 28.52
Output  | 0          | 0          | 0          |   0.0 |  0.00
Modify  | 0          | 0          | 0          |   0.0 |  0.00
Other   |            | 0.0473     |            |       |  0.89

Nlocal:    201.938 ave 239 max 176 min
Histogram: 2 2 0 4 2 4 0 1 0 1
Nghost:    4030.12 ave 4071 max 3988 min
Histogram: 1 0 2 4 2 1 1 3 1 1
Neighs:    11487.4 ave 18503 max 6881 min
Histogram: 2 2 3 3 1 2 0 1 1 1

Total # of neighbors = 183798
Ave neighs/atom = 56.8858
Ave special neighs/atom = 3.56546
Neighbor list builds = 9
Dangerous builds = 0
Neighbor list info ...
  update every 1 steps, delay 10 steps, check yes
  max neighbors/atom: 2000, page size: 100000
  master list distance cutoff = 16
  ghost atom cutoff = 16
  binsize = 8, bins = 6 6 6
  3 neighbor lists, perpetual/occasional/extra = 3 0 0
  (1) pair buck6d/coul/gauss/dsf, perpetual, skip from (3)
      attributes: half, newton on
      pair build: skip
      stencil: none
      bin: none
  (2) pair lj/cut, perpetual, skip from (3)
      attributes: half, newton on
      pair build: skip
      stencil: none
      bin: none
  (3) neighbor class addition, perpetual
      attributes: half, newton on
      pair build: half/bin/newton
      stencil: half/bin/3d/newton
      bin: standard
Setting up Verlet run ...
  Unit style    : real
  Current step  : 500
  Time step     : 1
WARNING: Inconsistent image flags (../domain.cpp:786)
Per MPI rank memory allocation (min/avg/max) = 22.66 | 22.76 | 22.98 Mbytes
Step Temp PotEng TotEng Press Volume Lx Ly Lz 
     500           91   -12267.605   -11391.456   -1419.7473     102002.7      46.7237      46.7237      46.7237 
    1000    76.441725   -11539.316   -10803.334   -466.22278     102002.7      46.7237      46.7237      46.7237 
    2000    92.371092   -11409.077   -10519.726    -444.9412     102002.7      46.7237      46.7237      46.7237 
    3000    91.428902   -11421.093   -10540.814     26.48175     102002.7      46.7237      46.7237      46.7237 
    4000    91.248201   -11444.951   -10566.412    98.557408     102002.7      46.7237      46.7237      46.7237 
    5000    93.747608   -11453.179   -10550.575   -425.11269     102002.7      46.7237      46.7237      46.7237 
    6000    91.948951   -11448.519   -10563.233   -262.29829     102002.7      46.7237      46.7237      46.7237 
    7000    90.388999   -11456.949   -10586.682   -535.93406     102002.7      46.7237      46.7237      46.7237 
    8000    89.836427   -11449.088   -10584.141   -205.32568     102002.7      46.7237      46.7237      46.7237 
    9000    91.789731   -11425.393    -10541.64   -256.78311     102002.7      46.7237      46.7237      46.7237 
   10000    90.046271    -11431.39   -10564.423   -403.43479     102002.7      46.7237      46.7237      46.7237 
   11000    89.812462   -11461.168   -10596.452   -206.76117     102002.7      46.7237      46.7237      46.7237 
   12000    92.213229    -11439.16    -10551.33   -443.65605     102002.7      46.7237      46.7237      46.7237 
   13000    92.266811    -11431.96   -10543.614   -95.247799     102002.7      46.7237      46.7237      46.7237 
   14000    91.809049   -11456.351   -10572.412     -181.328     102002.7      46.7237      46.7237      46.7237 
   15000    90.968003   -11441.457   -10565.616   -275.47374     102002.7      46.7237      46.7237      46.7237 
   16000    92.151627   -11448.222   -10560.984   -231.51087     102002.7      46.7237      46.7237      46.7237 
   17000    89.203378   -11442.937   -10584.085   -719.63914     102002.7      46.7237      46.7237      46.7237 
   18000    88.128713   -11437.092   -10588.587   -252.82621     102002.7      46.7237      46.7237      46.7237 
   19000    91.242457   -11466.468   -10587.984   -326.90268     102002.7      46.7237      46.7237      46.7237 
   20000    90.704612   -11427.405   -10554.099   -518.77929     102002.7      46.7237      46.7237      46.7237 
   21000     91.39375   -11450.083   -10570.142   -442.36508     102002.7      46.7237      46.7237      46.7237 
   22000      92.3553   -11454.536   -10565.338   -227.27663     102002.7      46.7237      46.7237      46.7237 
   23000    90.336332   -11457.045   -10587.285    97.917528     102002.7      46.7237      46.7237      46.7237 
   24000      91.0388   -11445.323   -10568.799    63.283518     102002.7      46.7237      46.7237      46.7237 
   25000    89.717159   -11452.825   -10589.027   -116.87892     102002.7      46.7237      46.7237      46.7237 
   26000    91.708261   -11481.072   -10598.103   -115.54548     102002.7      46.7237      46.7237      46.7237 
   27000    90.124796   -11446.689   -10578.966   -455.37048     102002.7      46.7237      46.7237      46.7237 
   28000    90.722078   -11460.787   -10587.313   -193.56185     102002.7      46.7237      46.7237      46.7237 
   29000    92.933409   -11459.424   -10564.659   -37.910329     102002.7      46.7237      46.7237      46.7237 
   30000    89.761071   -11460.735   -10596.514   -250.49585     102002.7      46.7237      46.7237      46.7237 
   31000    91.449612   -11444.353   -10563.874   -328.51508     102002.7      46.7237      46.7237      46.7237 
   32000    91.470192    -11448.49   -10567.813   -219.78049     102002.7      46.7237      46.7237      46.7237 
   33000    92.382902   -11463.336   -10573.872   -6.1859254     102002.7      46.7237      46.7237      46.7237 
   34000    88.212291   -11448.113   -10598.804   -199.73458     102002.7      46.7237      46.7237      46.7237 
   35000     89.46815   -11463.548   -10602.147   -203.04025     102002.7      46.7237      46.7237      46.7237 
   36000     90.04226   -11442.833   -10575.905   -99.901576     102002.7      46.7237      46.7237      46.7237 
   37000    91.218454   -11453.959   -10575.707   -263.24295     102002.7      46.7237      46.7237      46.7237 
   38000    92.140095   -11459.184   -10572.057   -311.82819     102002.7      46.7237      46.7237      46.7237 
   39000    90.349332   -11445.381   -10575.496   -237.93334     102002.7      46.7237      46.7237      46.7237 
   40000    92.362036   -11479.379   -10590.115    -284.8252     102002.7      46.7237      46.7237      46.7237 
   41000    91.804086   -11451.785   -10567.894   -118.19677     102002.7      46.7237      46.7237      46.7237 
   42000    88.744031   -11490.908   -10636.479   -207.35884     102002.7      46.7237      46.7237      46.7237 
   43000    91.043053   -11449.302   -10572.738   -180.37848     102002.7      46.7237      46.7237      46.7237 
   44000    90.987583    -11452.27    -10576.24   -401.44734     102002.7      46.7237      46.7237      46.7237 
   45000    91.164148   -11431.369   -10553.639   -62.261653     102002.7      46.7237      46.7237      46.7237 
   46000     89.40954   -11456.595   -10595.759   -208.95172     102002.7      46.7237      46.7237      46.7237 
   47000    93.186896   -11447.459   -10550.254   -430.07282     102002.7      46.7237      46.7237      46.7237 
   48000     89.20825   -11440.414   -10581.516   -457.12389     102002.7      46.7237      46.7237      46.7237 
   49000    90.082844   -11439.093   -10571.774   -581.05713     102002.7      46.7237      46.7237      46.7237 
   50000    90.674492   -11444.389   -10571.374   -445.44674     102002.7      46.7237      46.7237      46.7237 
   51000    92.082559   -11445.291   -10558.719   -413.43988     102002.7      46.7237      46.7237      46.7237 
   52000    91.143262   -11433.363   -10555.834   -182.41925     102002.7      46.7237      46.7237      46.7237 
   53000    90.499954   -11459.989   -10588.654    -378.2127     102002.7      46.7237      46.7237      46.7237 
   54000    89.875994   -11462.658   -10597.331   -372.10629     102002.7      46.7237      46.7237      46.7237 
   55000    90.391078   -11445.839   -10575.552   -60.956848     102002.7      46.7237      46.7237      46.7237 
   56000    91.070155    -11455.39   -10578.565    -338.0351     102002.7      46.7237      46.7237      46.7237 
   57000    88.173352   -11464.837   -10615.902   -422.19265     102002.7      46.7237      46.7237      46.7237 
   58000    90.108843   -11462.643   -10595.073   -374.86817     102002.7      46.7237      46.7237      46.7237 
   59000    92.129354   -11455.368   -10568.345   -457.23066     102002.7      46.7237      46.7237      46.7237 
   60000    91.883532   -11453.018   -10568.361   -374.50961     102002.7      46.7237      46.7237      46.7237 
   61000    91.462716   -11455.528   -10574.924   -438.52553     102002.7      46.7237      46.7237      46.7237 
   62000    91.805602       -11441   -10557.094   -430.33694     102002.7      46.7237      46.7237      46.7237 
   63000    89.878134   -11442.011   -10576.663     -121.709     102002.7      46.7237      46.7237      46.7237 
   64000    90.157143   -11453.285   -10585.251   -373.39261     102002.7      46.7237      46.7237      46.7237 
   65000    90.557388   -11454.136   -10582.248   -204.84985     102002.7      46.7237      46.7237      46.7237 
   66000    93.725255   -11455.972   -10553.583     -261.748     102002.7      46.7237      46.7237      46.7237 
   67000    91.566538    -11453.73   -10572.126   -194.88685     102002.7      46.7237      46.7237      46.7237 
   68000    91.343927   -11484.148   -10604.687   -175.43753     102002.7      46.7237      46.7237      46.7237 
   69000    92.211406   -11475.469   -10587.656   -399.75196     102002.7      46.7237      46.7237      46.7237 
   70000    88.929335   -11445.777   -10589.564    -277.1406     102002.7      46.7237      46.7237      46.7237 
   71000    93.415597    -11444.99   -10545.583   -496.27536     102002.7      46.7237      46.7237      46.7237 
   72000    91.403467   -11463.266   -10583.232   -202.30021     102002.7      46.7237      46.7237      46.7237 
   73000    90.107638   -11477.925   -10610.367   -169.06113     102002.7      46.7237      46.7237      46.7237 
   74000    91.025722   -11458.126   -10581.729   -463.50438     102002.7      46.7237      46.7237      46.7237 
   75000    89.080909   -11451.876   -10594.203   -179.67199     102002.7      46.7237      46.7237      46.7237 
   76000    90.180988   -11487.473   -10619.209   -464.49028     102002.7      46.7237      46.7237      46.7237 
   77000    92.127438   -11470.364   -10583.359   -399.76868     102002.7      46.7237      46.7237      46.7237 
   78000    92.846144   -11449.001   -10555.077    -94.68991     102002.7      46.7237      46.7237      46.7237 
   79000    91.798495   -11472.195   -10588.357   -491.17707     102002.7      46.7237      46.7237      46.7237 
   80000    90.826278   -11476.558   -10602.081   -246.17643     102002.7      46.7237      46.7237      46.7237 
   81000    91.654516   -11467.052   -10584.601    -230.6537     102002.7      46.7237      46.7237      46.7237 
   82000    91.119065   -11466.971   -10589.675   -565.77618     102002.7      46.7237      46.7237      46.7237 
   83000    90.082793   -11467.409   -10600.091    -258.1704     102002.7      46.7237      46.7237      46.7237 
   84000    91.215774   -11454.497    -10576.27   -11.284043     102002.7      46.7237      46.7237      46.7237 
   85000    92.377277   -11463.861   -10574.451    -105.6039     102002.7      46.7237      46.7237      46.7237 
   86000    92.148795   -11476.058   -10588.848   -226.98187     102002.7      46.7237      46.7237      46.7237 
   87000    90.445338   -11463.049   -10592.239   -272.19677     102002.7      46.7237      46.7237      46.7237 
   88000    91.618695   -11469.082   -10586.975   -73.434956     102002.7      46.7237      46.7237      46.7237 
   89000    91.066861   -11476.591   -10599.798   -480.42805     102002.7      46.7237      46.7237      46.7237 
   90000    91.573667   -11465.729   -10584.056   -461.79411     102002.7      46.7237      46.7237      46.7237 
   91000     93.92275   -11462.008   -10557.718   -372.72474     102002.7      46.7237      46.7237      46.7237 
   92000    89.410696   -11464.468   -10603.621     -192.979     102002.7      46.7237      46.7237      46.7237 
   93000    86.309537    -11474.19     -10643.2   -247.14698     102002.7      46.7237      46.7237      46.7237 
   94000    92.121023   -11472.596   -10585.653    35.975536     102002.7      46.7237      46.7237      46.7237 
   95000    92.411353   -11461.821   -10572.083   -2.2658675     102002.7      46.7237      46.7237      46.7237 
   96000    93.227175   -11474.067   -10576.474    -304.1128     102002.7      46.7237      46.7237      46.7237 
   97000    90.243675   -11485.623   -10616.755   -541.61583     102002.7      46.7237      46.7237      46.7237 
   98000    91.986588   -11465.441   -10579.793   -235.44345     102002.7      46.7237      46.7237      46.7237 
   99000    90.048027   -11483.678   -10616.694   -394.01475     102002.7      46.7237      46.7237      46.7237 
  100000    91.517041   -11470.173   -10589.045   -357.49415     102002.7      46.7237      46.7237      46.7237 
  101000    93.307157   -11471.527   -10573.164    -177.6009     102002.7      46.7237      46.7237      46.7237 
  102000    89.269795   -11473.909   -10614.418   -369.42785     102002.7      46.7237      46.7237      46.7237 
  103000    90.815521   -11481.862   -10607.489   -414.12396     102002.7      46.7237      46.7237      46.7237 
  104000    92.364366   -11456.548   -10567.263   -196.45109     102002.7      46.7237      46.7237      46.7237 
  105000    90.348774   -11483.177   -10613.297   -661.21869     102002.7      46.7237      46.7237      46.7237 
  106000     90.85774   -11449.738   -10574.958    -55.24145     102002.7      46.7237      46.7237      46.7237 
  107000    92.428749   -11462.169   -10572.264   -346.63171     102002.7      46.7237      46.7237      46.7237 
  108000    89.078277   -11476.735   -10619.088   -260.55638     102002.7      46.7237      46.7237      46.7237 
  109000    89.914788   -11467.221    -10601.52   -81.797097     102002.7      46.7237      46.7237      46.7237 
  110000    89.301822   -11467.952   -10608.152   -369.27583     102002.7      46.7237      46.7237      46.7237 
  111000    91.491958   -11454.374   -10573.488   -300.67658     102002.7      46.7237      46.7237      46.7237 
  112000     92.72559   -11454.661   -10561.898   -180.22282     102002.7      46.7237      46.7237      46.7237 
  113000    91.173509   -11466.557   -10588.737   -450.70518     102002.7      46.7237      46.7237      46.7237 
  114000    92.685105   -11458.343   -10565.969   -127.71112     102002.7      46.7237      46.7237      46.7237 
  115000    93.073128   -11469.969   -10573.859   -185.45151     102002.7      46.7237      46.7237      46.7237 
  116000    88.119479   -11465.151   -10616.735   -477.65731     102002.7      46.7237      46.7237      46.7237 
  117000    89.387322   -11465.421   -10604.798   -273.42449     102002.7      46.7237      46.7237      46.7237 
  118000    92.197993   -11470.567   -10582.883   -364.11671     102002.7      46.7237      46.7237      46.7237 
  119000    90.668388   -11456.009   -10583.052   -247.91615     102002.7      46.7237      46.7237      46.7237 
  120000    89.999508   -11461.412   -10594.895   -235.36979     102002.7      46.7237      46.7237      46.7237 
  121000    89.871501   -11477.208   -10611.923   -336.88398     102002.7      46.7237      46.7237      46.7237 
  122000    92.543992    -11488.09   -10597.075   -108.83553     102002.7      46.7237      46.7237      46.7237 
  123000    88.344529   -11464.919   -10614.336   -259.83492     102002.7      46.7237      46.7237      46.7237 
  124000    90.238495   -11463.662   -10594.844   -187.97542     102002.7      46.7237      46.7237      46.7237 
  125000    89.374212   -11452.411   -10591.915   -226.64502     102002.7      46.7237      46.7237      46.7237 
  126000    90.020592   -11460.173   -10593.453   -375.88366     102002.7      46.7237      46.7237      46.7237 
  127000    89.548167   -11456.343   -10594.171    -355.0227     102002.7      46.7237      46.7237      46.7237 
  128000    91.503607   -11449.664   -10568.665   -416.47011     102002.7      46.7237      46.7237      46.7237 
  129000    89.787101   -11475.244   -10610.773   -131.18901     102002.7      46.7237      46.7237      46.7237 
  130000    93.320976   -11458.397   -10559.901   -412.70409     102002.7      46.7237      46.7237      46.7237 
  131000    88.672415   -11471.007   -10617.267   -385.45171     102002.7      46.7237      46.7237      46.7237 
  132000    89.593775   -11458.973   -10596.362   -354.20137     102002.7      46.7237      46.7237      46.7237 
  133000    90.925302   -11494.575   -10619.145   -263.62944     102002.7      46.7237      46.7237      46.7237 
  134000    91.949576   -11460.372    -10575.08   -214.53086     102002.7      46.7237      46.7237      46.7237 
  135000    92.926842   -11444.956   -10550.254   -355.68176     102002.7      46.7237      46.7237      46.7237 
  136000    91.864584   -11469.059   -10584.586   -301.98837     102002.7      46.7237      46.7237      46.7237 
  137000    91.814147   -11471.068    -10587.08   -592.10183     102002.7      46.7237      46.7237      46.7237 
  138000    91.787177   -11483.917   -10600.189   -171.37774     102002.7      46.7237      46.7237      46.7237 
  139000    89.594788   -11465.301   -10602.681   -361.96786     102002.7      46.7237      46.7237      46.7237 
  140000    89.794363   -11473.904   -10609.362   -509.88896     102002.7      46.7237      46.7237      46.7237 
  141000    90.722896   -11466.202   -10592.721    36.815035     102002.7      46.7237      46.7237      46.7237 
  142000    92.284689   -11473.034   -10584.515   -431.62053     102002.7      46.7237      46.7237      46.7237 
  143000    90.032789   -11460.387    -10593.55   -240.89274     102002.7      46.7237      46.7237      46.7237 
  144000    90.388069   -11483.129   -10612.871   -143.19073     102002.7      46.7237      46.7237      46.7237 
  145000    91.907233   -11454.148   -10569.263   -215.00733     102002.7      46.7237      46.7237      46.7237 
  146000    91.589619   -11460.664   -10578.837   -332.33348     102002.7      46.7237      46.7237      46.7237 
  147000    92.068259   -11454.231   -10567.796   -270.20642     102002.7      46.7237      46.7237      46.7237 
  148000    93.114554   -11451.236   -10554.727   -254.44494     102002.7      46.7237      46.7237      46.7237 
  149000    89.249377    -11462.49   -10603.196   -347.22844     102002.7      46.7237      46.7237      46.7237 
  150000    92.392895   -11460.137   -10570.576   -221.60963     102002.7      46.7237      46.7237      46.7237 
  151000    90.905978    -11481.38   -10606.135   -675.95703     102002.7      46.7237      46.7237      46.7237 
  152000    91.707943   -11490.619   -10607.654   -22.105719     102002.7      46.7237      46.7237      46.7237 
  153000    89.938743   -11472.107   -10606.175   -391.88219     102002.7      46.7237      46.7237      46.7237 
  154000    87.138714   -11471.592   -10632.619   -195.25949     102002.7      46.7237      46.7237      46.7237 
  155000    91.668698   -11482.449   -10599.861   -90.043094     102002.7      46.7237      46.7237      46.7237 
  156000    90.966668   -11471.416   -10595.587   -452.05157     102002.7      46.7237      46.7237      46.7237 
  157000    90.339263   -11467.695   -10597.907   -309.94699     102002.7      46.7237      46.7237      46.7237 
  158000    92.045644   -11479.525   -10593.308   -379.09182     102002.7      46.7237      46.7237      46.7237 
  159000    89.151504   -11479.456   -10621.104   -330.18901     102002.7      46.7237      46.7237      46.7237 
  160000    91.278068   -11487.497   -10608.671    -219.7123     102002.7      46.7237      46.7237      46.7237 
  161000    91.021791   -11471.028   -10594.668   -214.85989     102002.7      46.7237      46.7237      46.7237 
  162000     89.95394    -11476.71   -10610.632   -219.71208     102002.7      46.7237      46.7237      46.7237 
  163000    91.506629   -11467.672   -10586.645   -326.68813     102002.7      46.7237      46.7237      46.7237 
  164000    91.540532    -11482.54   -10601.187   -295.42976     102002.7      46.7237      46.7237      46.7237 
  165000    89.955323   -11454.125   -10588.034   -216.26761     102002.7      46.7237      46.7237      46.7237 
  166000    90.688838   -11465.182   -10592.028   -262.22225     102002.7      46.7237      46.7237      46.7237 
  167000    91.262484   -11474.377   -10595.701   -357.06253     102002.7      46.7237      46.7237      46.7237 
  168000    91.144594    -11474.68   -10597.139    -469.3558     102002.7      46.7237      46.7237      46.7237 
  169000    89.960693    -11475.96   -10609.817   -565.50423     102002.7      46.7237      46.7237      46.7237 
  170000    93.441265   -11472.274    -10572.62   -635.00726     102002.7      46.7237      46.7237      46.7237 
  171000    89.851176   -11466.427   -10601.338   -463.14499     102002.7      46.7237      46.7237      46.7237 
  172000    91.547692   -11477.283    -10595.86   -159.34802     102002.7      46.7237      46.7237      46.7237 
  173000    90.572951   -11482.778    -10610.74      -392.34     102002.7      46.7237      46.7237      46.7237 
  174000    90.619262   -11463.398   -10590.914   -342.17242     102002.7      46.7237      46.7237      46.7237 
  175000    90.063355   -11445.548   -10578.417   -232.81553     102002.7      46.7237      46.7237      46.7237 
  176000    90.276801   -11465.542   -10596.356   -200.43284     102002.7      46.7237      46.7237      46.7237 
  177000     90.87099   -11460.203   -10585.295   -246.81066     102002.7      46.7237      46.7237      46.7237 
  178000     91.45088   -11470.426   -10589.936    60.513937     102002.7      46.7237      46.7237      46.7237 
  179000    90.196248   -11469.849   -10601.438   -440.84284     102002.7      46.7237      46.7237      46.7237 
  180000    90.401829   -11485.306   -10614.915   -432.18086     102002.7      46.7237      46.7237      46.7237 
  181000    91.117214    -11469.48   -10592.202   -166.57198     102002.7      46.7237      46.7237      46.7237 
  182000    91.221218   -11472.755   -10594.476   -280.91651     102002.7      46.7237      46.7237      46.7237 
  183000    88.013733    -11431.08   -10583.683   -34.362903     102002.7      46.7237      46.7237      46.7237 
  184000    91.120943   -11456.439   -10579.125   -418.02715     102002.7      46.7237      46.7237      46.7237 
  185000    90.471048   -11475.686   -10604.629   -434.32396     102002.7      46.7237      46.7237      46.7237 
  186000    93.094775   -11472.536   -10576.218   -82.409533     102002.7      46.7237      46.7237      46.7237 
  187000    90.645077   -11466.914   -10594.181   -322.09454     102002.7      46.7237      46.7237      46.7237 
  188000    90.293759   -11460.881   -10591.531   -305.14297     102002.7      46.7237      46.7237      46.7237 
  189000    92.773238   -11465.671   -10572.449    -200.0046     102002.7      46.7237      46.7237      46.7237 
  190000    91.281782   -11463.196   -10584.334     -350.093     102002.7      46.7237      46.7237      46.7237 
  191000    91.689637   -11484.164   -10601.375   -392.89462     102002.7      46.7237      46.7237      46.7237 
  192000    90.542661   -11479.462   -10607.716   -436.30131     102002.7      46.7237      46.7237      46.7237 
  193000    92.591565    -11465.61   -10574.137   -541.89935     102002.7      46.7237      46.7237      46.7237 
  194000    91.948469    -11467.55   -10582.268   -528.85197     102002.7      46.7237      46.7237      46.7237 
  195000    90.258318   -11473.906   -10604.897   -399.76666     102002.7      46.7237      46.7237      46.7237 
  196000    93.509315   -11483.658   -10583.349   -292.62867     102002.7      46.7237      46.7237      46.7237 
  197000    91.198606   -11468.414   -10590.352    -42.19334     102002.7      46.7237      46.7237      46.7237 
  198000    89.649776   -11470.033   -10606.884   -488.03427     102002.7      46.7237      46.7237      46.7237 
  199000    88.646968   -11472.729   -10619.235   -72.478599     102002.7      46.7237      46.7237      46.7237 
  200000    92.574364   -11467.467    -10576.16   -308.29349     102002.7      46.7237      46.7237      46.7237 
  201000    92.757327   -11495.515   -10602.446    -244.0562     102002.7      46.7237      46.7237      46.7237 
  202000    92.189794   -11460.506   -10572.902    -257.1678     102002.7      46.7237      46.7237      46.7237 
  203000    92.109341   -11461.993   -10575.162   -556.80596     102002.7      46.7237      46.7237      46.7237 
  204000    89.155359    -11469.67   -10611.281   -218.94709     102002.7      46.7237      46.7237      46.7237 
  205000    92.295489   -11464.397   -10575.775   -207.51732     102002.7      46.7237      46.7237      46.7237 
  206000     92.14493   -11443.212   -10556.039   -238.71941     102002.7      46.7237      46.7237      46.7237 
  207000    91.965181   -11486.382    -10600.94   -295.48197     102002.7      46.7237      46.7237      46.7237 
  208000     92.78155   -11456.005   -10562.703    -220.2306     102002.7      46.7237      46.7237      46.7237 
  209000    90.625736   -11463.517    -10590.97   -472.86656     102002.7      46.7237      46.7237      46.7237 
  210000    90.672185   -11479.639   -10606.646   -285.83089     102002.7      46.7237      46.7237      46.7237 
  211000    92.714621   -11453.316   -10560.658   -410.26197     102002.7      46.7237      46.7237      46.7237 
  212000    89.726687   -11464.086   -10600.196   -292.87213     102002.7      46.7237      46.7237      46.7237 
  213000    91.898402   -11479.691   -10594.892   -218.09743     102002.7      46.7237      46.7237      46.7237 
  214000    91.768091   -11457.573   -10574.028    1.3140623     102002.7      46.7237      46.7237      46.7237 
  215000    93.373987   -11466.757    -10567.75   -410.16159     102002.7      46.7237      46.7237      46.7237 
  216000    90.983974   -11480.721   -10604.726   -452.00488     102002.7      46.7237      46.7237      46.7237 
  217000    92.435397   -11451.795   -10561.826     -224.207     102002.7      46.7237      46.7237      46.7237 
  218000    91.652058   -11479.925   -10597.497    31.720148     102002.7      46.7237      46.7237      46.7237 
  219000    91.801409   -11473.543   -10589.677   -323.67821     102002.7      46.7237      46.7237      46.7237 
  220000    88.477657   -11486.669   -10634.805   -702.55909     102002.7      46.7237      46.7237      46.7237 
  221000    89.924776   -11458.944   -10593.146   -369.02075     102002.7      46.7237      46.7237      46.7237 
  222000    91.079868   -11469.154   -10592.236   -272.10094     102002.7      46.7237      46.7237      46.7237 
  223000    89.922903   -11488.696   -10622.917   -443.98031     102002.7      46.7237      46.7237      46.7237 
  224000    90.974909   -11479.154   -10603.246   -506.39884     102002.7      46.7237      46.7237      46.7237 
  225000     91.55764   -11469.659   -10588.141   -472.05799     102002.7      46.7237      46.7237      46.7237 
  226000    88.113538   -11480.803   -10632.444   -446.81638     102002.7      46.7237      46.7237      46.7237 
  227000    93.263693   -11486.775   -10588.831   -436.40696     102002.7      46.7237      46.7237      46.7237 
  228000    92.002941    -11470.67   -10584.864   -300.57882     102002.7      46.7237      46.7237      46.7237 
  229000    91.992175   -11447.807   -10562.105   -90.176611     102002.7      46.7237      46.7237      46.7237 
  230000    90.985068   -11452.426    -10576.42   -313.93855     102002.7      46.7237      46.7237      46.7237 
  231000    91.067872   -11470.837   -10594.034   -304.79854     102002.7      46.7237      46.7237      46.7237 
  232000    90.019328   -11474.991   -10608.283   -373.44016     102002.7      46.7237      46.7237      46.7237 
  233000    91.170919   -11462.004   -10584.209   -89.950976     102002.7      46.7237      46.7237      46.7237 
  234000    90.878467   -11468.803   -10593.823   -183.68574     102002.7      46.7237      46.7237      46.7237 
  235000    90.641664   -11474.731   -10602.031   -436.40535     102002.7      46.7237      46.7237      46.7237 
  236000    91.735605   -11472.807   -10589.575   -465.33588     102002.7      46.7237      46.7237      46.7237 
  237000    90.431814   -11463.675   -10592.996   -435.35506     102002.7      46.7237      46.7237      46.7237 
  238000    92.993043    -11473.78   -10578.442   -367.50635     102002.7      46.7237      46.7237      46.7237 
  239000    89.127243   -11487.857   -10629.738   -274.35516     102002.7      46.7237      46.7237      46.7237 
  240000    91.568195   -11468.734   -10587.114   -70.012215     102002.7      46.7237      46.7237      46.7237 
  241000    89.278288   -11492.636   -10633.063   -170.35678     102002.7      46.7237      46.7237      46.7237 
  242000    92.068661   -11467.612   -10581.173   -252.53977     102002.7      46.7237      46.7237      46.7237 
  243000    90.372237   -11472.686    -10602.58   -249.85811     102002.7      46.7237      46.7237      46.7237 
  244000    89.326759    -11454.81   -10594.771   -221.27691     102002.7      46.7237      46.7237      46.7237 
  245000    92.334286   -11447.195   -10558.199   -306.45473     102002.7      46.7237      46.7237      46.7237 
  246000     91.28002   -11483.693   -10604.848   -431.76751     102002.7      46.7237      46.7237      46.7237 
  247000    91.354216   -11457.489   -10577.929   -243.69838     102002.7      46.7237      46.7237      46.7237 
  248000    88.963675   -11451.783    -10595.24   -326.40119     102002.7      46.7237      46.7237      46.7237 
  249000    93.221261   -11482.696    -10585.16   -308.14438     102002.7      46.7237      46.7237      46.7237 
  250000    91.441824    -11490.61   -10610.206   -527.61012     102002.7      46.7237      46.7237      46.7237 
  251000    93.206207   -11452.761    -10555.37   -452.47617     102002.7      46.7237      46.7237      46.7237 
  252000      90.1726   -11451.761   -10583.577   -163.45189     102002.7      46.7237      46.7237      46.7237 
  253000    91.270678   -11469.201   -10590.445   -538.68769     102002.7      46.7237      46.7237      46.7237 
  254000     89.56004   -11492.758   -10630.472   -368.90699     102002.7      46.7237      46.7237      46.7237 
  255000    92.093093    -11481.94   -10595.266   -254.97626     102002.7      46.7237      46.7237      46.7237 
  256000    88.187585   -11482.109   -10633.037   -170.73355     102002.7      46.7237      46.7237      46.7237 
  257000    88.255922   -11460.289   -10610.559   -141.25621     102002.7      46.7237      46.7237      46.7237 
  258000    92.307121   -11481.533   -10592.798   -252.12922     102002.7      46.7237      46.7237      46.7237 
  259000      91.5522   -11482.045   -10600.579   -170.62628     102002.7      46.7237      46.7237      46.7237 
  260000    92.353186    -11460.15   -10570.972   -85.099407     102002.7      46.7237      46.7237      46.7237 
  261000    89.481924    -11476.12   -10614.587   -273.04273     102002.7      46.7237      46.7237      46.7237 
  262000    88.585995   -11459.959   -10607.051   -748.12674     102002.7      46.7237      46.7237      46.7237 
  263000    90.060901    -11491.22   -10624.112   -366.80464     102002.7      46.7237      46.7237      46.7237 
  264000    89.619357   -11461.013   -10598.157   -657.58435     102002.7      46.7237      46.7237      46.7237 
  265000    91.990901   -11489.979   -10604.289   -505.27455     102002.7      46.7237      46.7237      46.7237 
  266000    91.867761   -11490.784    -10606.28   -303.11128     102002.7      46.7237      46.7237      46.7237 
  267000    90.225551   -11491.173    -10622.48   -410.62736     102002.7      46.7237      46.7237      46.7237 
  268000    91.492991   -11475.426    -10594.53   -499.99514     102002.7      46.7237      46.7237      46.7237 
  269000    91.293933   -11494.462   -10615.483   -387.31813     102002.7      46.7237      46.7237      46.7237 
  270000    93.822601   -11486.631   -10583.305   -440.42713     102002.7      46.7237      46.7237      46.7237 
  271000    91.977874   -11477.032   -10591.467   -230.80903     102002.7      46.7237      46.7237      46.7237 
  272000    90.521601   -11460.228   -10588.684   -215.74174     102002.7      46.7237      46.7237      46.7237 
  273000    90.236229   -11475.692   -10606.896   -267.86637     102002.7      46.7237      46.7237      46.7237 
  274000    90.240452   -11481.697    -10612.86   -243.66738     102002.7      46.7237      46.7237      46.7237 
  275000     87.94847   -11497.857   -10651.088   -259.99112     102002.7      46.7237      46.7237      46.7237 
  276000    91.616237   -11485.491   -10603.409    -300.8708     102002.7      46.7237      46.7237      46.7237 
  277000    92.842677   -11486.238   -10592.347   -535.46669     102002.7      46.7237      46.7237      46.7237 
  278000    91.030345    -11508.14   -10631.698   -337.19026     102002.7      46.7237      46.7237      46.7237 
  279000    90.076823   -11470.754   -10603.493   -218.25432     102002.7      46.7237      46.7237      46.7237 
  280000    90.491147    -11469.57    -10598.32   -355.39043     102002.7      46.7237      46.7237      46.7237 
  281000    90.757664   -11479.645   -10605.829    -182.0253     102002.7      46.7237      46.7237      46.7237 
  282000    91.208892   -11472.894   -10594.734   -308.70663     102002.7      46.7237      46.7237      46.7237 
  283000    90.510293   -11480.332   -10608.897   -329.52859     102002.7      46.7237      46.7237      46.7237 
  284000    88.517834   -11462.486   -10610.235   -154.72952     102002.7      46.7237      46.7237      46.7237 
  285000    91.030257   -11463.506   -10587.065   -204.50656     102002.7      46.7237      46.7237      46.7237 
  286000    90.860894   -11473.838   -10599.028   -202.42787     102002.7      46.7237      46.7237      46.7237 
  287000    90.330034   -11445.718   -10576.019   -266.82264     102002.7      46.7237      46.7237      46.7237 
  288000    90.353256   -11468.898   -10598.975    -48.57649     102002.7      46.7237      46.7237      46.7237 
  289000    91.262338   -11463.871   -10585.196   -173.44295     102002.7      46.7237      46.7237      46.7237 
  290000    93.023511    -11491.82   -10596.189   -630.62264     102002.7      46.7237      46.7237      46.7237 
  291000    89.354071   -11473.412   -10613.109   -203.19271     102002.7      46.7237      46.7237      46.7237 
  292000    90.159521   -11477.742   -10609.684   -137.25729     102002.7      46.7237      46.7237      46.7237 
  293000     93.18642   -11485.209   -10588.009   -120.10599     102002.7      46.7237      46.7237      46.7237 
  294000    90.226196   -11469.305   -10600.606   -344.56509     102002.7      46.7237      46.7237      46.7237 
  295000    91.805071   -11482.689   -10598.788   -223.70595     102002.7      46.7237      46.7237      46.7237 
  296000    94.766764   -11467.785   -10555.369   -186.32802     102002.7      46.7237      46.7237      46.7237 
  297000    89.228106   -11489.934   -10630.845   -443.55106     102002.7      46.7237      46.7237      46.7237 
  298000    89.955948   -11481.105   -10615.008   -209.92151     102002.7      46.7237      46.7237      46.7237 
  299000    90.458819   -11491.675   -10620.736   -390.31542     102002.7      46.7237      46.7237      46.7237 
  300000     90.27357   -11475.677   -10606.522   -275.90744     102002.7      46.7237      46.7237      46.7237 
  301000    92.300205   -11486.557   -10597.889   -321.24604     102002.7      46.7237      46.7237      46.7237 
  302000    88.784829   -11469.121   -10614.299    -195.9695     102002.7      46.7237      46.7237      46.7237 
  303000    91.687373   -11478.803   -10596.035   -162.25328     102002.7      46.7237      46.7237      46.7237 
  304000    90.098141   -11451.163   -10583.696   -322.54391     102002.7      46.7237      46.7237      46.7237 
  305000    89.363596   -11458.456   -10598.062   -19.361639     102002.7      46.7237      46.7237      46.7237 
  306000    90.149329   -11487.244   -10619.285   -183.28095     102002.7      46.7237      46.7237      46.7237 
  307000    90.650818   -11464.024   -10591.237   -1.3528658     102002.7      46.7237      46.7237      46.7237 
  308000    89.898281   -11461.891   -10596.349   -142.84807     102002.7      46.7237      46.7237      46.7237 
  309000    92.954428   -11431.179   -10536.212   -323.62758     102002.7      46.7237      46.7237      46.7237 
  310000    90.822585   -11464.721   -10590.279   -140.06321     102002.7      46.7237      46.7237      46.7237 
  311000    91.372898   -11461.811   -10582.072   -398.00583     102002.7      46.7237      46.7237      46.7237 
  312000    90.825624   -11474.949   -10600.479   -471.71179     102002.7      46.7237      46.7237      46.7237 
  313000    87.887924   -11458.885   -10612.699   -491.44359     102002.7      46.7237      46.7237      46.7237 
  314000    91.635129   -11462.684   -10580.419   -284.03646     102002.7      46.7237      46.7237      46.7237 
  315000    90.519793   -11461.584   -10590.058   -345.83709     102002.7      46.7237      46.7237      46.7237 
  316000    93.084689   -11452.917   -10556.696   -303.73692     102002.7      46.7237      46.7237      46.7237 
  317000    91.884266   -11474.833    -10590.17    -334.3923     102002.7      46.7237      46.7237      46.7237 
  318000    90.331304   -11452.042    -10582.33    -98.81002     102002.7      46.7237      46.7237      46.7237 
  319000     91.80643   -11464.685   -10580.771   -435.74945     102002.7      46.7237      46.7237      46.7237 
  320000    89.368539   -11442.159   -10581.718    -154.3001     102002.7      46.7237      46.7237      46.7237 
  321000    92.542233   -11463.756   -10572.758    -517.5919     102002.7      46.7237      46.7237      46.7237 
  322000    88.608917   -11498.945   -10645.817   -383.04943     102002.7      46.7237      46.7237      46.7237 
  323000    92.407413   -11478.016   -10588.316    -68.73198     102002.7      46.7237      46.7237      46.7237 
  324000    89.885736   -11454.841   -10589.419   -235.43817     102002.7      46.7237      46.7237      46.7237 
  325000    91.405813   -11473.237   -10593.181   -481.08037     102002.7      46.7237      46.7237      46.7237 
  326000    88.892743   -11471.992   -10616.131   -260.71744     102002.7      46.7237      46.7237      46.7237 
  327000    92.436481   -11467.941   -10577.961   -239.21375     102002.7      46.7237      46.7237      46.7237 
  328000    94.215968   -11486.339   -10579.227   -251.02276     102002.7      46.7237      46.7237      46.7237 
  329000    90.805096   -11484.252   -10609.979    62.955298     102002.7      46.7237      46.7237      46.7237 
  330000    91.884923   -11459.025   -10574.355   -254.96657     102002.7      46.7237      46.7237      46.7237 
  331000    91.843565   -11459.374   -10575.103   -234.18343     102002.7      46.7237      46.7237      46.7237 
  332000    92.006307   -11458.918   -10573.079   -158.14459     102002.7      46.7237      46.7237      46.7237 
  333000    92.292211    -11463.37    -10574.78   -177.96734     102002.7      46.7237      46.7237      46.7237 
  334000    91.280156   -11461.452   -10582.605   -20.666663     102002.7      46.7237      46.7237      46.7237 
  335000    90.254183   -11494.803   -10625.834   -239.38028     102002.7      46.7237      46.7237      46.7237 
  336000    91.071738   -11481.368   -10604.528   -491.73751     102002.7      46.7237      46.7237      46.7237 
  337000    91.076221   -11484.315   -10607.431   -141.73051     102002.7      46.7237      46.7237      46.7237 
  338000    90.822254   -11455.814   -10581.376   -224.92552     102002.7      46.7237      46.7237      46.7237 
  339000    90.840552   -11458.114   -10583.499   -97.090803     102002.7      46.7237      46.7237      46.7237 
  340000    89.595283   -11475.107   -10612.482   -364.60803     102002.7      46.7237      46.7237      46.7237 
  341000    89.379489   -11489.536   -10628.989   -275.35232     102002.7      46.7237      46.7237      46.7237 
  342000    91.488812   -11474.963   -10594.107   -129.09327     102002.7      46.7237      46.7237      46.7237 
  343000    90.560303   -11481.537   -10609.621   -80.279535     102002.7      46.7237      46.7237      46.7237 
  344000    90.985021    -11471.41   -10595.405    -323.9544     102002.7      46.7237      46.7237      46.7237 
  345000    90.078701   -11469.403   -10602.124    -287.9238     102002.7      46.7237      46.7237      46.7237 
  346000     91.68883   -11448.483   -10565.701   -312.57589     102002.7      46.7237      46.7237      46.7237 
  347000    92.976857   -11479.248   -10584.065   -545.97699     102002.7      46.7237      46.7237      46.7237 
  348000    90.763338   -11495.712   -10621.841   -139.02139     102002.7      46.7237      46.7237      46.7237 
  349000    91.127963   -11460.299   -10582.917   -308.35063     102002.7      46.7237      46.7237      46.7237 
  350000     89.99071   -11465.979   -10599.547    -261.8221     102002.7      46.7237      46.7237      46.7237 
  351000    90.969861   -11470.484   -10594.625   -271.43965     102002.7      46.7237      46.7237      46.7237 
  352000    91.751666   -11510.199   -10626.812    -98.61992     102002.7      46.7237      46.7237      46.7237 
  353000    90.465548   -11486.817   -10615.813   -118.40346     102002.7      46.7237      46.7237      46.7237 
  354000    91.760833   -11479.311   -10595.836   -300.08251     102002.7      46.7237      46.7237      46.7237 
  355000    90.681466   -11466.002   -10592.919   -193.27709     102002.7      46.7237      46.7237      46.7237 
  356000    90.670058   -11460.779   -10587.806   -76.439466     102002.7      46.7237      46.7237      46.7237 
  357000    91.208236   -11478.655     -10600.5   -313.36866     102002.7      46.7237      46.7237      46.7237 
  358000    91.937402   -11463.104   -10577.929   -315.30536     102002.7      46.7237      46.7237      46.7237 
  359000    89.008246   -11469.716   -10612.743    -241.7718     102002.7      46.7237      46.7237      46.7237 
  360000     91.29638   -11464.733    -10585.73   -57.570433     102002.7      46.7237      46.7237      46.7237 
  361000    91.376927    -11453.25   -10573.471     -184.529     102002.7      46.7237      46.7237      46.7237 
  362000     92.59401   -11470.434   -10578.937   -117.83605     102002.7      46.7237      46.7237      46.7237 
  363000    90.562115   -11474.513   -10602.579   -200.72527     102002.7      46.7237      46.7237      46.7237 
  364000    93.182055   -11476.466   -10579.308   -250.17336     102002.7      46.7237      46.7237      46.7237 
  365000    90.333321   -11455.379   -10585.648   -239.28108     102002.7      46.7237      46.7237      46.7237 
  366000    92.191083   -11460.612   -10572.995   -266.95322     102002.7      46.7237      46.7237      46.7237 
  367000    94.192747   -11450.956   -10544.067   -74.193715     102002.7      46.7237      46.7237      46.7237 
  368000    90.813174   -11471.247   -10596.896   -440.18831     102002.7      46.7237      46.7237      46.7237 
  369000    91.056397    -11468.34   -10591.647    -270.5021     102002.7      46.7237      46.7237      46.7237 
  370000    91.040968   -11474.048   -10597.504   -317.75801     102002.7      46.7237      46.7237      46.7237 
  371000     89.75163   -11467.127   -10602.997   -476.38636     102002.7      46.7237      46.7237      46.7237 
  372000    92.731073   -11471.195   -10578.379   -363.15059     102002.7      46.7237      46.7237      46.7237 
  373000    91.297007    -11503.69   -10624.681   -269.52636     102002.7      46.7237      46.7237      46.7237 
  374000     89.47054   -11456.014    -10594.59   -22.659366     102002.7      46.7237      46.7237      46.7237 
  375000    92.979442   -11474.243   -10579.035   -491.58114     102002.7      46.7237      46.7237      46.7237 
  376000    91.408239   -11476.322   -10596.242   -517.71653     102002.7      46.7237      46.7237      46.7237 
  377000    90.662463   -11472.778   -10599.878   -136.45536     102002.7      46.7237      46.7237      46.7237 
  378000    89.088386    -11465.81   -10608.066   -16.444491     102002.7      46.7237      46.7237      46.7237 
  379000    92.423508   -11473.572   -10583.717   -241.28885     102002.7      46.7237      46.7237      46.7237 
  380000      89.0716   -11440.642   -10583.059   -116.44761     102002.7      46.7237      46.7237      46.7237 
  381000    92.086044   -11462.902   -10576.296    34.446024     102002.7      46.7237      46.7237      46.7237 
  382000    90.107786   -11482.724   -10615.164    14.907378     102002.7      46.7237      46.7237      46.7237 
  383000    91.001001   -11481.085   -10604.926   -279.74578     102002.7      46.7237      46.7237      46.7237 
  384000    91.830308   -11461.481   -10577.337   -50.974473     102002.7      46.7237      46.7237      46.7237 
  385000    88.447591    -11453.87   -10602.295   -314.80593     102002.7      46.7237      46.7237      46.7237 
  386000    88.582601   -11480.701   -10627.826   -571.96316     102002.7      46.7237      46.7237      46.7237 
  387000     88.81138   -11472.979   -10617.902   -523.80116     102002.7      46.7237      46.7237      46.7237 
  388000    92.321854   -11476.028   -10587.152   -356.37167     102002.7      46.7237      46.7237      46.7237 
  389000    90.739947   -11497.218   -10623.572    -278.9317     102002.7      46.7237      46.7237      46.7237 
  390000    89.598546   -11447.734   -10585.078    -66.97987     102002.7      46.7237      46.7237      46.7237 
  391000    89.002726   -11462.191   -10605.272   -292.86996     102002.7      46.7237      46.7237      46.7237 
  392000    88.804139   -11472.907   -10617.899   -261.31326     102002.7      46.7237      46.7237      46.7237 
  393000    90.178297    -11471.55   -10603.311   -76.375369     102002.7      46.7237      46.7237      46.7237 
  394000    94.306916   -11471.991   -10564.002   -220.40258     102002.7      46.7237      46.7237      46.7237 
  395000    89.528173   -11453.024   -10591.045    19.584869     102002.7      46.7237      46.7237      46.7237 
  396000    92.549917   -11474.479   -10583.407   -173.80819     102002.7      46.7237      46.7237      46.7237 
  397000    91.047792   -11488.763   -10612.154   -233.80684     102002.7      46.7237      46.7237      46.7237 
  398000    89.523343   -11474.322    -10612.39   -310.25448     102002.7      46.7237      46.7237      46.7237 
  399000    92.030112   -11493.312   -10607.244   -605.01367     102002.7      46.7237      46.7237      46.7237 
  400000    90.306274   -11484.904   -10615.434   -496.68963     102002.7      46.7237      46.7237      46.7237 
  401000    92.547718   -11467.194   -10576.143   -620.35013     102002.7      46.7237      46.7237      46.7237 
  402000    89.600099   -11477.475   -10614.804    -578.0468     102002.7      46.7237      46.7237      46.7237 
  403000      90.6323   -11467.832   -10595.223   -254.68519     102002.7      46.7237      46.7237      46.7237 
  404000    91.215823   -11485.633   -10607.405   -475.85289     102002.7      46.7237      46.7237      46.7237 
  405000    92.064516   -11481.034   -10594.636   -443.33289     102002.7      46.7237      46.7237      46.7237 
  406000    91.476324   -11486.749   -10606.014   -329.11011     102002.7      46.7237      46.7237      46.7237 
  407000    90.548399   -11456.384   -10584.583   -111.95288     102002.7      46.7237      46.7237      46.7237 
  408000    92.275544   -11444.197   -10555.766   -349.35549     102002.7      46.7237      46.7237      46.7237 
  409000     90.46432    -11453.63   -10582.638   -230.33335     102002.7      46.7237      46.7237      46.7237 
  410000    90.152409   -11472.219    -10604.23   -185.13995     102002.7      46.7237      46.7237      46.7237 
  411000    93.158396   -11468.869   -10571.938   -278.47576     102002.7      46.7237      46.7237      46.7237 
  412000    90.105564   -11471.708    -10604.17   -187.23173     102002.7      46.7237      46.7237      46.7237 
  413000    91.052644   -11475.485   -10598.829   -178.56899     102002.7      46.7237      46.7237      46.7237 
  414000    90.332418   -11471.691   -10601.969   -389.78091     102002.7      46.7237      46.7237      46.7237 
  415000    91.368715   -11495.928   -10616.229   -259.05103     102002.7      46.7237      46.7237      46.7237 
  416000    90.278898   -11467.381   -10598.174   -128.16187     102002.7      46.7237      46.7237      46.7237 
  417000    92.653898   -11483.491   -10591.418   -349.19194     102002.7      46.7237      46.7237      46.7237 
  418000    92.637008   -11474.239   -10582.328   -624.89625     102002.7      46.7237      46.7237      46.7237 
  419000    89.904958   -11469.497   -10603.891   -641.02929     102002.7      46.7237      46.7237      46.7237 
  420000    92.332171   -11487.323   -10598.347   -239.92756     102002.7      46.7237      46.7237      46.7237 
  421000     92.23122   -11472.552   -10584.548   -31.628412     102002.7      46.7237      46.7237      46.7237 
  422000    91.777407   -11496.019   -10612.384    -334.2188     102002.7      46.7237      46.7237      46.7237 
  423000    91.852606   -11468.162   -10583.804   -195.77263     102002.7      46.7237      46.7237      46.7237 
  424000    92.124716   -11469.234   -10582.255   -420.76078     102002.7      46.7237      46.7237      46.7237 
  425000     90.83033   -11483.846    -10609.33    -205.7933     102002.7      46.7237      46.7237      46.7237 
  426000    91.331733   -11460.652   -10581.309   -266.49392     102002.7      46.7237      46.7237      46.7237 
  427000    90.012347   -11479.545   -10612.905   -574.95328     102002.7      46.7237      46.7237      46.7237 
  428000    91.926911   -11474.705   -10589.631   -455.92094     102002.7      46.7237      46.7237      46.7237 
  429000      90.0415     -11468.2   -10601.279   -199.87416     102002.7      46.7237      46.7237      46.7237 
  430000    91.362911   -11468.132   -10588.489   -289.19993     102002.7      46.7237      46.7237      46.7237 
  431000    91.575553   -11477.078   -10595.387   -140.01366     102002.7      46.7237      46.7237      46.7237 
  432000    92.807505   -11478.733   -10585.181   -295.88273     102002.7      46.7237      46.7237      46.7237 
  433000    91.442822   -11468.507   -10588.094   -283.37822     102002.7      46.7237      46.7237      46.7237 
  434000    90.450873   -11505.195   -10634.332   -255.01879     102002.7      46.7237      46.7237      46.7237 
  435000    90.894334   -11475.913   -10600.781   -198.05319     102002.7      46.7237      46.7237      46.7237 
  436000    92.242246   -11454.647   -10566.537   -283.25355     102002.7      46.7237      46.7237      46.7237 
  437000    92.865051   -11464.761   -10570.655   -205.82795     102002.7      46.7237      46.7237      46.7237 
  438000    91.155525   -11474.493   -10596.846   -126.39354     102002.7      46.7237      46.7237      46.7237 
  439000    91.535779   -11482.558    -10601.25   -249.33226     102002.7      46.7237      46.7237      46.7237 
  440000     93.16985   -11456.926   -10559.885   -104.46137     102002.7      46.7237      46.7237      46.7237 
  441000    92.763574   -11477.828   -10584.699   -245.52685     102002.7      46.7237      46.7237      46.7237 
  442000    91.982054   -11465.723   -10580.118   -183.01301     102002.7      46.7237      46.7237      46.7237 
  443000    90.019484   -11464.535   -10597.826   -236.10577     102002.7      46.7237      46.7237      46.7237 
  444000    92.298194   -11476.991   -10588.342   -88.639944     102002.7      46.7237      46.7237      46.7237 
  445000    90.639498    -11475.61   -10602.932   -258.66701     102002.7      46.7237      46.7237      46.7237 
  446000    90.072157   -11453.045   -10585.829   -228.40725     102002.7      46.7237      46.7237      46.7237 
  447000    92.724333   -11461.743   -10568.992   -234.07992     102002.7      46.7237      46.7237      46.7237 
  448000    90.062078   -11446.862   -10579.743   -168.81635     102002.7      46.7237      46.7237      46.7237 
  449000     90.92738   -11473.972   -10598.521   -119.83342     102002.7      46.7237      46.7237      46.7237 
  450000    89.523044   -11479.056   -10617.127   -173.78252     102002.7      46.7237      46.7237      46.7237 
  451000    91.770372   -11463.204   -10579.637   -259.99702     102002.7      46.7237      46.7237      46.7237 
  452000    90.025254   -11492.626   -10625.862   -285.58423     102002.7      46.7237      46.7237      46.7237 
  453000    90.586969   -11474.401   -10602.228   -212.52495     102002.7      46.7237      46.7237      46.7237 
  454000     89.32397   -11468.031   -10608.018   -237.94685     102002.7      46.7237      46.7237      46.7237 
  455000    91.488889   -11476.438   -10595.581   -360.59711     102002.7      46.7237      46.7237      46.7237 
  456000    89.558214   -11485.762   -10623.494   -262.11249     102002.7      46.7237      46.7237      46.7237 
  457000    89.660323   -11479.672   -10616.421   -352.35021     102002.7      46.7237      46.7237      46.7237 
  458000    89.513358   -11477.256    -10615.42   -475.71636     102002.7      46.7237      46.7237      46.7237 
  459000    92.440095   -11484.016   -10594.001   -253.26137     102002.7      46.7237      46.7237      46.7237 
  460000    90.768833    -11464.11   -10590.186   -421.55042     102002.7      46.7237      46.7237      46.7237 
  461000    92.038499   -11466.241   -10580.093   -39.673511     102002.7      46.7237      46.7237      46.7237 
  462000    89.538489   -11475.412   -10613.334   -239.71977     102002.7      46.7237      46.7237      46.7237 
  463000    92.147738   -11497.154   -10609.954   -293.95516     102002.7      46.7237      46.7237      46.7237 
  464000    91.517136   -11470.597   -10589.468    -246.2997     102002.7      46.7237      46.7237      46.7237 
  465000    90.313299   -11474.242   -10604.704   -205.21358     102002.7      46.7237      46.7237      46.7237 
  466000    90.314102   -11470.077   -10600.531   -412.07424     102002.7      46.7237      46.7237      46.7237 
  467000     90.47673   -11478.741   -10607.629   -30.473293     102002.7      46.7237      46.7237      46.7237 
  468000    91.134918   -11480.901   -10603.453    -412.0567     102002.7      46.7237      46.7237      46.7237 
  469000    92.024735   -11477.577   -10591.561   -164.63421     102002.7      46.7237      46.7237      46.7237 
  470000    89.115605   -11476.318   -10618.312    -329.5746     102002.7      46.7237      46.7237      46.7237 
  471000    90.427257   -11461.498   -10590.863   -349.87572     102002.7      46.7237      46.7237      46.7237 
  472000    91.188371   -11473.223   -10595.259   -497.90201     102002.7      46.7237      46.7237      46.7237 
  473000    91.250116   -11475.871   -10597.314    -104.3047     102002.7      46.7237      46.7237      46.7237 
  474000    89.730516   -11475.242   -10611.315   -311.16253     102002.7      46.7237      46.7237      46.7237 
  475000    93.377759   -11472.205   -10573.163   -435.02499     102002.7      46.7237      46.7237      46.7237 
  476000    90.941301   -11465.494    -10589.91   -333.82852     102002.7      46.7237      46.7237      46.7237 
  477000    91.143022   -11457.114   -10579.587   -229.59984     102002.7      46.7237      46.7237      46.7237 
  478000    90.467251   -11457.781   -10586.761   -248.05161     102002.7      46.7237      46.7237      46.7237 
  479000    90.503055   -11472.014   -10600.649   -437.87677     102002.7      46.7237      46.7237      46.7237 
  480000    91.917978   -11500.229   -10615.241   -311.01212     102002.7      46.7237      46.7237      46.7237 
  481000    90.048117   -11484.578   -10617.593   -336.36876     102002.7      46.7237      46.7237      46.7237 
  482000    92.409619   -11459.975   -10570.253   -238.03536     102002.7      46.7237      46.7237      46.7237 
  483000     90.99554   -11467.642   -10591.535    -342.2959     102002.7      46.7237      46.7237      46.7237 
  484000    91.812601   -11496.822   -10612.849   -236.63971     102002.7      46.7237      46.7237      46.7237 
  485000    90.501685   -11496.536   -10625.184   -212.18823     102002.7      46.7237      46.7237      46.7237 
  486000    91.601656   -11481.072    -10599.13   -244.94168     102002.7      46.7237      46.7237      46.7237 
  487000       92.737   -11472.616   -10579.743   -352.49042     102002.7      46.7237      46.7237      46.7237 
  488000    90.311903   -11450.827   -10581.303    -492.0413     102002.7      46.7237      46.7237      46.7237 
  489000    88.896472   -11468.292   -10612.395   -587.35897     102002.7      46.7237      46.7237      46.7237 
  490000    90.040905   -11503.925    -10637.01   -229.06716     102002.7      46.7237      46.7237      46.7237 
  491000    91.307082   -11489.298   -10610.192   -371.29351     102002.7      46.7237      46.7237      46.7237 
  492000    89.830592   -11495.988   -10631.098   -418.50164     102002.7      46.7237      46.7237      46.7237 
  493000    92.238616   -11454.739   -10566.664   -313.87959     102002.7      46.7237      46.7237      46.7237 
  494000    91.878461   -11497.942   -10613.335   -214.42982     102002.7      46.7237      46.7237      46.7237 
  495000    90.610691   -11463.415   -10591.013   -502.29507     102002.7      46.7237      46.7237      46.7237 
  496000    93.335754   -11459.372   -10560.734   -318.81531     102002.7      46.7237      46.7237      46.7237 
  497000     91.06418   -11483.151   -10606.383   -502.70513     102002.7      46.7237      46.7237      46.7237 
  498000    90.344438   -11471.475   -10601.637    -528.4548     102002.7      46.7237      46.7237      46.7237 
  499000    93.232869   -11488.077    -10590.43   -234.59607     102002.7      46.7237      46.7237      46.7237 
  500000    91.379254   -11466.789   -10586.988   -393.90885     102002.7      46.7237      46.7237      46.7237 
  500500    89.605677   -11470.014   -10607.289   -357.36281     102002.7      46.7237      46.7237      46.7237 
Loop time of 1866.3 on 16 procs for 500000 steps with 3231 atoms

Performance: 23.147 ns/day, 1.037 hours/ns, 267.909 timesteps/s
99.9% CPU use with 16 MPI tasks x no OpenMP threads

MPI task timing breakdown:
Section |  min time  |  avg time  |  max time  |%varavg| %total
---------------------------------------------------------------
Pair    | 910.4      | 1176.2     | 1445.5     | 399.8 | 63.02
Bond    | 133.68     | 174.86     | 214.72     | 165.0 |  9.37
Neigh   | 14.847     | 14.868     | 14.888     |   0.4 |  0.80
Comm    | 192.04     | 483.37     | 760.57     | 661.2 | 25.90
Output  | 0.021335   | 0.021796   | 0.026406   |   0.8 |  0.00
Modify  | 8.5931     | 10.113     | 11.612     |  30.8 |  0.54
Other   |            | 6.908      |            |       |  0.37

Nlocal:    201.938 ave 224 max 173 min
Histogram: 2 2 1 0 0 0 4 2 3 2
Nghost:    4082.88 ave 4117 max 4059 min
Histogram: 1 3 4 2 1 1 0 1 1 2
Neighs:    11457.4 ave 14973 max 6328 min
Histogram: 2 0 2 0 3 0 1 2 2 4

Total # of neighbors = 183319
Ave neighs/atom = 56.7375
Ave special neighs/atom = 3.56546
Neighbor list builds = 4185
Dangerous builds = 0
Neighbor list info ...
  update every 1 steps, delay 10 steps, check yes
  max neighbors/atom: 2000, page size: 100000
  master list distance cutoff = 16
  ghost atom cutoff = 16
  binsize = 8, bins = 6 6 6
  3 neighbor lists, perpetual/occasional/extra = 3 0 0
  (1) pair buck6d/coul/gauss/dsf, perpetual, skip from (3)
      attributes: half, newton on
      pair build: skip
      stencil: none
      bin: none
  (2) pair lj/cut, perpetual, skip from (3)
      attributes: half, newton on
      pair build: skip
      stencil: none
      bin: none
  (3) neighbor class addition, perpetual
      attributes: half, newton on
      pair build: half/bin/newton
      stencil: half/bin/3d/newton
      bin: standard
Setting up Verlet run ...
  Unit style    : real
  Current step  : 500500
  Time step     : 1
WARNING: Inconsistent image flags (../domain.cpp:786)
Per MPI rank memory allocation (min/avg/max) = 22.66 | 23.15 | 23.44 Mbytes
Step Time TotEng KinEng PotEng E_mol E_pair Temp Pxx Pyy Pzz Pxy Pxz Pyz Cella Cellb Cellc CellAlpha CellBeta CellGamma Volume Press 
  500500       500000   -10607.289    862.72494   -11470.014    4169.8573   -15639.871    89.605677   -443.74557   -359.70114   -268.64172    140.69434   -186.71697    75.107486      46.7237      46.7237      46.7237           90           90           90     102002.7   -357.36281 
  501000       500500   -10599.095    887.85545    -11486.95    4168.2767   -15655.227    92.215821    -170.0398   -386.92951   -172.12133    119.33245    133.33076   -99.108622      46.7237      46.7237      46.7237           90           90           90     102002.7   -243.03021 
  502000       501500   -10615.315    884.32018   -11499.635    4164.4047    -15664.04    91.848636   -609.97958    2.4779535   -255.42413     30.10629   -37.662956    73.239062      46.7237      46.7237      46.7237           90           90           90     102002.7   -287.64192 
  503000       502500   -10601.287    873.03772   -11474.325    4164.7039   -15639.028      90.6768   -409.80304    141.83311   -680.59515    102.20666    21.835614     -238.947      46.7237      46.7237      46.7237           90           90           90     102002.7   -316.18836 
  504000       503500     -10585.3    892.25876   -11477.558    4164.6092   -15642.168    92.673165   -176.34976   -666.37562    -75.27966  -0.81867979    148.66345     142.3293      46.7237      46.7237      46.7237           90           90           90     102002.7   -306.00168 
  505000       504500   -10598.674    865.11143   -11463.785     4185.177   -15648.962    89.853547   -351.00993     150.6184   -714.24497    -125.5506    -12.03379     129.5136      46.7237      46.7237      46.7237           90           90           90     102002.7   -304.87883 
  506000       505500   -10615.427    867.80545   -11483.232    4162.4833   -15645.716    90.133358   -232.81448   -630.94974   -666.29628   -167.88238    71.656254    162.58226      46.7237      46.7237      46.7237           90           90           90     102002.7   -510.02016 
  507000       506500    -10597.97    878.87625   -11476.846    4150.9109   -15627.757     91.28321   -192.96645   -581.53569   -81.720006    -116.9791    125.38752    98.662968      46.7237      46.7237      46.7237           90           90           90     102002.7   -285.40738 
  508000       507500   -10600.259     882.0555   -11482.314     4175.185   -15657.499    91.613419   -399.61882   -175.38111   -984.18029   -151.03028   -153.17398    125.71485      46.7237      46.7237      46.7237           90           90           90     102002.7   -519.72674 
  509000       508500   -10591.187    881.26589   -11472.453    4184.8373   -15657.291    91.531406    -396.2067   -883.30601   -501.72867   -157.87744   -122.97122    65.855598      46.7237      46.7237      46.7237           90           90           90     102002.7   -593.74713 
  510000       509500   -10595.691    879.22022   -11474.911    4181.9176   -15656.829    91.318936    41.848768   -149.52823    -488.6069    19.016879   -19.900642    73.334187      46.7237      46.7237      46.7237           90           90           90     102002.7   -198.76212 
  511000       510500   -10631.641    842.51586   -11474.157    4163.1498   -15637.306    87.506691   -587.13717   -463.43538   -387.16024    -179.3072   -86.517452    177.55709      46.7237      46.7237      46.7237           90           90           90     102002.7   -479.24426 
  512000       511500   -10582.233    871.10495   -11453.338    4182.5657   -15635.903    90.476055   -494.41412   -593.31132   -362.58905   -304.98747    20.524368   -5.0360994      46.7237      46.7237      46.7237           90           90           90     102002.7   -483.43816 
  513000       512500    -10598.91    878.88841   -11477.799    4172.9478   -15650.746    91.284473   -214.13723   -245.56549   -644.73714   -304.90913    137.17701    86.795397      46.7237      46.7237      46.7237           90           90           90     102002.7   -368.14662 
  514000       513500   -10562.692    888.72521   -11451.418    4174.0083   -15625.426    92.306158    80.856578    -508.7834    27.937227   -87.307274   -237.15562   -69.040176      46.7237      46.7237      46.7237           90           90           90     102002.7   -133.32987 
  515000       514500   -10590.278    872.32197     -11462.6    4170.4063   -15633.006     90.60246   -181.58672    92.789652   -92.221327   -10.936226   -170.30806   -109.34243      46.7237      46.7237      46.7237           90           90           90     102002.7   -60.339467 
  516000       515500   -10594.827    892.29364   -11487.121    4154.5688    -15641.69    92.676787   -91.987849   -451.69843   -123.96367   -134.46859   -158.91985    187.57941      46.7237      46.7237      46.7237           90           90           90     102002.7   -222.54999 
  517000       516500   -10611.143    863.13098   -11474.274    4173.8758    -15648.15     89.64785   -251.32317   -273.10385   -314.85114   -170.86753    9.0105358    29.605441      46.7237      46.7237      46.7237           90           90           90     102002.7   -279.75939 
  518000       517500    -10624.67    871.57037    -11496.24    4150.1296    -15646.37    90.524395   -225.80925   -258.12003   -88.168192    62.161568    243.32884   -146.64246      46.7237      46.7237      46.7237           90           90           90     102002.7   -190.69916 
  519000       518500   -10594.894    883.50252   -11478.397    4159.4901   -15637.887    91.763711   -440.71918   -117.09993   -211.21701   -162.06625   -7.3927223    2.2909796      46.7237      46.7237      46.7237           90           90           90     102002.7   -256.34537 
  520000       519500   -10572.039    878.84605   -11450.885    4197.7571   -15648.642    91.280074   -131.69836    86.826613    8.5754576    236.61412   -7.7185544   -81.133061      46.7237      46.7237      46.7237           90           90           90     102002.7   -12.098763 
  521000       520500   -10587.021    896.77604   -11483.797    4174.1692   -15657.966    93.142346     -345.502   -389.35719   -750.15198   -36.425875    69.856864   -63.883208      46.7237      46.7237      46.7237           90           90           90     102002.7   -495.00372 
  522000       521500   -10623.919    865.78338   -11489.702    4166.7742   -15656.476    89.923338   -850.73191   -428.94624   -165.24943    224.16034    75.156345    120.57295      46.7237      46.7237      46.7237           90           90           90     102002.7   -481.64252 
  523000       522500   -10603.429    871.07303   -11474.502    4178.3602   -15652.863     90.47274    -89.07412    -281.1889   -345.14205   -15.513788    193.88907   -107.91393      46.7237      46.7237      46.7237           90           90           90     102002.7   -238.46836 
  524000       523500   -10598.153     857.9963   -11456.149    4177.0163   -15633.165    89.114545    75.664234   -223.03763   -491.21392   -30.390337   -127.28397   -148.24939      46.7237      46.7237      46.7237           90           90           90     102002.7   -212.86244 
  525000       524500   -10565.858    895.69356   -11461.551    4196.4772   -15658.029    93.029916   -371.03007   -167.44944   -557.41561    77.140871    14.040394   -11.123126      46.7237      46.7237      46.7237           90           90           90     102002.7   -365.29837 
  526000       525500   -10592.638    874.70702   -11467.345    4163.5142   -15630.859    90.850179   -383.82735   -320.25243   -73.445087   -1.5165658    165.05578       91.135      46.7237      46.7237      46.7237           90           90           90     102002.7   -259.17496 
  527000       526500    -10609.98    874.42117   -11484.401    4169.9135   -15654.315     90.82049   -589.39924   -452.70302    -683.2179    102.07147   -57.167794    39.624192      46.7237      46.7237      46.7237           90           90           90     102002.7   -575.10672 
  528000       527500   -10617.428    860.14315   -11477.571    4165.7544   -15643.325    89.337523   -88.829615   -136.47597   -12.025727    1.2827165   -48.055322   -215.96184      46.7237      46.7237      46.7237           90           90           90     102002.7   -79.110437 
  529000       528500   -10574.452    885.94512   -11460.397    4188.2338   -15648.631    92.017408   -91.397328   -480.42004    69.705949    132.28724   -59.090363   -142.91356      46.7237      46.7237      46.7237           90           90           90     102002.7   -167.37047 
  530000       529500   -10596.131     878.7352   -11474.866     4184.802   -15659.668     91.26856   -67.833684   -205.90577   -168.79782   -21.313045   -168.82695   -88.158373      46.7237      46.7237      46.7237           90           90           90     102002.7   -147.51242 
  531000       530500   -10602.394     885.3556   -11487.749    4167.0073   -15654.756    91.956179    -269.3019   -344.52827   -197.77081    -277.4413    246.60254   -10.473118      46.7237      46.7237      46.7237           90           90           90     102002.7   -270.53366 
  532000       531500    -10562.45     892.6949   -11455.145     4191.876   -15647.021    92.718465    -131.9916   -363.19157   -551.34467   0.82486632   -56.626305   -55.847814      46.7237      46.7237      46.7237           90           90           90     102002.7   -348.84261 
  533000       532500   -10612.678    864.81944   -11477.497    4167.9963   -15645.494     89.82322   -566.98551   -465.73755    107.47222    18.341533   -8.1695458   -39.669426      46.7237      46.7237      46.7237           90           90           90     102002.7   -308.41694 
  534000       533500   -10610.872    866.61026   -11477.482     4159.781   -15637.263    90.009221   -393.01348   -578.30088   -358.79804   -12.668641    55.589717    21.679574      46.7237      46.7237      46.7237           90           90           90     102002.7    -443.3708 
  535000       534500   -10580.812    870.99748   -11451.809    4188.0848   -15639.894    90.464893   -229.29304   -449.06126   -112.76648    152.37218    245.54557   -193.95206      46.7237      46.7237      46.7237           90           90           90     102002.7   -263.70693 
  536000       535500   -10591.168    875.26778   -11466.436     4179.675   -15646.111    90.908422   -453.28617   -579.34159   -785.29622    10.491066    207.94466   -131.94487      46.7237      46.7237      46.7237           90           90           90     102002.7   -605.97466 
  537000       536500    -10571.84    891.96755   -11463.808     4175.351   -15639.159    92.642919   -251.90089   -471.48731    195.93009   -170.02037    6.1164664   -220.89612      46.7237      46.7237      46.7237           90           90           90     102002.7   -175.81937 
  538000       537500   -10605.517     860.9196   -11466.436    4172.7168   -15639.153    89.418169   -555.33735   -192.33884   -458.05537    96.511858   -104.98765    93.778958      46.7237      46.7237      46.7237           90           90           90     102002.7   -401.91052 
  539000       538500   -10564.891    904.23368   -11469.125    4174.8548   -15643.979    93.916923   -601.29681   -491.40374   -115.71271   -285.78089   -11.537898   -43.484465      46.7237      46.7237      46.7237           90           90           90     102002.7   -402.80442 
  540000       539500   -10601.841     871.8675   -11473.709     4188.287   -15661.996    90.555257   -540.19665   -639.29401   -334.70925   -209.02353    124.36587    76.978321      46.7237      46.7237      46.7237           90           90           90     102002.7    -504.7333 
  541000       540500   -10592.056     873.7728   -11465.829    4185.8738   -15651.702    90.753147    -659.6165   -417.50087   -291.51271   -180.97392   -146.80354   -34.659807      46.7237      46.7237      46.7237           90           90           90     102002.7   -456.21002 
  542000       541500   -10599.471    876.43525   -11475.906    4177.8022   -15653.708    91.029679   -307.11699   -390.15498   -509.63538    59.322808   -322.75781    101.81838      46.7237      46.7237      46.7237           90           90           90     102002.7   -402.30245 
  543000       542500   -10631.184    846.78161   -11477.966    4164.2232   -15642.189    87.949746   -343.62456   -399.76249   -255.20466   -125.68703    20.309731    20.611634      46.7237      46.7237      46.7237           90           90           90     102002.7    -332.8639 
  544000       543500   -10603.112    848.62473   -11451.737    4203.7131    -15655.45     88.14118    -422.4781   -244.67666   -658.75026    -108.6192    266.22851    230.86186      46.7237      46.7237      46.7237           90           90           90     102002.7   -441.96834 
  545000       544500   -10607.759    889.11117    -11496.87    4159.6669   -15656.537    92.346246   -295.51378   -629.23961   -253.95482   -45.642319    26.778466   -30.241363      46.7237      46.7237      46.7237           90           90           90     102002.7   -392.90274 
  546000       545500   -10578.469    881.65431   -11460.123    4176.2188   -15636.342    91.571749   -607.54793    -582.9461   -410.75818   -15.837872    -150.0182   -31.826757      46.7237      46.7237      46.7237           90           90           90     102002.7   -533.75073 
  547000       546500   -10564.321    902.45868    -11466.78    4180.1704    -15646.95    93.732565   -162.61328   -87.710973    -628.6255    288.63276   -13.435506    269.29905      46.7237      46.7237      46.7237           90           90           90     102002.7   -292.98325 
  548000       547500   -10573.106    889.01251   -11462.118    4171.3149   -15633.433    92.335998    100.15288   -186.86745    -317.9532   -50.182656   -130.11363    90.906852      46.7237      46.7237      46.7237           90           90           90     102002.7   -134.88926 
  549000       548500   -10610.275    858.39216   -11468.667    4177.5432    -15646.21     89.15566   -337.38092    174.40599   -379.53265    -21.76564    229.81683    6.8011953      46.7237      46.7237      46.7237           90           90           90     102002.7   -180.83586 
  550000       549500   -10595.397    881.52765   -11476.924    4169.9753   -15646.899    91.558594   -180.43762    154.78755   -475.89639     55.93391    15.802362   -44.877362      46.7237      46.7237      46.7237           90           90           90     102002.7   -167.18215 
  551000       550500   -10620.897    854.17826   -11475.075    4194.4476   -15669.523    88.717989   -768.91846   -629.29896   -227.88118    -186.8714   -207.96474    107.65655      46.7237      46.7237      46.7237           90           90           90     102002.7   -542.03287 
  552000       551500   -10592.323    892.78348   -11485.107    4165.6185   -15650.725    92.727665   -617.07171   -188.06418   -203.75208   -7.0319602   -86.692516    113.77285      46.7237      46.7237      46.7237           90           90           90     102002.7   -336.29599 
  553000       552500   -10572.297    890.16171   -11462.459    4183.3223   -15645.781    92.455359   -439.11023   -236.38989   -419.01274    127.80788    31.406302    2.0288583      46.7237      46.7237      46.7237           90           90           90     102002.7   -364.83762 
  554000       553500   -10610.151    872.83432   -11482.985    4156.9839   -15639.969    90.655674   -525.88565   -518.20973   -263.57734    91.982542    126.12161   -77.279708      46.7237      46.7237      46.7237           90           90           90     102002.7   -435.89091 
  555000       554500   -10594.784    865.46678   -11460.251    4179.8565   -15640.107    89.890455   -184.65237   -506.25054   -390.05775   -277.64002    81.555754   -19.705261      46.7237      46.7237      46.7237           90           90           90     102002.7   -360.32022 
[...]
  936000       935500   -10583.951    876.69549   -11460.646    4176.0571   -15636.703    91.056709   -678.02255   -282.85556   -10.467479   -24.488924   -113.63567    108.38282      46.7237      46.7237      46.7237           90           90           90     102002.7   -323.78186 
  937000       936500    -10606.61    853.24856   -11459.858     4161.971   -15621.829    88.621428   -188.67052   -203.14083   -159.78698   -135.16209   -163.82906   -58.942848      46.7237      46.7237      46.7237           90           90           90     102002.7   -183.86611 
  938000       937500   -10579.864    882.69602    -11462.56    4151.2216   -15613.781    91.679945   -283.66731   -72.599671   -140.61369   -224.68475   -266.23906    64.849129      46.7237      46.7237      46.7237           90           90           90     102002.7   -165.62689 
  939000       938500   -10588.181    883.32584   -11471.507    4157.5117   -15629.018     91.74536   -232.51321   -202.66579    321.30446   -70.390863    18.366498    27.275234      46.7237      46.7237      46.7237           90           90           90     102002.7    -37.95818 
  940000       939500   -10589.783    883.77004   -11473.553    4160.8463     -15634.4    91.791497   -157.35919   -159.30341   -63.223092   -36.981323   -26.254459   -229.91995      46.7237      46.7237      46.7237           90           90           90     102002.7   -126.62856 
  941000       940500   -10565.584    907.65569    -11473.24    4165.7884   -15639.028    94.272345   -202.23608   -598.45089    -447.1388    21.947372   -48.924771    159.06959      46.7237      46.7237      46.7237           90           90           90     102002.7   -415.94192 
  942000       941500   -10609.244     870.5626   -11479.807    4150.0359   -15629.843    90.419725     65.70636   -880.68178    -188.1206    268.32173   -25.238313   -14.484344      46.7237      46.7237      46.7237           90           90           90     102002.7   -334.36534 
  943000       942500   -10608.374    858.30688   -11466.681    4176.8631   -15643.544    89.146803   -607.50909   -783.28108   -408.50085   -64.335097   -152.65659    184.16509      46.7237      46.7237      46.7237           90           90           90     102002.7   -599.76368 
  944000       943500   -10622.128      852.713   -11474.841    4170.9308   -15645.771    88.565802   -521.72473   -241.16424    80.437816   -102.05607   -118.41541    78.350101      46.7237      46.7237      46.7237           90           90           90     102002.7   -227.48372 
  945000       944500   -10603.116    869.73396    -11472.85    4158.1073   -15630.958    90.333659    -435.4457   -817.63954   -658.61214    131.73989   -139.07493   -387.80902      46.7237      46.7237      46.7237           90           90           90     102002.7   -637.23246 
  946000       945500   -10584.463    875.97605   -11460.439    4169.4483   -15629.887    90.981985   -50.811334    -205.7432   -262.85682   -6.7939781    18.404105    71.037979      46.7237      46.7237      46.7237           90           90           90     102002.7   -173.13712 
  947000       946500   -10569.641    879.09192   -11448.733    4175.2892   -15624.022     91.30561   -505.83919   -665.61566   -172.62914    21.811295     24.52672   -294.82485      46.7237      46.7237      46.7237           90           90           90     102002.7     -448.028 
  948000       947500   -10608.561    863.85307   -11472.414    4161.0082   -15633.422    89.722849   -355.63309   -735.11775   -217.08381    80.127028       80.582   -71.293262      46.7237      46.7237      46.7237           90           90           90     102002.7   -435.94489 
  949000       948500   -10568.281    892.90795   -11461.189    4172.1343   -15633.323    92.740592    -56.89007   -86.876446   -217.62152   -53.370249    105.81527      113.997      46.7237      46.7237      46.7237           90           90           90     102002.7   -120.46268 
  950000       949500   -10564.694    896.53361   -11461.228    4168.7306   -15629.958    93.117166    27.937839   -956.06066   -396.34958    85.131656    27.577738   -70.636758      46.7237      46.7237      46.7237           90           90           90     102002.7    -441.4908 
  951000       950500     -10589.8    875.64678   -11465.447    4172.1038   -15637.551    90.947786   -245.79127   -634.10282   -83.164836    157.77966   -68.871778   -49.218569      46.7237      46.7237      46.7237           90           90           90     102002.7   -321.01964 
  952000       951500    -10602.15     863.1319   -11465.281    4169.5757   -15634.857    89.647946   -248.62515   -443.96818    18.586729    191.22386    113.31454    38.557031      46.7237      46.7237      46.7237           90           90           90     102002.7   -224.66887 
  953000       952500   -10562.983    887.28096   -11450.264    4185.0817   -15635.346    92.156154   -338.27285   -240.10857    263.26578    108.33343    85.865412   -1.2263962      46.7237      46.7237      46.7237           90           90           90     102002.7   -105.03855 
  954000       953500   -10602.765     861.8805   -11464.645     4172.709   -15637.354    89.517971   -261.89815   -100.85083    23.212547   -135.99875    111.84558   -181.66727      46.7237      46.7237      46.7237           90           90           90     102002.7   -113.17881 
  955000       954500   -10568.668    880.70669   -11449.375    4188.0286   -15637.403    91.473326   -863.95558   -399.91558   -291.64087    36.905225   -229.42194   -5.4036923      46.7237      46.7237      46.7237           90           90           90     102002.7   -518.50401 
  956000       955500   -10597.042    876.24661   -11473.288    4182.7874   -15656.076    91.010086   -516.77004   -744.62152   -254.50351    261.64548   -96.423074   -145.23506      46.7237      46.7237      46.7237           90           90           90     102002.7   -505.29835 
  957000       956500   -10576.668    887.60756   -11464.276    4166.2725   -15630.548    92.190075    161.99482   -287.74759   -137.86968   -89.165458   -24.429291   -34.946544      46.7237      46.7237      46.7237           90           90           90     102002.7    -87.87415 
  958000       957500   -10633.287    850.77977   -11484.067    4164.8919   -15648.959     88.36501    71.079719    -280.9054   -279.12035   -134.50837   -240.24773   -34.826337      46.7237      46.7237      46.7237           90           90           90     102002.7   -162.98201 
  959000       958500   -10617.384     854.9092   -11472.293    4159.2271    -15631.52    88.793907   -662.78498   -279.97191   -134.50981   -26.656458    249.07965   -302.48349      46.7237      46.7237      46.7237           90           90           90     102002.7    -359.0889 
  960000       959500   -10588.434    874.94961   -11463.384     4174.768   -15638.152    90.875376   -337.48361    107.72733   -564.36075    64.178722   -76.307837    43.467942      46.7237      46.7237      46.7237           90           90           90     102002.7   -264.70568 
  961000       960500   -10602.223    872.85535   -11475.079    4176.4349   -15651.514    90.657858   -509.38506   -386.78358   -408.34235    72.227282   -237.39974   -57.470896      46.7237      46.7237      46.7237           90           90           90     102002.7     -434.837 
  962000       961500   -10585.391    891.99001   -11477.381    4177.8532   -15655.234    92.645251   -640.42802   -233.86625   -272.49329    29.883028   -71.697893    -72.28622      46.7237      46.7237      46.7237           90           90           90     102002.7   -382.26252 
  963000       962500   -10613.677     864.8224   -11478.499    4169.7999   -15648.299    89.823528   -272.92807   -317.25282   -147.88061   -148.33427    103.30514   -96.858112      46.7237      46.7237      46.7237           90           90           90     102002.7    -246.0205 
  964000       963500   -10612.202    894.07118   -11506.273    4146.3729   -15652.646    92.861409   -232.99467   -656.17763   -210.80253    -51.95318    245.63991   -99.336904      46.7237      46.7237      46.7237           90           90           90     102002.7   -366.65828 
  965000       964500   -10582.256    878.69755   -11460.954    4174.1378   -15635.092     91.26465   -227.05418   -276.34736   -166.22564   -94.630449   -50.769338   -68.891897      46.7237      46.7237      46.7237           90           90           90     102002.7   -223.20906 
  966000       965500   -10581.321    863.06304   -11444.384    4175.3517   -15619.736    89.640794   -420.56134    -638.8933   -208.65131   -195.88859   -116.17646   -261.19732      46.7237      46.7237      46.7237           90           90           90     102002.7   -422.70198 
  967000       966500   -10606.112    870.82725   -11476.939    4166.6208    -15643.56    90.447213   -405.25341    137.78499   -725.44077    101.03927    35.657832   -140.48199      46.7237      46.7237      46.7237           90           90           90     102002.7   -330.96973 
  968000       967500    -10603.95    865.62403   -11469.574    4169.2594   -15638.833    89.906788    -543.4933   -174.18064   -334.81863   -56.630001   -26.278855    -58.07405      46.7237      46.7237      46.7237           90           90           90     102002.7   -350.83086 
  969000       968500   -10612.715    857.98344   -11470.699    4160.0925   -15630.791    89.113208   -589.66081   -316.32826   -552.34994    208.33741   -238.11553     151.4479      46.7237      46.7237      46.7237           90           90           90     102002.7   -486.11301 
  970000       969500    -10599.15    869.16161   -11468.312    4154.6871   -15622.999    90.274213   -642.83261   -373.15989   -280.61948    210.83891    54.876703   -26.988038      46.7237      46.7237      46.7237           90           90           90     102002.7   -432.20399 
  971000       970500   -10620.442     862.5038   -11482.946    4163.8429   -15646.789     89.58271   -235.99416   -706.86673   -172.18757   -5.4446933   -116.71203   -1.6324189      46.7237      46.7237      46.7237           90           90           90     102002.7   -371.68282 
  972000       971500    -10606.11    869.02098   -11475.131    4157.1688   -15632.299    90.259606   -436.34538   -450.61764   -282.46273     43.30341    62.264248    25.823421      46.7237      46.7237      46.7237           90           90           90     102002.7   -389.80858 
  973000       972500   -10598.925    858.89271   -11457.818     4178.037   -15635.855    89.207648   -573.08497   -546.23574   -216.09994    314.69509    156.39647     118.6622      46.7237      46.7237      46.7237           90           90           90     102002.7   -445.14021 
  974000       973500   -10596.833    864.51334   -11461.347    4170.6053   -15631.952    89.791427   -740.29233    55.368025   -459.83416    9.0100517   -85.422489    28.460936      46.7237      46.7237      46.7237           90           90           90     102002.7   -381.58615 
  975000       974500   -10595.208    875.11388   -11470.322    4171.6445   -15641.967    90.892437   -262.52656   -471.56851   -302.40295    73.062658   -88.725927   -37.083031      46.7237      46.7237      46.7237           90           90           90     102002.7   -345.49934 
  976000       975500   -10607.943    871.96062   -11479.904    4164.7747   -15644.679    90.564928    -64.79692   -355.75014   -89.167659    163.74948   -43.940335   -30.882609      46.7237      46.7237      46.7237           90           90           90     102002.7   -169.90491 
  977000       976500   -10561.162    900.61825   -11461.781    4185.7819   -15647.563    93.541411   -700.02445   -397.42028   -113.75453    28.327153     157.6981    284.89405      46.7237      46.7237      46.7237           90           90           90     102002.7   -403.73309 
  978000       977500   -10636.202    845.84092   -11482.043    4164.5646   -15646.608    87.852043    37.492014   -79.624593   -595.80855    178.41335   -59.736268   -44.512422      46.7237      46.7237      46.7237           90           90           90     102002.7   -212.64704 
  979000       978500    -10579.17    901.88063    -11481.05    4187.3948   -15668.445    93.672526   -53.857436   -123.18521   -349.80978   -145.38489   -200.90065  0.012072528      46.7237      46.7237      46.7237           90           90           90     102002.7   -175.61748 
  980000       979500   -10599.721    863.87775   -11463.598    4195.8759   -15659.474    89.725413   -440.15163   -268.54318   -619.44824     47.53195   -186.68536   -35.207071      46.7237      46.7237      46.7237           90           90           90     102002.7   -442.71435 
  981000       980500   -10555.566    900.39381    -11455.96    4180.8801    -15636.84    93.518101    -141.4175   -693.02824   -269.82442    227.73976    145.13755   -38.524161      46.7237      46.7237      46.7237           90           90           90     102002.7   -368.09005 
  982000       981500    -10599.15    874.68903   -11473.839    4163.3006    -15637.14     90.84831   -365.91044   -27.384851   -291.43934    -18.38165   -12.092484    84.436859      46.7237      46.7237      46.7237           90           90           90     102002.7   -228.24488 
  983000       982500   -10582.435    891.82836   -11474.263    4166.3956   -15640.659    92.628462    -472.8041   -754.51296   -238.99909    67.861428   -127.89841    84.909279      46.7237      46.7237      46.7237           90           90           90     102002.7   -488.77205 
  984000       983500   -10601.086    893.54354   -11494.629    4162.0951   -15656.724    92.806607   -602.54828   -590.99503   -307.40365    179.09519   -153.66776   -83.292928      46.7237      46.7237      46.7237           90           90           90     102002.7   -500.31565 
  985000       984500   -10618.473    870.08883   -11488.561    4167.2567   -15655.818    90.370518   -792.40408   -365.82015    -658.3517   -217.83077   -66.346236   -195.27922      46.7237      46.7237      46.7237           90           90           90     102002.7   -605.52531 
  986000       985500   -10588.622    872.82581   -11461.447     4171.927   -15633.375     90.65479   -452.39165   -597.91629   -535.08775    -145.2676    -81.98646   -285.07828      46.7237      46.7237      46.7237           90           90           90     102002.7   -528.46523 
  987000       986500   -10588.057    875.19015   -11463.247    4162.2889   -15625.536    90.900358   -482.55648    -152.4586   -192.30658    115.61872    21.722675    43.748145      46.7237      46.7237      46.7237           90           90           90     102002.7   -275.77389 
  988000       987500   -10640.049    855.53485   -11495.584    4156.5572   -15652.141     88.85889   -446.29028   -721.04256   -320.49075   -176.89487   -174.63958   -172.68153      46.7237      46.7237      46.7237           90           90           90     102002.7    -495.9412 
  989000       988500   -10576.746     893.7205   -11470.467    4159.3275   -15629.794    92.824987   -655.65389    -690.3493   -375.02706    7.3965475   -29.537467    22.505597      46.7237      46.7237      46.7237           90           90           90     102002.7   -573.67675 
  990000       989500   -10579.701    886.10787   -11465.809    4170.2093   -15636.018    92.034312   -380.46078   -56.601267   -669.60459    54.577328   -27.606903   -30.897143      46.7237      46.7237      46.7237           90           90           90     102002.7   -368.88888 
  991000       990500   -10580.117    885.33905   -11465.456     4183.856   -15649.312     91.95446   -715.94389   -468.44279   -338.85416   -5.8306598   -113.26455     250.5389      46.7237      46.7237      46.7237           90           90           90     102002.7   -507.74694 
  992000       991500   -10636.318    831.00946   -11467.327    4167.8184   -15635.145    86.311595   -345.99531   -196.28337   -305.70049   -73.030687    128.46147    60.193328      46.7237      46.7237      46.7237           90           90           90     102002.7   -282.65972 
  993000       992500   -10602.437    871.93812   -11474.375    4176.5573   -15650.933    90.562591   -390.76035   -251.00026    43.833925   -229.25689    39.854853   -203.43685      46.7237      46.7237      46.7237           90           90           90     102002.7    -199.3089 
  994000       993500   -10594.753      878.723   -11473.476    4185.0772   -15658.553    91.267293   -296.42313   -358.56992   -374.97465   -23.544028    3.5399568     107.1357      46.7237      46.7237      46.7237           90           90           90     102002.7   -343.32257 
  995000       994500   -10589.188    876.97702   -11466.165    4177.2855    -15643.45     91.08595   -169.14018   -624.00866   -204.83482   -87.815426    221.04444   -91.220858      46.7237      46.7237      46.7237           90           90           90     102002.7   -332.66122 
  996000       995500   -10614.976    865.83401    -11480.81    4168.2896   -15649.099    89.928596   -297.64098   -320.67849   -425.62893    30.200294   -100.50601    208.11766      46.7237      46.7237      46.7237           90           90           90     102002.7    -347.9828 
  997000       996500   -10591.784    882.59878   -11474.382    4173.1306   -15647.513    91.669845    -713.7359   -435.03871   -512.18964   -68.915641   -75.095915    142.36811      46.7237      46.7237      46.7237           90           90           90     102002.7   -553.65475 
  998000       997500   -10611.244    883.05719   -11494.301    4152.2011   -15646.503    91.717457   -633.53233   -9.0892471    2.9716912    186.57363    148.56848   -66.616159      46.7237      46.7237      46.7237           90           90           90     102002.7   -213.21663 
  999000       998500   -10591.927    858.99237   -11450.919    4190.6522   -15641.571       89.218   -550.65395   -782.95509    223.45228   -129.05955    135.90084   -111.86458      46.7237      46.7237      46.7237           90           90           90     102002.7   -370.05225 
 1000000       999500   -10589.591    873.20065   -11462.791    4155.7739   -15618.565    90.693722    -750.7599   -365.87635   -424.95532   -126.59852    36.999152   -111.32372      46.7237      46.7237      46.7237           90           90           90     102002.7   -513.86386 
 1000500      1000000   -10587.524    884.37048   -11471.894    4152.7478   -15624.642    91.853861   -250.61676   -335.90879    156.31122   -38.188626    182.39922   -121.43507      46.7237      46.7237      46.7237           90           90           90     102002.7   -143.40478 
Loop time of 2244.56 on 16 procs for 500000 steps with 3231 atoms

Performance: 19.247 ns/day, 1.247 hours/ns, 222.761 timesteps/s
99.9% CPU use with 16 MPI tasks x no OpenMP threads

MPI task timing breakdown:
Section |  min time  |  avg time  |  max time  |%varavg| %total
---------------------------------------------------------------
Pair    | 1145.1     | 1488.7     | 1820       | 439.4 | 66.32
Bond    | 144.75     | 184.18     | 214.15     | 152.9 |  8.21
Neigh   | 14.723     | 14.746     | 14.768     |   0.4 |  0.66
Comm    | 164.08     | 525.31     | 889.59     | 779.1 | 23.40
Output  | 0.13296    | 0.13905    | 0.13954    |   0.4 |  0.01
Modify  | 22.963     | 24.498     | 25.248     |  16.7 |  1.09
Other   |            | 7.009      |            |       |  0.31

Nlocal:    201.938 ave 234 max 180 min
Histogram: 4 1 4 0 0 1 3 1 1 1
Nghost:    4069.88 ave 4104 max 4031 min
Histogram: 2 1 0 1 3 3 0 4 1 1
Neighs:    11460.8 ave 14630 max 9450 min
Histogram: 2 2 2 3 2 2 2 0 0 1

Total # of neighbors = 183372
Ave neighs/atom = 56.7539
Ave special neighs/atom = 3.56546
Neighbor list builds = 4186
Dangerous builds = 0
Total wall time: 1:08:36
