LAMMPS (30 Mar 2018)
Reading data file ...
  orthogonal box = (0 0 0) to (46.7237 46.7237 46.7237)
  2 by 2 by 4 MPI processor grid
  reading atoms ...
  1738 atoms
  scanning bonds ...
  5 = max bonds/atom
  scanning angles ...
  10 = max angles/atom
  scanning dihedrals ...
  32 = max dihedrals/atom
  scanning impropers ...
  3 = max impropers/atom
  reading bonds ...
  2064 bonds
  reading angles ...
  3696 angles
  reading dihedrals ...
  6240 dihedrals
  reading impropers ...
  1008 impropers
Finding 1-2 1-3 1-4 neighbors ...
  special bond factors lj:   0          0          0         
  special bond factors coul: 0          0          0         
  5 = max # of 1-2 neighbors
  8 = max # of 1-3 neighbors
  20 = max # of 1-4 neighbors
  19 = max # of special neighbors
Finding 1-2 1-3 1-4 neighbors ...
  special bond factors lj:   0          0          1         
  special bond factors coul: 1          1          1         
  5 = max # of 1-2 neighbors
  8 = max # of 1-3 neighbors
  19 = max # of special neighbors
WARNING: Using 'neigh_modify every 1 delay 0 check yes' setting during minimization (../min.cpp:168)
Neighbor list info ...
  update every 1 steps, delay 0 steps, check yes
  max neighbors/atom: 2000, page size: 100000
  master list distance cutoff = 16
  ghost atom cutoff = 16
  binsize = 8, bins = 6 6 6
  3 neighbor lists, perpetual/occasional/extra = 3 0 0
  (1) pair buck6d/coul/gauss/dsf, perpetual, skip from (3)
      attributes: half, newton on
      pair build: skip
      stencil: none
      bin: none
  (2) pair lj/cut, perpetual, skip from (3)
      attributes: half, newton on
      pair build: skip
      stencil: none
      bin: none
  (3) neighbor class addition, perpetual
      attributes: half, newton on
      pair build: half/bin/newton
      stencil: half/bin/3d/newton
      bin: standard
Setting up cg style minimization ...
  Unit style    : real
  Current step  : 0
WARNING: Inconsistent image flags (../domain.cpp:786)
Per MPI rank memory allocation (min/avg/max) = 22.89 | 23.35 | 23.79 Mbytes
Step Temp E_pair E_mol TotEng Press 
       0            0   -11538.978    6482.8914   -5056.0863    6277.1469 
     503            0   -11571.018    3741.2471    -7829.771   -520.80665 
Loop time of 2.69505 on 16 procs for 503 steps with 1738 atoms

99.8% CPU use with 16 MPI tasks x no OpenMP threads

Minimization stats:
  Stopping criterion = max force evaluations
  Energy initial, next-to-last, final = 
        -5056.08634297     -7829.75257029     -7829.77102952
  Force two-norm initial, final = 2576.96 6.36719
  Force max component initial, final = 151.966 1.05691
  Final line search alpha, max atom move = 0.0071424 0.00754886
  Iterations, force evaluations = 503 1000

MPI task timing breakdown:
Section |  min time  |  avg time  |  max time  |%varavg| %total
---------------------------------------------------------------
Pair    | 1.2239     | 1.5704     | 1.9855     |  17.1 | 58.27
Bond    | 0.29913    | 0.36162    | 0.41644    |   5.7 | 13.42
Neigh   | 0.01544    | 0.015476   | 0.015516   |   0.0 |  0.57
Comm    | 0.27687    | 0.70832    | 1.0276     |  24.8 | 26.28
Output  | 0          | 0          | 0          |   0.0 |  0.00
Modify  | 0          | 0          | 0          |   0.0 |  0.00
Other   |            | 0.03926    |            |       |  1.46

Nlocal:    108.625 ave 124 max 91 min
Histogram: 1 0 2 2 1 4 2 1 2 1
Nghost:    2192.5 ave 2209 max 2178 min
Histogram: 2 1 1 1 5 1 2 2 0 1
Neighs:    11443.2 ave 15670 max 7570 min
Histogram: 1 2 4 1 0 1 2 3 1 1

Total # of neighbors = 183091
Ave neighs/atom = 105.346
Ave special neighs/atom = 6.62831
Neighbor list builds = 13
Dangerous builds = 0
Neighbor list info ...
  update every 1 steps, delay 10 steps, check yes
  max neighbors/atom: 2000, page size: 100000
  master list distance cutoff = 16
  ghost atom cutoff = 16
  binsize = 8, bins = 6 6 6
  3 neighbor lists, perpetual/occasional/extra = 3 0 0
  (1) pair buck6d/coul/gauss/dsf, perpetual, skip from (3)
      attributes: half, newton on
      pair build: skip
      stencil: none
      bin: none
  (2) pair lj/cut, perpetual, skip from (3)
      attributes: half, newton on
      pair build: skip
      stencil: none
      bin: none
  (3) neighbor class addition, perpetual
      attributes: half, newton on
      pair build: half/bin/newton
      stencil: half/bin/3d/newton
      bin: standard
Setting up Verlet run ...
  Unit style    : real
  Current step  : 503
  Time step     : 1
WARNING: Inconsistent image flags (../domain.cpp:786)
Per MPI rank memory allocation (min/avg/max) = 22.54 | 22.65 | 23.01 Mbytes
Step Temp PotEng TotEng Press Volume Lx Ly Lz 
     503          130    -7829.771   -7156.6743   -219.15991     102002.7      46.7237      46.7237      46.7237 
    1000    117.34441   -7244.6961   -6637.1259   -704.90719     102002.7      46.7237      46.7237      46.7237 
    2000    128.93446   -7119.5239   -6451.9441   -650.23592     102002.7      46.7237      46.7237      46.7237 
    3000     122.6847   -7113.4158   -6478.1952   -1034.8903     102002.7      46.7237      46.7237      46.7237 
    4000    129.61747   -7162.5953   -6491.4792   -470.60228     102002.7      46.7237      46.7237      46.7237 
    5000    133.67016   -7149.9243   -6457.8248   -1007.7008     102002.7      46.7237      46.7237      46.7237 
    6000    130.31732    -7164.577   -6489.8373   -816.11505     102002.7      46.7237      46.7237      46.7237 
    7000    130.49926   -7142.6811   -6466.9994   -657.42152     102002.7      46.7237      46.7237      46.7237 
    8000    129.48002   -7144.7518   -6474.3473   -948.82034     102002.7      46.7237      46.7237      46.7237 
    9000    126.80308   -7152.9201   -6496.3759   -598.04149     102002.7      46.7237      46.7237      46.7237 
   10000    126.18889   -7118.5734   -6465.2093   -779.42228     102002.7      46.7237      46.7237      46.7237 
   11000    126.49828   -7142.3139   -6487.3479   -963.49703     102002.7      46.7237      46.7237      46.7237 
   12000    131.05335   -7122.2009   -6443.6503   -754.92915     102002.7      46.7237      46.7237      46.7237 
   13000    128.08702   -7153.1243   -6489.9323   -653.50407     102002.7      46.7237      46.7237      46.7237 
   14000    131.01586   -7133.6072   -6455.2507   -866.38796     102002.7      46.7237      46.7237      46.7237 
   15000     130.4785   -7129.2604   -6453.6861   -712.95327     102002.7      46.7237      46.7237      46.7237 
   16000    128.23694   -7150.8784   -6486.9102   -723.95894     102002.7      46.7237      46.7237      46.7237 
   17000    126.45583   -7130.9092    -6476.163   -535.73771     102002.7      46.7237      46.7237      46.7237 
   18000     129.7554   -7122.3554   -6450.5251   -901.20158     102002.7      46.7237      46.7237      46.7237 
   19000    130.87446   -7144.9093   -6467.2849   -919.24874     102002.7      46.7237      46.7237      46.7237 
   20000    127.99899   -7149.7598   -6487.0237   -937.95854     102002.7      46.7237      46.7237      46.7237 
   21000    130.49046   -7148.8965   -6473.2603    -582.7772     102002.7      46.7237      46.7237      46.7237 
   22000     131.0324    -7144.475   -6466.0328    -832.8777     102002.7      46.7237      46.7237      46.7237 
   23000    125.33936   -7132.8515    -6483.886   -744.69969     102002.7      46.7237      46.7237      46.7237 
   24000    127.96452    -7131.044   -6468.4864   -737.62066     102002.7      46.7237      46.7237      46.7237 
   25000    132.43842   -7146.6823   -6460.9603   -1014.3408     102002.7      46.7237      46.7237      46.7237 
   26000    125.46035   -7144.7463   -6495.1544   -724.15973     102002.7      46.7237      46.7237      46.7237 
   27000    127.40806     -7126.43   -6466.7535   -598.42994     102002.7      46.7237      46.7237      46.7237 
   28000    135.38104   -7117.0944   -6416.1364   -610.59576     102002.7      46.7237      46.7237      46.7237 
   29000    129.75177   -7155.8495    -6484.038   -763.35167     102002.7      46.7237      46.7237      46.7237 
   30000    130.23524   -7144.7031   -6470.3884   -776.44202     102002.7      46.7237      46.7237      46.7237 
   31000    132.33577   -7157.8535   -6472.6629   -812.61358     102002.7      46.7237      46.7237      46.7237 
   32000       136.35   -7156.0422   -6450.0674   -682.19381     102002.7      46.7237      46.7237      46.7237 
   33000    128.95566   -7145.8943   -6478.2049   -1112.7348     102002.7      46.7237      46.7237      46.7237 
   34000    131.14589   -7124.8898     -6445.86   -1060.2745     102002.7      46.7237      46.7237      46.7237 
   35000    128.21442   -7153.3066    -6489.455   -467.40091     102002.7      46.7237      46.7237      46.7237 
   36000    128.37866   -7146.7168   -6482.0149   -915.95267     102002.7      46.7237      46.7237      46.7237 
   37000    132.30469   -7151.2191   -6466.1895   -566.52088     102002.7      46.7237      46.7237      46.7237 
   38000    125.97541   -7145.9191   -6493.6604   -446.70225     102002.7      46.7237      46.7237      46.7237 
   39000    130.53996   -7138.6929   -6462.8004   -634.28612     102002.7      46.7237      46.7237      46.7237 
   40000    128.66192   -7141.8629   -6475.6943   -647.18364     102002.7      46.7237      46.7237      46.7237 
   41000    135.11231   -7142.2904   -6442.7239   -569.82173     102002.7      46.7237      46.7237      46.7237 
   42000    127.70433   -7148.4251   -6487.2145   -594.56587     102002.7      46.7237      46.7237      46.7237 
   43000    128.76052    -7150.454   -6483.7749   -552.17973     102002.7      46.7237      46.7237      46.7237 
   44000    131.89076   -7120.6583   -6437.7719   -796.67612     102002.7      46.7237      46.7237      46.7237 
   45000    129.77687   -7156.1416   -6484.2002   -643.44641     102002.7      46.7237      46.7237      46.7237 
   46000    130.67721   -7136.5072   -6459.9041   -848.48811     102002.7      46.7237      46.7237      46.7237 
   47000    126.83577   -7128.8908   -6472.1774   -910.62073     102002.7      46.7237      46.7237      46.7237 
   48000    126.85556   -7134.1722   -6477.3563   -771.94131     102002.7      46.7237      46.7237      46.7237 
   49000    131.48404   -7111.5572   -6430.7766   -897.66133     102002.7      46.7237      46.7237      46.7237 
   50000    126.56255   -7115.9348   -6460.6361   -875.24875     102002.7      46.7237      46.7237      46.7237 
   51000    126.78092   -7148.4763   -6492.0469   -751.15446     102002.7      46.7237      46.7237      46.7237 
   52000    129.84282   -7137.6957   -6465.4128   -805.87675     102002.7      46.7237      46.7237      46.7237 
   53000    131.66086   -7135.8785   -6454.1825   -801.64664     102002.7      46.7237      46.7237      46.7237 
   54000    129.25381   -7152.2318   -6482.9986   -747.91335     102002.7      46.7237      46.7237      46.7237 
   55000    129.28702   -7154.3209   -6484.9158   -1040.5807     102002.7      46.7237      46.7237      46.7237 
   56000    134.75247   -7140.8654   -6443.1619   -719.55139     102002.7      46.7237      46.7237      46.7237 
   57000    134.00242   -7157.1071   -6463.2872   -1181.2702     102002.7      46.7237      46.7237      46.7237 
   58000    125.41598   -7155.9004   -6506.5382   -681.55994     102002.7      46.7237      46.7237      46.7237 
   59000    127.91914   -7133.1195   -6470.7968   -871.69278     102002.7      46.7237      46.7237      46.7237 
   60000    130.27191   -7153.4344   -6478.9299   -1040.7214     102002.7      46.7237      46.7237      46.7237 
   61000     130.1307   -7145.6265    -6471.853   -868.02777     102002.7      46.7237      46.7237      46.7237 
   62000    131.99108   -7162.5768   -6479.1709   -818.92532     102002.7      46.7237      46.7237      46.7237 
   63000    128.88179   -7142.6135   -6475.3065   -680.25765     102002.7      46.7237      46.7237      46.7237 
   64000    130.05339   -7119.9711    -6446.598    -787.0941     102002.7      46.7237      46.7237      46.7237 
   65000    131.07538    -7129.705   -6451.0403   -604.19144     102002.7      46.7237      46.7237      46.7237 
   66000    127.91433   -7165.9792   -6503.6813   -845.95961     102002.7      46.7237      46.7237      46.7237 
   67000    132.45155    -7138.344    -6452.554   -722.97767     102002.7      46.7237      46.7237      46.7237 
   68000    131.06268   -7149.1758   -6470.5769   -958.19962     102002.7      46.7237      46.7237      46.7237 
   69000    124.45276   -7148.7929    -6504.418   -759.99982     102002.7      46.7237      46.7237      46.7237 
   70000    130.19709   -7140.4016   -6466.2844   -648.82693     102002.7      46.7237      46.7237      46.7237 
   71000    128.28481   -7167.3836   -6503.1676   -959.61476     102002.7      46.7237      46.7237      46.7237 
   72000    131.25051   -7152.7687   -6473.1973   -871.21206     102002.7      46.7237      46.7237      46.7237 
   73000    132.56586   -7128.0849   -6441.7031   -655.47489     102002.7      46.7237      46.7237      46.7237 
   74000    130.75575   -7155.2331   -6478.2233   -797.82043     102002.7      46.7237      46.7237      46.7237 
   75000    128.03692   -7111.9429   -6449.0104   -766.84257     102002.7      46.7237      46.7237      46.7237 
   76000    127.75372   -7147.3351   -6485.8689   -834.47202     102002.7      46.7237      46.7237      46.7237 
   77000    124.49124   -7140.6694   -6496.0952   -591.04361     102002.7      46.7237      46.7237      46.7237 
   78000    129.78966    -7124.133   -6452.1254   -682.29419     102002.7      46.7237      46.7237      46.7237 
   79000    126.21406   -7130.2229   -6476.7286   -994.00311     102002.7      46.7237      46.7237      46.7237 
   80000     129.6206   -7165.0567   -6493.9244    -664.5839     102002.7      46.7237      46.7237      46.7237 
   81000    131.79009    -7139.111   -6456.7458   -770.68391     102002.7      46.7237      46.7237      46.7237 
   82000    125.26588   -7170.6277   -6522.0426   -744.80181     102002.7      46.7237      46.7237      46.7237 
   83000    130.60064   -7138.5899   -6462.3833   -807.54891     102002.7      46.7237      46.7237      46.7237 
   84000    131.68715   -7157.2154   -6475.3832   -663.93076     102002.7      46.7237      46.7237      46.7237 
   85000    135.22902   -7133.3456   -6433.1747    -615.7147     102002.7      46.7237      46.7237      46.7237 
   86000    126.32081   -7130.4956   -6476.4485   -758.06356     102002.7      46.7237      46.7237      46.7237 
   87000    134.92854   -7119.8733   -6421.2582   -901.63748     102002.7      46.7237      46.7237      46.7237 
   88000     131.5421   -7155.1053   -6474.0241   -827.74931     102002.7      46.7237      46.7237      46.7237 
   89000    129.59793   -7144.7027   -6473.6878   -573.50733     102002.7      46.7237      46.7237      46.7237 
   90000      131.086   -7129.3052   -6450.5855   -695.06034     102002.7      46.7237      46.7237      46.7237 
   91000    125.82353   -7166.2178   -6514.7454   -793.25086     102002.7      46.7237      46.7237      46.7237 
   92000    133.50061   -7139.9226   -6448.7009   -518.08199     102002.7      46.7237      46.7237      46.7237 
   93000    126.69175   -7135.1547    -6479.187   -522.49116     102002.7      46.7237      46.7237      46.7237 
   94000    132.50596   -7134.9755   -6448.9038   -617.23535     102002.7      46.7237      46.7237      46.7237 
   95000    132.62755   -7158.8583    -6472.157   -627.88447     102002.7      46.7237      46.7237      46.7237 
   96000    136.71635   -7133.0995   -6425.2278   -1036.4888     102002.7      46.7237      46.7237      46.7237 
   97000     129.1545   -7156.3099   -6487.5909   -684.77695     102002.7      46.7237      46.7237      46.7237 
   98000     131.5103   -7128.7423   -6447.8258   -810.96533     102002.7      46.7237      46.7237      46.7237 
   99000    129.74515    -7154.656   -6482.8788   -582.92398     102002.7      46.7237      46.7237      46.7237 
  100000    128.74401   -7124.4866    -6457.893   -414.79176     102002.7      46.7237      46.7237      46.7237 
  101000      128.166   -7160.7007   -6497.0998   -536.15271     102002.7      46.7237      46.7237      46.7237 
  102000    129.51408   -7138.3506   -6467.7698   -528.94532     102002.7      46.7237      46.7237      46.7237 
  103000    128.62458   -7134.6745   -6468.6992   -383.13637     102002.7      46.7237      46.7237      46.7237 
  104000    131.35557   -7148.8136   -6468.6982    -797.5487     102002.7      46.7237      46.7237      46.7237 
  105000    127.31373   -7153.4581     -6494.27   -928.47654     102002.7      46.7237      46.7237      46.7237 
  106000    133.34507   -7143.2208   -6452.8044   -823.91099     102002.7      46.7237      46.7237      46.7237 
  107000    127.78902   -7142.8006   -6481.1516   -709.35874     102002.7      46.7237      46.7237      46.7237 
  108000    130.44823   -7153.9654   -6478.5479   -576.28486     102002.7      46.7237      46.7237      46.7237 
  109000    130.90437   -7155.4144   -6477.6351   -830.90733     102002.7      46.7237      46.7237      46.7237 
  110000    130.20697   -7130.8235   -6456.6552    -590.8666     102002.7      46.7237      46.7237      46.7237 
  111000    130.86939   -7160.5595   -6482.9614   -794.17597     102002.7      46.7237      46.7237      46.7237 
  112000    128.75128   -7150.1797   -6483.5485   -996.10105     102002.7      46.7237      46.7237      46.7237 
  113000    131.50853   -7140.3982   -6459.4908   -623.60333     102002.7      46.7237      46.7237      46.7237 
  114000    132.39919   -7175.7905   -6490.2715   -565.88907     102002.7      46.7237      46.7237      46.7237 
  115000    130.60317   -7159.1031   -6482.8833   -307.95888     102002.7      46.7237      46.7237      46.7237 
  116000     131.4758   -7138.7739    -6458.036   -931.65182     102002.7      46.7237      46.7237      46.7237 
  117000    127.73943   -7147.8219   -6486.4297   -859.25739     102002.7      46.7237      46.7237      46.7237 
  118000    128.33482   -7149.2356   -6484.7606   -612.85922     102002.7      46.7237      46.7237      46.7237 
  119000    132.83862   -7131.5372    -6443.743   -380.52653     102002.7      46.7237      46.7237      46.7237 
  120000    129.68729   -7148.6895   -6477.2119   -972.46966     102002.7      46.7237      46.7237      46.7237 
  121000    131.17003   -7149.4373   -6470.2826   -640.07198     102002.7      46.7237      46.7237      46.7237 
  122000    132.70213   -7148.9982   -6461.9108   -738.81686     102002.7      46.7237      46.7237      46.7237 
  123000    126.31657   -7158.5216   -6504.4965    -664.7083     102002.7      46.7237      46.7237      46.7237 
  124000    133.14876   -7144.1907   -6454.7907   -388.04006     102002.7      46.7237      46.7237      46.7237 
  125000    127.29713   -7143.7357   -6484.6336   -875.42832     102002.7      46.7237      46.7237      46.7237 
  126000    128.56311   -7150.5286   -6484.8716   -855.20177     102002.7      46.7237      46.7237      46.7237 
  127000    129.62536   -7121.2091   -6450.0522   -690.86165     102002.7      46.7237      46.7237      46.7237 
  128000    128.05949   -7131.5097   -6468.4602   -831.76262     102002.7      46.7237      46.7237      46.7237 
  129000    129.76977   -7155.8134   -6483.9087   -758.82483     102002.7      46.7237      46.7237      46.7237 
  130000    128.53868   -7129.3297   -6463.7993   -908.29696     102002.7      46.7237      46.7237      46.7237 
  131000    133.90063   -7152.1374   -6458.8445   -561.91929     102002.7      46.7237      46.7237      46.7237 
  132000    130.69938   -7141.2777   -6464.5598   -858.25168     102002.7      46.7237      46.7237      46.7237 
  133000    127.46002   -7141.8512   -6481.9057   -853.91818     102002.7      46.7237      46.7237      46.7237 
  134000    130.57252   -7133.7597   -6457.6986     -696.116     102002.7      46.7237      46.7237      46.7237 
  135000    125.68845   -7164.3328   -6513.5598    -764.1474     102002.7      46.7237      46.7237      46.7237 
  136000    131.73268   -7150.1564   -6468.0885   -899.01446     102002.7      46.7237      46.7237      46.7237 
  137000    130.55581   -7157.8451   -6481.8706   -740.66126     102002.7      46.7237      46.7237      46.7237 
  138000    130.10462   -7131.5328   -6457.8944   -932.39819     102002.7      46.7237      46.7237      46.7237 
  139000    130.26173   -7145.2253   -6470.7734   -810.07662     102002.7      46.7237      46.7237      46.7237 
  140000    128.03581   -7145.9724   -6483.0456   -559.53168     102002.7      46.7237      46.7237      46.7237 
  141000    129.88267   -7152.1229   -6479.6337   -934.90985     102002.7      46.7237      46.7237      46.7237 
  142000    130.84994   -7142.4018   -6464.9044   -732.15845     102002.7      46.7237      46.7237      46.7237 
  143000     128.4491   -7145.1131   -6480.0464   -928.15437     102002.7      46.7237      46.7237      46.7237 
  144000    125.36535   -7126.4433   -6477.3433   -686.80026     102002.7      46.7237      46.7237      46.7237 
  145000    127.88618   -7165.5233   -6503.3712   -624.99071     102002.7      46.7237      46.7237      46.7237 
  146000    131.22592   -7127.0059   -6447.5617   -843.97004     102002.7      46.7237      46.7237      46.7237 
  147000    132.28804   -7137.4705   -6452.5271   -484.53554     102002.7      46.7237      46.7237      46.7237 
  148000    126.01024   -7131.3032   -6478.8641   -679.70257     102002.7      46.7237      46.7237      46.7237 
  149000    132.61955   -7120.7285   -6434.0686    -755.3938     102002.7      46.7237      46.7237      46.7237 
  150000    129.44549   -7153.8159   -6483.5902   -668.98874     102002.7      46.7237      46.7237      46.7237 
  151000    131.92735   -7150.4368    -6467.361   -576.19022     102002.7      46.7237      46.7237      46.7237 
  152000    127.70346   -7142.8405   -6481.6345   -476.96308     102002.7      46.7237      46.7237      46.7237 
  153000    132.51624   -7144.7413   -6458.6163   -262.40461     102002.7      46.7237      46.7237      46.7237 
  154000    127.97657   -7141.7315   -6479.1114   -613.39436     102002.7      46.7237      46.7237      46.7237 
  155000    129.79598   -7155.1739   -6483.1335   -845.42199     102002.7      46.7237      46.7237      46.7237 
  156000    133.43454   -7139.0842   -6448.2046   -773.47642     102002.7      46.7237      46.7237      46.7237 
  157000    129.88574   -7135.2787   -6462.7736   -834.03682     102002.7      46.7237      46.7237      46.7237 
  158000    126.42058   -7134.6073   -6480.0436   -999.19731     102002.7      46.7237      46.7237      46.7237 
  159000     134.9805   -7136.2738   -6437.3897   -527.75711     102002.7      46.7237      46.7237      46.7237 
  160000    133.20779   -7141.4191   -6451.7136   -912.09426     102002.7      46.7237      46.7237      46.7237 
  161000    133.98225   -7160.6402   -6466.9247   -397.33013     102002.7      46.7237      46.7237      46.7237 
  162000    131.19572   -7150.1025   -6470.8147   -682.40552     102002.7      46.7237      46.7237      46.7237 
  163000    126.78821   -7155.5138   -6499.0467   -619.02345     102002.7      46.7237      46.7237      46.7237 
  164000    134.24422   -7152.2534   -6457.1815    -626.6007     102002.7      46.7237      46.7237      46.7237 
  165000    127.66236   -7143.7721   -6482.7789   -813.28338     102002.7      46.7237      46.7237      46.7237 
  166000    126.88065   -7163.2092   -6506.2635   -1057.0929     102002.7      46.7237      46.7237      46.7237 
  167000    130.51412     -7142.11   -6466.3513   -824.72807     102002.7      46.7237      46.7237      46.7237 
  168000    131.96958   -7140.1692   -6456.8747   -632.78026     102002.7      46.7237      46.7237      46.7237 
  169000    123.76263   -7129.1776   -6488.3759   -666.71735     102002.7      46.7237      46.7237      46.7237 
  170000     128.6305   -7142.5754   -6476.5696   -923.16857     102002.7      46.7237      46.7237      46.7237 
  171000    131.12821   -7150.2875   -6471.3493   -854.59029     102002.7      46.7237      46.7237      46.7237 
  172000    130.59248   -7128.1798   -6452.0154   -836.60354     102002.7      46.7237      46.7237      46.7237 
  173000    128.37226   -7135.2742   -6470.6054   -793.76081     102002.7      46.7237      46.7237      46.7237 
  174000    130.01734   -7136.2298   -6463.0433    -631.6008     102002.7      46.7237      46.7237      46.7237 
  175000     130.5508   -7124.0712   -6448.1226   -639.01905     102002.7      46.7237      46.7237      46.7237 
  176000    128.86646   -7155.4485   -6488.2209   -651.84744     102002.7      46.7237      46.7237      46.7237 
  177000    131.30365   -7135.4089   -6455.5623   -673.91239     102002.7      46.7237      46.7237      46.7237 
  178000    130.75371   -7162.4824   -6485.4833   -611.45582     102002.7      46.7237      46.7237      46.7237 
  179000     129.7295   -7121.3823   -6449.6861   -580.07524     102002.7      46.7237      46.7237      46.7237 
  180000     126.7527    -7148.481   -6492.1977   -517.30294     102002.7      46.7237      46.7237      46.7237 
  181000    132.63292    -7155.287   -6468.5579   -409.48548     102002.7      46.7237      46.7237      46.7237 
  182000    124.41031   -7150.0688   -6505.9137   -670.31252     102002.7      46.7237      46.7237      46.7237 
  183000     127.6606   -7146.8539   -6485.8699   -704.41631     102002.7      46.7237      46.7237      46.7237 
  184000    128.31483   -7170.6626   -6506.2911   -595.80472     102002.7      46.7237      46.7237      46.7237 
  185000    131.08261   -7133.2823   -6454.5802   -680.81931     102002.7      46.7237      46.7237      46.7237 
  186000    131.77772   -7141.3074   -6459.0063   -610.18215     102002.7      46.7237      46.7237      46.7237 
  187000    131.45512   -7166.5064   -6485.8756   -955.47104     102002.7      46.7237      46.7237      46.7237 
  188000    130.01694   -7141.3574   -6468.1729   -884.95061     102002.7      46.7237      46.7237      46.7237 
  189000    131.09231   -7144.9928   -6466.2405   -873.46517     102002.7      46.7237      46.7237      46.7237 
  190000    131.81253   -7148.1149   -6465.6335   -1005.9536     102002.7      46.7237      46.7237      46.7237 
  191000    130.39364   -7139.9486   -6464.8138   -714.22793     102002.7      46.7237      46.7237      46.7237 
  192000     130.8101   -7138.1596   -6460.8685   -1048.8328     102002.7      46.7237      46.7237      46.7237 
  193000    130.98418   -7138.5809   -6460.3885   -1043.6373     102002.7      46.7237      46.7237      46.7237 
  194000     126.5103   -7168.2469   -6513.2187   -966.74506     102002.7      46.7237      46.7237      46.7237 
  195000    128.86654   -7134.0992   -6466.8711   -843.33775     102002.7      46.7237      46.7237      46.7237 
  196000    130.78139   -7120.1096   -6442.9671    -893.0094     102002.7      46.7237      46.7237      46.7237 
  197000    128.71423   -7121.6272   -6455.1878   -1093.0156     102002.7      46.7237      46.7237      46.7237 
  198000    128.14159   -7150.5027   -6487.0282    -747.4353     102002.7      46.7237      46.7237      46.7237 
  199000    128.58936   -7138.3695   -6472.5766   -804.12503     102002.7      46.7237      46.7237      46.7237 
  200000    127.04069   -7150.1844   -6492.4099   -916.52452     102002.7      46.7237      46.7237      46.7237 
  201000    130.39759   -7151.8145   -6476.6592   -630.50983     102002.7      46.7237      46.7237      46.7237 
  202000     134.3206   -7132.1309   -6436.6635   -1086.8065     102002.7      46.7237      46.7237      46.7237 
  203000    132.72905   -7162.8755   -6475.6487   -783.72471     102002.7      46.7237      46.7237      46.7237 
  204000    133.47031   -7150.8933   -6459.8284   -885.07202     102002.7      46.7237      46.7237      46.7237 
  205000     130.7703   -7135.3275   -6458.2425   -675.80148     102002.7      46.7237      46.7237      46.7237 
  206000    129.31174   -7159.5239   -6489.9908   -864.53567     102002.7      46.7237      46.7237      46.7237 
  207000     127.3178   -7140.6135   -6481.4043     -885.196     102002.7      46.7237      46.7237      46.7237 
  208000    128.54234   -7138.2886   -6472.7392   -715.75417     102002.7      46.7237      46.7237      46.7237 
  209000     127.9953    -7150.154   -6487.4369   -622.80005     102002.7      46.7237      46.7237      46.7237 
  210000    127.56863   -7112.1635   -6451.6556    -652.5228     102002.7      46.7237      46.7237      46.7237 
  211000    127.80485   -7145.9229   -6484.1919   -1144.3497     102002.7      46.7237      46.7237      46.7237 
  212000    125.38005   -7125.2179   -6476.0417   -628.64312     102002.7      46.7237      46.7237      46.7237 
  213000    128.69492   -7166.8553   -6500.5159   -663.14619     102002.7      46.7237      46.7237      46.7237 
  214000     125.7836   -7129.2779   -6478.0123   -494.80868     102002.7      46.7237      46.7237      46.7237 
  215000    133.00883   -7122.6547   -6433.9793   -728.14097     102002.7      46.7237      46.7237      46.7237 
  216000    126.50405    -7127.211   -6472.2151   -508.29187     102002.7      46.7237      46.7237      46.7237 
  217000    128.16556   -7133.4499   -6469.8513   -635.48234     102002.7      46.7237      46.7237      46.7237 
  218000    130.70486   -7107.7413   -6430.9951   -1040.1976     102002.7      46.7237      46.7237      46.7237 
  219000     129.9711   -7148.1888   -6475.2417   -654.84109     102002.7      46.7237      46.7237      46.7237 
  220000    129.90322    -7140.739   -6468.1433   -872.86022     102002.7      46.7237      46.7237      46.7237 
  221000    131.86174   -7141.5431   -6458.8069   -908.65039     102002.7      46.7237      46.7237      46.7237 
  222000    131.25474    -7158.852   -6479.2586   -522.91491     102002.7      46.7237      46.7237      46.7237 
  223000    130.84015   -7163.3398   -6485.8931   -887.10823     102002.7      46.7237      46.7237      46.7237 
  224000    130.37432   -7129.4004   -6454.3656   -847.94225     102002.7      46.7237      46.7237      46.7237 
  225000    130.16753   -7141.8374   -6467.8732   -645.14939     102002.7      46.7237      46.7237      46.7237 
  226000    130.94627   -7149.1714   -6471.1753    -597.5914     102002.7      46.7237      46.7237      46.7237 
  227000    127.27098   -7141.3264   -6482.3597   -798.15806     102002.7      46.7237      46.7237      46.7237 
  228000    134.36656   -7159.7901   -6464.0848   -666.64784     102002.7      46.7237      46.7237      46.7237 
  229000    130.32637   -7161.0481   -6486.2615   -814.88965     102002.7      46.7237      46.7237      46.7237 
  230000    131.17102   -7169.9965   -6490.8366   -932.74875     102002.7      46.7237      46.7237      46.7237 
  231000    132.02974   -7165.2179   -6481.6119   -728.79115     102002.7      46.7237      46.7237      46.7237 
  232000    134.08752   -7139.8693   -6445.6088   -1024.0803     102002.7      46.7237      46.7237      46.7237 
  233000    128.04813   -7140.4383   -6477.4477   -667.42682     102002.7      46.7237      46.7237      46.7237 
  234000    129.85708   -7128.3424   -6455.9857   -695.38076     102002.7      46.7237      46.7237      46.7237 
  235000    126.91335   -7139.2693   -6482.1543   -841.61299     102002.7      46.7237      46.7237      46.7237 
  236000    128.43572   -7142.1514    -6477.154   -616.51459     102002.7      46.7237      46.7237      46.7237 
  237000    130.38994   -7134.7881   -6459.6724   -1116.9415     102002.7      46.7237      46.7237      46.7237 
  238000      128.813   -7124.2243   -6457.2734   -513.09174     102002.7      46.7237      46.7237      46.7237 
  239000    127.43353   -7143.6972   -6483.8888   -836.84275     102002.7      46.7237      46.7237      46.7237 
  240000    138.35693   -7166.2749   -6449.9088   -673.99228     102002.7      46.7237      46.7237      46.7237 
  241000    127.32076   -7151.6082   -6492.3837    -738.4527     102002.7      46.7237      46.7237      46.7237 
  242000    132.11771   -7150.5131   -6466.4516   -438.91298     102002.7      46.7237      46.7237      46.7237 
  243000    128.16146   -7128.8315   -6465.2542   -969.49045     102002.7      46.7237      46.7237      46.7237 
  244000    130.89423   -7163.5603   -6485.8336    -704.0285     102002.7      46.7237      46.7237      46.7237 
  245000    130.71801   -7139.5711   -6462.7568   -606.57145     102002.7      46.7237      46.7237      46.7237 
  246000    129.67724   -7145.9259   -6474.5004   -673.78528     102002.7      46.7237      46.7237      46.7237 
  247000    129.19278   -7134.6043   -6465.6871    -755.6746     102002.7      46.7237      46.7237      46.7237 
  248000    132.89571   -7146.6069   -6458.5171   -722.47377     102002.7      46.7237      46.7237      46.7237 
  249000    130.88866   -7159.7392   -6482.0413   -853.42175     102002.7      46.7237      46.7237      46.7237 
  250000    128.54828    -7150.793   -6485.2128    -1048.692     102002.7      46.7237      46.7237      46.7237 
  251000    123.31213   -7144.8509   -6506.3817   -1019.5369     102002.7      46.7237      46.7237      46.7237 
  252000    130.13578   -7133.5766   -6459.7768   -981.00784     102002.7      46.7237      46.7237      46.7237 
  253000    130.59211   -7161.1055    -6484.943   -1137.2115     102002.7      46.7237      46.7237      46.7237 
  254000    129.24004   -7137.7055   -6468.5436    -664.6038     102002.7      46.7237      46.7237      46.7237 
  255000    135.43992   -7129.0919   -6427.8291   -1001.1424     102002.7      46.7237      46.7237      46.7237 
  256000     131.1161   -7137.0244   -6458.1489   -819.80238     102002.7      46.7237      46.7237      46.7237 
  257000    129.66677   -7171.5953   -6500.2239   -777.64585     102002.7      46.7237      46.7237      46.7237 
  258000    132.19356    -7151.495   -6467.0408   -758.05037     102002.7      46.7237      46.7237      46.7237 
  259000    128.49092   -7137.0037   -6471.7204   -804.59052     102002.7      46.7237      46.7237      46.7237 
  260000    129.76375   -7134.9452   -6463.0717   -831.16669     102002.7      46.7237      46.7237      46.7237 
  261000    130.17361   -7143.3822   -6469.3866   -657.13876     102002.7      46.7237      46.7237      46.7237 
  262000    126.57956   -7179.1205   -6523.7337   -860.31128     102002.7      46.7237      46.7237      46.7237 
  263000    129.14916   -7140.3602   -6471.6689   -737.75673     102002.7      46.7237      46.7237      46.7237 
  264000    133.46291    -7139.493   -6448.4664   -592.10928     102002.7      46.7237      46.7237      46.7237 
  265000    129.49963   -7155.8104   -6485.3044   -816.61382     102002.7      46.7237      46.7237      46.7237 
  266000    130.42262   -7115.6787   -6440.3938   -745.35589     102002.7      46.7237      46.7237      46.7237 
  267000    129.59269   -7120.9688    -6449.981   -902.87076     102002.7      46.7237      46.7237      46.7237 
  268000    125.97081   -7166.6504   -6514.4155   -589.96807     102002.7      46.7237      46.7237      46.7237 
  269000    130.14886   -7127.6919   -6453.8245   -591.16594     102002.7      46.7237      46.7237      46.7237 
  270000    132.29151   -7158.0495   -6473.0881   -654.24667     102002.7      46.7237      46.7237      46.7237 
  271000    132.46688   -7153.8074    -6467.938   -780.59679     102002.7      46.7237      46.7237      46.7237 
  272000    134.57121    -7142.329    -6445.564   -653.69788     102002.7      46.7237      46.7237      46.7237 
  273000    126.96998   -7133.2529   -6475.8446   -622.97933     102002.7      46.7237      46.7237      46.7237 
  274000    133.12321    -7128.566   -6439.2984   -436.60398     102002.7      46.7237      46.7237      46.7237 
  275000     130.6588   -7154.8641   -6478.3563    -739.1502     102002.7      46.7237      46.7237      46.7237 
  276000    132.88337   -7136.2026   -6448.1768   -680.83273     102002.7      46.7237      46.7237      46.7237 
  277000    134.50666   -7147.9609   -6451.5302   -365.78711     102002.7      46.7237      46.7237      46.7237 
  278000    124.94662   -7148.4597   -6501.5277   -650.46763     102002.7      46.7237      46.7237      46.7237 
  279000    134.33505   -7146.2055   -6450.6633    -837.7061     102002.7      46.7237      46.7237      46.7237 
  280000    131.73297   -7135.9881   -6453.9186   -778.53655     102002.7      46.7237      46.7237      46.7237 
  281000    129.14707    -7156.193   -6487.5124   -997.81525     102002.7      46.7237      46.7237      46.7237 
  282000    133.97357   -7132.2453   -6438.5747   -748.42901     102002.7      46.7237      46.7237      46.7237 
  283000    128.64669   -7148.0707   -6481.9809   -618.00707     102002.7      46.7237      46.7237      46.7237 
  284000    134.38125   -7152.6931   -6456.9117   -557.67524     102002.7      46.7237      46.7237      46.7237 
  285000    128.32178   -7152.7893   -6488.3818   -534.07074     102002.7      46.7237      46.7237      46.7237 
  286000    130.58526   -7142.6749   -6466.5479   -664.33088     102002.7      46.7237      46.7237      46.7237 
  287000    129.72709   -7152.6906   -6481.0069   -411.25128     102002.7      46.7237      46.7237      46.7237 
  288000    132.76866   -7153.1505   -6465.7186   -823.72757     102002.7      46.7237      46.7237      46.7237 
  289000    127.86725    -7145.997    -6483.943   -761.32719     102002.7      46.7237      46.7237      46.7237 
  290000    130.09177   -7135.9839    -6462.412   -805.33876     102002.7      46.7237      46.7237      46.7237 
  291000    124.37797    -7155.321   -6511.3332    -1091.271     102002.7      46.7237      46.7237      46.7237 
  292000    130.37947   -7156.8301   -6481.7686   -779.14205     102002.7      46.7237      46.7237      46.7237 
  293000     132.5321   -7139.1107   -6452.9037   -866.16558     102002.7      46.7237      46.7237      46.7237 
  294000    130.53602   -7146.0703   -6470.1983    -847.8453     102002.7      46.7237      46.7237      46.7237 
  295000    132.80136   -7138.5375   -6450.9363   -527.60634     102002.7      46.7237      46.7237      46.7237 
  296000    131.77039   -7160.0035   -6477.7403     -695.323     102002.7      46.7237      46.7237      46.7237 
  297000    128.27515   -7142.1896   -6478.0236   -719.96978     102002.7      46.7237      46.7237      46.7237 
  298000    126.89318   -7147.8672   -6490.8565   -700.06572     102002.7      46.7237      46.7237      46.7237 
  299000    130.22169   -7145.4269   -6471.1823   -758.56536     102002.7      46.7237      46.7237      46.7237 
  300000      130.362   -7135.1256   -6460.1545   -532.03057     102002.7      46.7237      46.7237      46.7237 
  301000    124.06317    -7146.223   -6503.8652   -703.14617     102002.7      46.7237      46.7237      46.7237 
  302000    130.72965   -7151.6975   -6474.8229   -816.15301     102002.7      46.7237      46.7237      46.7237 
  303000    134.66495   -7146.4837   -6449.2334   -518.72476     102002.7      46.7237      46.7237      46.7237 
  304000     129.1879   -7152.7474   -6483.8554    -946.8382     102002.7      46.7237      46.7237      46.7237 
  305000    127.75376   -7143.5901   -6482.1236   -722.77469     102002.7      46.7237      46.7237      46.7237 
  306000    134.48264   -7163.7243    -6467.418    -525.5013     102002.7      46.7237      46.7237      46.7237 
  307000    126.14741   -7160.7118   -6507.5625   -461.62856     102002.7      46.7237      46.7237      46.7237 
  308000    132.37546    -7143.683   -6458.2869   -577.54522     102002.7      46.7237      46.7237      46.7237 
  309000    128.49119   -7137.4582   -6472.1736   -516.13078     102002.7      46.7237      46.7237      46.7237 
  310000    128.68942   -7156.5737   -6490.2627   -562.06203     102002.7      46.7237      46.7237      46.7237 
  311000    131.04332   -7138.7019   -6460.2032   -789.75307     102002.7      46.7237      46.7237      46.7237 
  312000    130.70104   -7163.8658   -6487.1394   -662.44202     102002.7      46.7237      46.7237      46.7237 
  313000    128.34657   -7126.3214   -6461.7855   -653.96103     102002.7      46.7237      46.7237      46.7237 
  314000    129.46723    -7137.228   -6466.8898   -657.35616     102002.7      46.7237      46.7237      46.7237 
  315000    126.99701    -7153.608   -6496.0597   -564.72111     102002.7      46.7237      46.7237      46.7237 
  316000    130.10078   -7139.8266   -6466.2081   -705.38718     102002.7      46.7237      46.7237      46.7237 
  317000    133.31801   -7163.3601   -6473.0839   -607.97538     102002.7      46.7237      46.7237      46.7237 
  318000    131.24678   -7123.3941    -6443.842   -882.54142     102002.7      46.7237      46.7237      46.7237 
  319000    127.19968    -7140.613   -6482.0154   -777.95496     102002.7      46.7237      46.7237      46.7237 
  320000    133.86941   -7127.0164   -6433.8852   -853.29774     102002.7      46.7237      46.7237      46.7237 
  321000    131.73309   -7147.3418   -6465.2717   -856.31143     102002.7      46.7237      46.7237      46.7237 
  322000    124.34421    -7151.074    -6507.261    -909.2294     102002.7      46.7237      46.7237      46.7237 
  323000    129.08909   -7141.4401   -6473.0598   -769.26446     102002.7      46.7237      46.7237      46.7237 
  324000    129.08923   -7136.4444   -6468.0633   -943.31836     102002.7      46.7237      46.7237      46.7237 
  325000     128.6312   -7153.8581   -6487.8486   -748.93107     102002.7      46.7237      46.7237      46.7237 
  326000    133.52816   -7132.0088   -6440.6445   -499.39298     102002.7      46.7237      46.7237      46.7237 
  327000    127.06387    -7142.703   -6484.8085   -1011.2059     102002.7      46.7237      46.7237      46.7237 
  328000    132.87988   -7146.7108    -6458.703    -585.5795     102002.7      46.7237      46.7237      46.7237 
  329000    126.06993   -7120.7828   -6468.0347   -1147.5194     102002.7      46.7237      46.7237      46.7237 
  330000    134.13676   -7133.7577   -6439.2422   -905.23304     102002.7      46.7237      46.7237      46.7237 
  331000    130.92745   -7143.9013   -6466.0026   -925.72217     102002.7      46.7237      46.7237      46.7237 
  332000    127.39547   -7152.4474   -6492.8361   -901.21702     102002.7      46.7237      46.7237      46.7237 
  333000    132.67513   -7142.8065   -6455.8588   -1092.9138     102002.7      46.7237      46.7237      46.7237 
  334000    130.86885   -7156.7477   -6479.1524   -588.07433     102002.7      46.7237      46.7237      46.7237 
  335000    131.76012   -7149.3992   -6467.1892   -759.64011     102002.7      46.7237      46.7237      46.7237 
  336000    131.13326   -7134.0356   -6455.0712   -852.61018     102002.7      46.7237      46.7237      46.7237 
  337000     126.5121   -7145.4146   -6490.3771   -1261.4163     102002.7      46.7237      46.7237      46.7237 
  338000    125.95388   -7145.0893   -6492.9421   -941.42965     102002.7      46.7237      46.7237      46.7237 
  339000    129.81574   -7166.0139   -6493.8713   -771.80915     102002.7      46.7237      46.7237      46.7237 
  340000    131.95324   -7125.6164   -6442.4064   -940.78815     102002.7      46.7237      46.7237      46.7237 
  341000     126.1986   -7143.5023   -6490.0879    -883.1526     102002.7      46.7237      46.7237      46.7237 
  342000    131.26812    -7153.607   -6473.9444   -981.23172     102002.7      46.7237      46.7237      46.7237 
  343000     134.0919   -7143.1039   -6448.8207    -751.2314     102002.7      46.7237      46.7237      46.7237 
  344000    128.82946   -7154.5748   -6487.5388   -762.73566     102002.7      46.7237      46.7237      46.7237 
  345000    124.68461   -7142.0692   -6496.4939   -762.72343     102002.7      46.7237      46.7237      46.7237 
  346000    130.94992    -7140.906   -6462.8909    -933.1974     102002.7      46.7237      46.7237      46.7237 
  347000    129.33051   -7150.8807   -6481.2504   -791.61803     102002.7      46.7237      46.7237      46.7237 
  348000     129.6507   -7135.1685   -6463.8804    -693.5188     102002.7      46.7237      46.7237      46.7237 
  349000    125.54582   -7149.7976   -6499.7631   -866.40249     102002.7      46.7237      46.7237      46.7237 
  350000    128.56154   -7145.8914   -6480.2426   -721.29844     102002.7      46.7237      46.7237      46.7237 
  351000    131.51105   -7109.7383   -6428.8179   -545.24533     102002.7      46.7237      46.7237      46.7237 
  352000    128.42173   -7140.7776   -6475.8526    -770.7129     102002.7      46.7237      46.7237      46.7237 
  353000    131.33897   -7126.3418   -6446.3123   -688.09676     102002.7      46.7237      46.7237      46.7237 
  354000     125.8461   -7125.5116   -6473.9223   -802.51012     102002.7      46.7237      46.7237      46.7237 
  355000    129.01724    -7148.086   -6480.0777   -752.01471     102002.7      46.7237      46.7237      46.7237 
  356000     124.7004   -7149.3186   -6503.6614    -791.5172     102002.7      46.7237      46.7237      46.7237 
  357000    129.48541   -7139.4409   -6469.0086   -684.40304     102002.7      46.7237      46.7237      46.7237 
  358000    135.33319   -7133.6854   -6432.9752   -924.54739     102002.7      46.7237      46.7237      46.7237 
  359000    130.60759   -7140.3889   -6464.1462   -835.35319     102002.7      46.7237      46.7237      46.7237 
  360000    128.02486   -7140.5963   -6477.7262   -480.97358     102002.7      46.7237      46.7237      46.7237 
  361000    131.77394   -7137.2828   -6455.0012   -565.46757     102002.7      46.7237      46.7237      46.7237 
  362000    131.33361   -7167.2476   -6487.2459   -729.12373     102002.7      46.7237      46.7237      46.7237 
  363000    130.33408   -7119.2666   -6444.4402   -1199.4674     102002.7      46.7237      46.7237      46.7237 
  364000    131.54748    -7137.035   -6455.9259   -801.29082     102002.7      46.7237      46.7237      46.7237 
  365000    128.11154   -7147.0392   -6483.7203   -1074.6368     102002.7      46.7237      46.7237      46.7237 
  366000    128.22863    -7151.489   -6487.5639   -960.08819     102002.7      46.7237      46.7237      46.7237 
  367000    130.75419   -7140.0258   -6463.0241   -749.67737     102002.7      46.7237      46.7237      46.7237 
  368000    126.84614   -7152.8563   -6496.0892     -567.828     102002.7      46.7237      46.7237      46.7237 
  369000    132.55957   -7154.8272   -6468.4779   -578.43577     102002.7      46.7237      46.7237      46.7237 
  370000    127.03283   -7139.9009   -6482.1672   -549.23703     102002.7      46.7237      46.7237      46.7237 
  371000    129.82025    -7109.901   -6437.7349   -686.30216     102002.7      46.7237      46.7237      46.7237 
  372000    131.48783   -7143.5748   -6462.7746    -896.3231     102002.7      46.7237      46.7237      46.7237 
  373000    129.81903   -7141.2044   -6469.0447   -764.37865     102002.7      46.7237      46.7237      46.7237 
  374000    128.35153   -7159.7851   -6495.2235   -820.26629     102002.7      46.7237      46.7237      46.7237 
  375000    123.43359    -7153.769    -6514.671   -779.34815     102002.7      46.7237      46.7237      46.7237 
  376000    129.84746   -7134.5828   -6462.2759   -606.78551     102002.7      46.7237      46.7237      46.7237 
  377000    124.46802   -7145.8288   -6501.3749   -740.96166     102002.7      46.7237      46.7237      46.7237 
  378000    128.53312   -7145.3238   -6479.8221   -661.77182     102002.7      46.7237      46.7237      46.7237 
  379000    134.95767   -7139.4807   -6440.7148   -673.04973     102002.7      46.7237      46.7237      46.7237 
  380000    130.80181   -7163.1998   -6485.9515   -807.57266     102002.7      46.7237      46.7237      46.7237 
  381000    127.91812   -7151.6864   -6489.3689   -588.68123     102002.7      46.7237      46.7237      46.7237 
  382000    132.58799   -7153.4206   -6466.9241   -747.32168     102002.7      46.7237      46.7237      46.7237 
  383000    131.66935   -7143.9603   -6462.2202   -873.04237     102002.7      46.7237      46.7237      46.7237 
  384000    132.57299    -7158.658   -6472.2392   -649.20292     102002.7      46.7237      46.7237      46.7237 
  385000    127.70563   -7163.3408   -6502.1236   -838.82441     102002.7      46.7237      46.7237      46.7237 
  386000    130.14012    -7130.695   -6456.8728   -600.05068     102002.7      46.7237      46.7237      46.7237 
  387000    129.99972   -7155.1851   -6482.0898   -698.98372     102002.7      46.7237      46.7237      46.7237 
  388000     131.5596   -7161.6994   -6480.5275   -392.47064     102002.7      46.7237      46.7237      46.7237 
  389000    135.88494   -7151.4106   -6447.8436   -430.27257     102002.7      46.7237      46.7237      46.7237 
  390000    128.07995   -7139.6482   -6476.4928   -738.71075     102002.7      46.7237      46.7237      46.7237 
  391000    131.03346   -7157.6519   -6479.2043   -752.19892     102002.7      46.7237      46.7237      46.7237 
  392000    127.76414   -7154.3539   -6492.8337   -961.59929     102002.7      46.7237      46.7237      46.7237 
  393000    126.97745   -7127.0568   -6469.6099   -778.89724     102002.7      46.7237      46.7237      46.7237 
  394000    130.87251   -7127.5549   -6449.9406   -570.56891     102002.7      46.7237      46.7237      46.7237 
  395000    126.75247   -7137.8029   -6481.5208   -926.87726     102002.7      46.7237      46.7237      46.7237 
  396000    128.52275   -7146.0316   -6480.5836   -797.03795     102002.7      46.7237      46.7237      46.7237 
  397000    130.97029   -7142.7494   -6464.6289   -1172.5375     102002.7      46.7237      46.7237      46.7237 
  398000    127.60883    -7147.894    -6487.178   -1031.0761     102002.7      46.7237      46.7237      46.7237 
  399000     129.7614   -7137.7036   -6465.8423   -756.03803     102002.7      46.7237      46.7237      46.7237 
  400000    131.42208   -7138.7656   -6458.3058   -1035.1708     102002.7      46.7237      46.7237      46.7237 
  401000    128.41377   -7151.6117   -6486.7279   -657.29913     102002.7      46.7237      46.7237      46.7237 
  402000    130.30216   -7152.7274   -6478.0662   -1006.9534     102002.7      46.7237      46.7237      46.7237 
  403000    133.66223   -7139.8948   -6447.8363   -475.55265     102002.7      46.7237      46.7237      46.7237 
  404000    130.61177   -7148.1138   -6471.8495   -774.54743     102002.7      46.7237      46.7237      46.7237 
  405000    128.24821   -7133.4305    -6469.404    -442.8204     102002.7      46.7237      46.7237      46.7237 
  406000    130.42682   -7147.5726   -6472.2659   -592.08765     102002.7      46.7237      46.7237      46.7237 
  407000    131.96565   -7135.6534   -6452.3792   -733.38957     102002.7      46.7237      46.7237      46.7237 
  408000    128.25287   -7148.5423   -6484.4917   -826.48704     102002.7      46.7237      46.7237      46.7237 
  409000    126.67347     -7136.14   -6480.2669   -729.91226     102002.7      46.7237      46.7237      46.7237 
  410000    132.46168    -7144.042   -6458.1995   -873.06178     102002.7      46.7237      46.7237      46.7237 
  411000    133.13063   -7162.0306   -6472.7245   -832.15607     102002.7      46.7237      46.7237      46.7237 
  412000    127.07387   -7142.4916   -6484.5454   -689.95442     102002.7      46.7237      46.7237      46.7237 
  413000    133.43432   -7150.8164    -6459.938   -931.26147     102002.7      46.7237      46.7237      46.7237 
  414000    126.01887   -7141.7352   -6489.2514   -1056.4951     102002.7      46.7237      46.7237      46.7237 
  415000    133.29798   -7132.1559   -6441.9833    -781.4368     102002.7      46.7237      46.7237      46.7237 
  416000    130.91138   -7151.0601   -6473.2446   -918.06722     102002.7      46.7237      46.7237      46.7237 
  417000    130.02959   -7166.2445   -6492.9946   -934.16064     102002.7      46.7237      46.7237      46.7237 
  418000    129.04959   -7125.4628    -6457.287   -854.63211     102002.7      46.7237      46.7237      46.7237 
  419000    126.77997   -7130.3992   -6473.9747    -1043.731     102002.7      46.7237      46.7237      46.7237 
  420000    130.65125   -7146.5776    -6470.109   -796.99534     102002.7      46.7237      46.7237      46.7237 
  421000    128.98395   -7112.1488   -6444.3128   -804.08725     102002.7      46.7237      46.7237      46.7237 
  422000    124.73859   -7131.6878   -6485.8329     -592.646     102002.7      46.7237      46.7237      46.7237 
  423000    133.84615   -7134.7716   -6441.7608   -1033.7985     102002.7      46.7237      46.7237      46.7237 
  424000    130.45934   -7146.0076   -6470.5326   -915.52731     102002.7      46.7237      46.7237      46.7237 
  425000    126.98771   -7147.5929   -6490.0928   -357.73673     102002.7      46.7237      46.7237      46.7237 
  426000    131.11994   -7142.6068   -6463.7114   -584.47237     102002.7      46.7237      46.7237      46.7237 
  427000    125.94261   -7144.6849    -6492.596   -520.34493     102002.7      46.7237      46.7237      46.7237 
  428000    128.72174   -7130.4493    -6463.971   -709.38076     102002.7      46.7237      46.7237      46.7237 
  429000    131.75335   -7161.8246   -6479.6496    -610.0603     102002.7      46.7237      46.7237      46.7237 
  430000    128.82991   -7155.4389   -6488.4005   -831.00149     102002.7      46.7237      46.7237      46.7237 
  431000    133.66688   -7136.5968   -6444.5142   -948.88262     102002.7      46.7237      46.7237      46.7237 
  432000    132.30569   -7148.5704   -6463.5356   -560.36768     102002.7      46.7237      46.7237      46.7237 
  433000     130.2585   -7143.9994   -6469.5643   -774.58779     102002.7      46.7237      46.7237      46.7237 
  434000    129.54341   -7138.7507   -6468.0181   -472.06431     102002.7      46.7237      46.7237      46.7237 
  435000    129.64802   -7140.6246   -6469.3503   -666.50173     102002.7      46.7237      46.7237      46.7237 
  436000    126.90872   -7164.0167   -6506.9256   -195.26771     102002.7      46.7237      46.7237      46.7237 
  437000    130.31917    -7132.908   -6458.1587   -633.10229     102002.7      46.7237      46.7237      46.7237 
  438000    133.35124   -7127.3549   -6436.9066    -552.0557     102002.7      46.7237      46.7237      46.7237 
  439000    128.45473   -7146.4779   -6481.3821   -150.53943     102002.7      46.7237      46.7237      46.7237 
  440000    126.72323   -7115.3112   -6459.1805   -670.60927     102002.7      46.7237      46.7237      46.7237 
  441000    126.50602   -7117.5534   -6462.5473   -463.14067     102002.7      46.7237      46.7237      46.7237 
  442000    132.09467    -7137.788   -6453.8458   -966.49715     102002.7      46.7237      46.7237      46.7237 
  443000    128.41946     -7147.66   -6482.7468   -509.72418     102002.7      46.7237      46.7237      46.7237 
  444000    130.54998   -7157.0019   -6481.0576   -659.20331     102002.7      46.7237      46.7237      46.7237 
  445000     132.3647   -7153.5924   -6468.2521   -908.83745     102002.7      46.7237      46.7237      46.7237 
  446000    129.25774   -7144.8962   -6475.6427   -751.29564     102002.7      46.7237      46.7237      46.7237 
  447000    126.01665   -7169.6423   -6517.1701   -805.17724     102002.7      46.7237      46.7237      46.7237 
  448000    130.90614   -7133.6821   -6455.8937   -827.40444     102002.7      46.7237      46.7237      46.7237 
  449000    131.42649   -7141.4873   -6461.0047    -683.0435     102002.7      46.7237      46.7237      46.7237 
  450000    128.38775   -7148.1432   -6483.3942   -622.52889     102002.7      46.7237      46.7237      46.7237 
  451000    126.24986   -7161.0226   -6507.3429   -858.91162     102002.7      46.7237      46.7237      46.7237 
  452000    130.55338   -7140.6039   -6464.6419   -959.34604     102002.7      46.7237      46.7237      46.7237 
  453000    129.78741   -7148.6565   -6476.6605   -823.71256     102002.7      46.7237      46.7237      46.7237 
  454000    126.60165   -7138.4287   -6482.9275   -841.83495     102002.7      46.7237      46.7237      46.7237 
  455000    131.82589   -7152.6498   -6470.0993   -552.46535     102002.7      46.7237      46.7237      46.7237 
  456000    133.28666   -7133.8904   -6443.7765   -788.95653     102002.7      46.7237      46.7237      46.7237 
  457000     130.3494   -7141.8256   -6466.9198   -490.14073     102002.7      46.7237      46.7237      46.7237 
  458000    128.49326   -7127.3187   -6462.0234   -543.65002     102002.7      46.7237      46.7237      46.7237 
  459000    130.44143    -7142.528   -6467.1458   -690.39353     102002.7      46.7237      46.7237      46.7237 
  460000    128.01367   -7147.9418   -6485.1297   -818.87523     102002.7      46.7237      46.7237      46.7237 
  461000    134.62327   -7151.7676   -6454.7331   -662.43102     102002.7      46.7237      46.7237      46.7237 
  462000    129.91885   -7140.6393   -6467.9627   -541.85978     102002.7      46.7237      46.7237      46.7237 
  463000    127.08529   -7158.0858   -6500.0805   -1052.8615     102002.7      46.7237      46.7237      46.7237 
  464000    131.14678   -7148.5819   -6469.5475   -608.45406     102002.7      46.7237      46.7237      46.7237 
  465000    132.40948   -7126.5003    -6440.928   -968.18815     102002.7      46.7237      46.7237      46.7237 
  466000    130.32772    -7137.681   -6462.8875    -1092.164     102002.7      46.7237      46.7237      46.7237 
  467000    129.37875   -7151.4976   -6481.6176   -800.34891     102002.7      46.7237      46.7237      46.7237 
  468000    133.85774   -7147.9908     -6454.92   -981.14118     102002.7      46.7237      46.7237      46.7237 
  469000    130.40858   -7154.8597   -6479.6475   -684.88849     102002.7      46.7237      46.7237      46.7237 
  470000    130.04924   -7165.6082   -6492.2566    -564.2426     102002.7      46.7237      46.7237      46.7237 
  471000    130.34567   -7135.2857   -6460.3992     -662.454     102002.7      46.7237      46.7237      46.7237 
  472000    131.04971   -7129.9717   -6451.4399   -610.55783     102002.7      46.7237      46.7237      46.7237 
  473000    130.44117   -7149.8433   -6474.4623   -619.67298     102002.7      46.7237      46.7237      46.7237 
  474000    130.55644   -7153.8845   -6477.9067   -775.07943     102002.7      46.7237      46.7237      46.7237 
  475000       126.33   -7163.7968   -6509.7021   -1096.1279     102002.7      46.7237      46.7237      46.7237 
  476000    129.01632   -7115.1784   -6447.1749   -1069.5323     102002.7      46.7237      46.7237      46.7237 
  477000    129.37972      -7158.8   -6488.9149   -755.94952     102002.7      46.7237      46.7237      46.7237 
  478000    129.59518   -7148.9513   -6477.9506   -662.64687     102002.7      46.7237      46.7237      46.7237 
  479000    132.47177   -7140.0768   -6454.1821   -700.97511     102002.7      46.7237      46.7237      46.7237 
  480000    127.82891   -7142.3441   -6480.4886   -458.22265     102002.7      46.7237      46.7237      46.7237 
  481000    134.09047   -7126.1456   -6431.8698   -415.26056     102002.7      46.7237      46.7237      46.7237 
  482000    128.36934   -7111.0459   -6446.3922   -655.41697     102002.7      46.7237      46.7237      46.7237 
  483000    126.66622   -7140.5865    -6484.751   -385.39907     102002.7      46.7237      46.7237      46.7237 
  484000    132.63343   -7126.9354   -6440.2037   -566.26532     102002.7      46.7237      46.7237      46.7237 
  485000    130.45136    -7151.511   -6476.0773   -396.79905     102002.7      46.7237      46.7237      46.7237 
  486000    133.77829   -7144.3238   -6451.6643   -751.57557     102002.7      46.7237      46.7237      46.7237 
  487000    123.28731    -7148.237   -6509.8963   -739.05042     102002.7      46.7237      46.7237      46.7237 
  488000    130.97737   -7136.3823   -6458.2251   -563.23208     102002.7      46.7237      46.7237      46.7237 
  489000    129.85672   -7140.5766   -6468.2217   -870.98232     102002.7      46.7237      46.7237      46.7237 
  490000    134.36035     -7137.65   -6441.9768   -758.71399     102002.7      46.7237      46.7237      46.7237 
  491000    128.92441   -7145.2245   -6477.6968   -664.23152     102002.7      46.7237      46.7237      46.7237 
  492000    125.59444    -7146.105   -6495.8188   -688.02136     102002.7      46.7237      46.7237      46.7237 
  493000    129.41422   -7140.6472   -6470.5835   -653.14585     102002.7      46.7237      46.7237      46.7237 
  494000    127.16963   -7117.9325   -6459.4905   -777.41179     102002.7      46.7237      46.7237      46.7237 
  495000    133.05034   -7162.5123    -6473.622   -607.16419     102002.7      46.7237      46.7237      46.7237 
  496000    129.98898   -7137.2403   -6464.2006   -462.64003     102002.7      46.7237      46.7237      46.7237 
  497000    133.32928   -7146.0136    -6455.679    -739.4324     102002.7      46.7237      46.7237      46.7237 
  498000    126.50476   -7129.5774   -6474.5779   -779.89795     102002.7      46.7237      46.7237      46.7237 
  499000    135.05908   -7142.1541   -6442.8631     -514.303     102002.7      46.7237      46.7237      46.7237 
  500000    127.10431    -7130.544   -6472.4402   -586.79905     102002.7      46.7237      46.7237      46.7237 
  500503    132.28754   -7160.8078    -6475.867   -637.23434     102002.7      46.7237      46.7237      46.7237 
Loop time of 1237.82 on 16 procs for 500000 steps with 1738 atoms

Performance: 34.900 ns/day, 0.688 hours/ns, 403.937 timesteps/s
99.8% CPU use with 16 MPI tasks x no OpenMP threads

MPI task timing breakdown:
Section |  min time  |  avg time  |  max time  |%varavg| %total
---------------------------------------------------------------
Pair    | 562.41     | 686.34     | 817.64     | 292.2 | 55.45
Bond    | 154.85     | 174.03     | 193.41     | 124.2 | 14.06
Neigh   | 4.2909     | 4.3025     | 4.311      |   0.3 |  0.35
Comm    | 244.64     | 359.49     | 468.7      | 341.8 | 29.04
Output  | 0.020074   | 0.020392   | 0.023423   |   0.6 |  0.00
Modify  | 7.8377     | 8.2295     | 9.0115     |  12.9 |  0.66
Other   |            | 5.397      |            |       |  0.44

Nlocal:    108.625 ave 133 max 85 min
Histogram: 1 1 2 1 3 1 3 3 0 1
Nghost:    2211.25 ave 2237 max 2185 min
Histogram: 1 0 3 2 2 1 4 1 1 1
Neighs:    11452.2 ave 15103 max 8071 min
Histogram: 2 0 5 2 0 0 2 1 2 2

Total # of neighbors = 183235
Ave neighs/atom = 105.429
Ave special neighs/atom = 6.62831
Neighbor list builds = 3690
Dangerous builds = 0
Neighbor list info ...
  update every 1 steps, delay 10 steps, check yes
  max neighbors/atom: 2000, page size: 100000
  master list distance cutoff = 16
  ghost atom cutoff = 16
  binsize = 8, bins = 6 6 6
  3 neighbor lists, perpetual/occasional/extra = 3 0 0
  (1) pair buck6d/coul/gauss/dsf, perpetual, skip from (3)
      attributes: half, newton on
      pair build: skip
      stencil: none
      bin: none
  (2) pair lj/cut, perpetual, skip from (3)
      attributes: half, newton on
      pair build: skip
      stencil: none
      bin: none
  (3) neighbor class addition, perpetual
      attributes: half, newton on
      pair build: half/bin/newton
      stencil: half/bin/3d/newton
      bin: standard
Setting up Verlet run ...
  Unit style    : real
  Current step  : 500503
  Time step     : 1
WARNING: Inconsistent image flags (../domain.cpp:786)
Per MPI rank memory allocation (min/avg/max) = 23.06 | 23.31 | 23.34 Mbytes
Step Time TotEng KinEng PotEng E_mol E_pair Temp Pxx Pyy Pzz Pxy Pxz Pyz Cella Cellb Cellc CellAlpha CellBeta CellGamma Volume Press 
  500503       500000    -6475.867    684.94082   -7160.8078    4395.1322    -11555.94    132.28754   -578.45775   -1170.7711   -162.47421    160.15529    2.2706302     111.9975      46.7237      46.7237      46.7237           90           90           90     102002.7   -637.23434 
  501000       500497    -6484.069    670.72228   -7154.7913    4420.5076   -11575.299    129.54141   -837.01089    -747.5691   -361.86105   -31.679648    193.32424   -150.73779      46.7237      46.7237      46.7237           90           90           90     102002.7   -648.81368 
  502000       501497   -6432.8514     685.3407   -7118.1921    4435.3992   -11553.591    132.36477   -729.79611   -845.33541   -594.96565    168.66515   -204.01858    105.24067      46.7237      46.7237      46.7237           90           90           90     102002.7   -723.36572 
  503000       502497   -6482.3816    667.42091   -7149.8025    4408.8784   -11558.681    128.90379   -742.88028   -329.53619   -887.09325    130.31469   -174.21625    313.02333      46.7237      46.7237      46.7237           90           90           90     102002.7   -653.16991 
  504000       503497   -6462.1534    681.70266    -7143.856    4426.6695   -11570.526    131.66213   -396.30194   -332.30157   -753.87807   -93.973012   -13.179448   -83.800178      46.7237      46.7237      46.7237           90           90           90     102002.7   -494.16053 
  505000       504497   -6452.2624    678.96189   -7131.2243    4450.0401   -11581.264    131.13278   -601.12812   -782.99597   -329.03223    141.26376    36.720321     166.3635      46.7237      46.7237      46.7237           90           90           90     102002.7   -571.05211 
  506000       505497   -6490.3089    668.66197   -7158.9709     4405.395   -11564.366    129.14349   -1137.0349   -740.06858   -853.57252    11.618803   -82.091651    189.01815      46.7237      46.7237      46.7237           90           90           90     102002.7   -910.22533 
  507000       506497   -6443.3314    699.31224   -7142.6436    4430.9817   -11573.625    135.06319   -298.68866   -862.21445   -1025.4597    228.99611   -454.42813     95.03107      46.7237      46.7237      46.7237           90           90           90     102002.7    -728.7876 
  508000       507497   -6495.7754    670.08081   -7165.8562    4399.4654   -11565.322    129.41752   -980.43909   -938.46173   -129.32423   -69.432046    109.63719    88.083795      46.7237      46.7237      46.7237           90           90           90     102002.7   -682.74168 
  509000       508497   -6447.9899    696.77257   -7144.7625    4417.7433   -11562.506    134.57269   -640.14568   -526.45412   -859.08495    183.51589    77.537197   -47.062577      46.7237      46.7237      46.7237           90           90           90     102002.7   -675.22825 
  510000       509497   -6497.2252     661.3287   -7158.5539    4397.6996   -11556.253    127.72716   -692.69411   -639.51195   -487.22341   -197.62256     79.19189   -123.85208      46.7237      46.7237      46.7237           90           90           90     102002.7   -606.47649 
  511000       510497   -6463.5131    655.61302   -7119.1261    4450.5057   -11569.632    126.62325   -1056.7376   -595.53868    -919.5953   -118.90422   -90.037782   -39.874646      46.7237      46.7237      46.7237           90           90           90     102002.7   -857.29053 
  512000       511497   -6485.1955    673.12323   -7158.3187     4398.502   -11556.821    130.00512   -708.74575   -726.65823   -860.78063   -212.58333    145.42714    27.362195      46.7237      46.7237      46.7237           90           90           90     102002.7   -765.39487 
  513000       512497   -6492.2795    648.00337   -7140.2829    4429.7795   -11570.062    125.15354    -467.8628   -672.81532   -635.06172   -188.79857   -34.966457    47.948798      46.7237      46.7237      46.7237           90           90           90     102002.7   -591.91328 
  514000       513497   -6470.5952    671.09533   -7141.6905    4426.0107   -11567.701    129.61346   -949.41474   -854.58252   -599.77937   -367.06261   -32.273944   -54.316572      46.7237      46.7237      46.7237           90           90           90     102002.7   -801.25888 
  515000       514497   -6477.9833    658.85825   -7136.8415    4431.6035   -11568.445    127.25002   -570.74274   -557.78597   -1089.6454   -72.874349   -27.124705    63.477333      46.7237      46.7237      46.7237           90           90           90     102002.7   -739.39137 
  516000       515497   -6433.3513    697.23137   -7130.5827    4437.4586   -11568.041     134.6613   -612.90738   -515.03919   -875.51007    273.07089     51.42032    43.289327      46.7237      46.7237      46.7237           90           90           90     102002.7   -667.81888 
  517000       516497   -6478.3459    661.03399   -7139.3798    4411.2806    -11550.66    127.67024   -864.57712    -835.0912   -492.75043    105.95695     12.69755   -21.191236      46.7237      46.7237      46.7237           90           90           90     102002.7   -730.80625 
  518000       517497   -6484.1341    660.05616   -7144.1903    4437.8942   -11582.084    127.48138   -896.71952   -368.14997   -598.09412     47.54044      99.7385    272.61998      46.7237      46.7237      46.7237           90           90           90     102002.7   -620.98787 
  519000       518497   -6464.2555    694.93838   -7159.1939    4406.2293   -11565.423    134.21844   -760.01815   -539.49353   -1165.5066   -76.533053   -55.850574    131.62439      46.7237      46.7237      46.7237           90           90           90     102002.7   -821.67276 
  520000       519497   -6483.3308    651.87521    -7135.206    4418.5392   -11553.745    125.90134    -252.6052   -641.99239   -881.44438    232.12214   -18.940953    18.000696      46.7237      46.7237      46.7237           90           90           90     102002.7   -592.01399 
  521000       520497   -6465.0046    667.47679   -7132.4814    4441.7097   -11574.191    128.91458   -584.30945   -1135.7766   -958.28731    5.7274393   -13.130577     468.5766      46.7237      46.7237      46.7237           90           90           90     102002.7   -892.79113 
  522000       521497   -6467.4293    691.05969   -7158.4889    4400.9959   -11559.485    133.46932   -1093.5837     -606.179   -967.54874    -93.74187   -86.595507   -74.682976      46.7237      46.7237      46.7237           90           90           90     102002.7    -889.1038 
  523000       522497   -6497.0827    657.16468   -7154.2474    4405.1637   -11559.411    126.92293   -875.20544   -1349.9912   -521.61741     135.6391   -20.618749   -119.01327      46.7237      46.7237      46.7237           90           90           90     102002.7   -915.60468 
  524000       523497    -6464.868    675.23808    -7140.106     4415.711   -11555.817    130.41358   -417.93547   -931.02262   -998.55564    63.601958    -46.78084    17.897518      46.7237      46.7237      46.7237           90           90           90     102002.7   -782.50457 
  525000       524497   -6519.0135    648.86759   -7167.8811     4386.297   -11554.178    125.32046   -754.76912   -796.66221   -408.63486    -40.63255    -38.05313   -23.258736      46.7237      46.7237      46.7237           90           90           90     102002.7    -653.3554 
  526000       525497   -6473.2139    665.30241   -7138.5163    4431.6484   -11570.165    128.49463   -925.92688   -773.88033   -1098.2016    255.68337    -34.75244   -46.763682      46.7237      46.7237      46.7237           90           90           90     102002.7    -932.6696 
  527000       526497   -6472.2614      669.202   -7141.4634    4424.1813   -11565.645    129.24778   -1280.2761   -723.06696   -1114.7351    344.89019    75.818794    -148.1875      46.7237      46.7237      46.7237           90           90           90     102002.7   -1039.3594 
  528000       527497   -6485.7805    680.94621   -7166.7267    4402.2605   -11568.987    131.51603   -646.05126    -547.7822   -1014.6634    206.28472    310.45827    205.91549      46.7237      46.7237      46.7237           90           90           90     102002.7   -736.16562 
  529000       528497   -6463.8044    668.26997   -7132.0744    4426.2358    -11558.31    129.06778   -989.99305   -674.62582   -1209.5212   -162.20492    21.297743    99.787586      46.7237      46.7237      46.7237           90           90           90     102002.7   -958.04669 
  530000       529497   -6455.9029    674.57593   -7130.4789    4443.9513    -11574.43    130.28569   -471.18827    -1050.345    -299.9558   -214.57346    158.09264    310.44352      46.7237      46.7237      46.7237           90           90           90     102002.7   -607.16302 
  531000       530497   -6464.4263    673.08864   -7137.5149    4419.6367   -11557.152    129.99844   -681.32474   -356.08782   -637.00471     254.5388    309.59749    31.683767      46.7237      46.7237      46.7237           90           90           90     102002.7   -558.13909 
  532000       531497   -6493.7828    660.73199   -7154.5148    4406.7848     -11561.3    127.61191   -633.17828   -430.66593   -525.55457    139.13565   -262.34134    113.47993      46.7237      46.7237      46.7237           90           90           90     102002.7   -529.79959 
  533000       532497   -6466.1771    658.15771   -7124.3348    4452.0926   -11576.427    127.11472   -1085.8526   -958.02222   -777.68389   -241.45778   -30.775416   -154.86434      46.7237      46.7237      46.7237           90           90           90     102002.7   -940.51956 
  534000       533497   -6478.8651    662.70382   -7141.5689    4420.4281   -11561.997    127.99274   -1255.9162   -758.29132   -649.08422   -5.4303846   -93.486129   -9.5157607      46.7237      46.7237      46.7237           90           90           90     102002.7   -887.76391 
  535000       534497   -6480.8476    659.39416   -7140.2417    4418.1434   -11558.385    127.35353   -679.93348   -384.32753   -1720.0762    249.89962    90.407729   -132.70956      46.7237      46.7237      46.7237           90           90           90     102002.7    -928.1124 
  536000       535497   -6445.0101    678.12965   -7123.1397    4421.6595   -11544.799    130.97205   -1142.5146   -1010.1181   -1154.5289   -83.790611   -185.83416    94.398318      46.7237      46.7237      46.7237           90           90           90     102002.7   -1102.3872 
  537000       536497   -6475.3315    679.98894   -7155.3205    4406.5598    -11561.88    131.33114   -594.37943   -1071.1674   -700.54615    41.064499    58.709872    233.08525      46.7237      46.7237      46.7237           90           90           90     102002.7   -788.69765 
  538000       537497   -6491.3333    642.69011   -7134.0234    4431.9333   -11565.957    124.12735   -1263.2322   -613.59579   -1260.3338    81.559164    -249.2771    336.13871      46.7237      46.7237      46.7237           90           90           90     102002.7   -1045.7206 
  539000       538497   -6448.5123     673.4331   -7121.9454    4421.7649    -11543.71    130.06497    -941.0588   -909.09193   -511.88378    65.292573   -119.56498   -193.29194      46.7237      46.7237      46.7237           90           90           90     102002.7   -787.34483 
  540000       539497   -6476.3404    670.18025   -7146.5207    4419.7322   -11566.253    129.43672   -750.61367   -819.10878   -380.93342    201.62887   -296.09772   -43.470368      46.7237      46.7237      46.7237           90           90           90     102002.7   -650.21862 
  541000       540497   -6455.1702    675.20743   -7130.3777    4417.6422    -11548.02    130.40766   -735.72487   -456.26603   -632.33721    142.84398   -156.98983    3.9111093      46.7237      46.7237      46.7237           90           90           90     102002.7   -608.10937 
  542000       541497   -6459.9177    683.62054   -7143.5382    4418.4049   -11561.943    132.03254   -801.79883   -1042.8877   -1427.9851    204.82954     52.67386    134.95891      46.7237      46.7237      46.7237           90           90           90     102002.7   -1090.8905 
  543000       542497   -6513.9013    652.03638   -7165.9377    4394.0298   -11559.967    125.93247   -704.78941   -195.31283   -940.67597   -298.87398   -195.65828   -126.86595      46.7237      46.7237      46.7237           90           90           90     102002.7   -613.59274 
  544000       543497   -6465.7249    681.07539   -7146.8003    4406.9625   -11553.763    131.54098   -793.83934   -695.62913   -808.57596   -31.626463    295.36699   -297.46242      46.7237      46.7237      46.7237           90           90           90     102002.7   -766.01481 
  545000       544497   -6436.7938    682.25694   -7119.0507    4446.1298   -11565.181    131.76918   -924.38503    -910.3342   -524.77754   -198.10952    36.125259    178.61222      46.7237      46.7237      46.7237           90           90           90     102002.7   -786.49892 
  546000       545497    -6474.249    661.83031   -7136.0794     4407.231    -11543.31    127.82404   -1184.9462   -271.29517   -428.58957    -7.476832   -228.38532    189.95704      46.7237      46.7237      46.7237           90           90           90     102002.7   -628.27699 
  547000       546497   -6446.1321    687.97234   -7134.1044    4431.3146   -11565.419    132.87304   -547.93136   -779.77644   -982.46732   -350.45313   -108.90149   -32.521215      46.7237      46.7237      46.7237           90           90           90     102002.7   -770.05837 
  548000       547497   -6505.1954    656.48669   -7161.6821    4402.5318   -11564.214    126.79199   -425.80173   -205.10392   -535.05034    -132.0721   -20.143279    55.311037      46.7237      46.7237      46.7237           90           90           90     102002.7     -388.652 
  549000       548497    -6470.181    672.93063   -7143.1116    4428.3432   -11571.455    129.96792   -766.28276    -806.2166    -112.5873   -35.393461    133.09162    142.75136      46.7237      46.7237      46.7237           90           90           90     102002.7   -561.69555 
  550000       549497   -6471.1024    680.62424   -7151.7267    4410.0832    -11561.81    131.45384    -715.3596   -576.96251   -662.31826    31.288359    140.79134   -5.0684847      46.7237      46.7237      46.7237           90           90           90     102002.7   -651.54679 
  551000       550497   -6453.8239     695.9338   -7149.7577    4398.9454   -11548.703    134.41069   -861.52333   -627.48746    -589.5286   -75.313043   -86.664682    143.58299      46.7237      46.7237      46.7237           90           90           90     102002.7   -692.84646 
  552000       551497   -6482.4937    652.54533    -7135.039    4430.3713    -11565.41    126.03076   -1300.5451   -685.55787   -41.642231    187.75836    49.193894    48.182745      46.7237      46.7237      46.7237           90           90           90     102002.7   -675.91505 
  553000       552497   -6464.9316    669.10703   -7134.0386    4418.8786   -11552.917    129.22944   -645.76782   -678.67613   -892.16439   -141.66532   -310.71333    206.44308      46.7237      46.7237      46.7237           90           90           90     102002.7   -738.86945 
  554000       553497   -6504.0582    667.51632   -7171.5745    4378.1119   -11549.686    128.92222   -815.91683   -698.39657   -833.96517   -245.08999   -11.644428    119.87131      46.7237      46.7237      46.7237           90           90           90     102002.7   -782.75952 
  555000       554497   -6471.8617    665.75298   -7137.6147    4424.3615   -11561.976    128.58165   -1230.8114    -906.7338   -1357.0173   -39.585495   -11.472733    58.527807      46.7237      46.7237      46.7237           90           90           90     102002.7   -1164.8542 
[...]
  936000       935497   -6472.7862    661.71437   -7134.5006    4408.1098    -11542.61    127.80165   -1018.4493   -586.27394   -884.22734   -155.35002   -174.50192   -111.02731      46.7237      46.7237      46.7237           90           90           90     102002.7    -829.6502 
  937000       936497   -6494.8833    650.85818   -7145.7415    4403.6708   -11549.412    125.70491   -510.95886   -543.96528   -338.55762   -77.511204   -44.567732    70.461525      46.7237      46.7237      46.7237           90           90           90     102002.7   -464.49392 
  938000       937497   -6475.4385    652.98582   -7128.4243    4419.9549   -11548.379    126.11584   -714.63727   -758.07072   -804.09212   -198.02189    -146.1143    182.88682      46.7237      46.7237      46.7237           90           90           90     102002.7   -758.93337 
  939000       938497   -6460.8374    679.41368   -7140.2511     4423.584   -11563.835    131.22004   -970.54718   -552.39166   -297.17677   -159.30478    91.284674   -158.90942      46.7237      46.7237      46.7237           90           90           90     102002.7    -606.7052 
  940000       939497    -6478.869    657.89958   -7136.7686    4421.3932   -11558.162    127.06487   -765.87328   -244.16765   -845.54044     161.3368    74.743903   -313.34082      46.7237      46.7237      46.7237           90           90           90     102002.7   -618.52712 
  941000       940497   -6468.4463    676.43764   -7144.8839     4410.931   -11555.815    130.64526   -763.70427   -919.43169   -750.05286    12.892044   -50.628006    83.962657      46.7237      46.7237      46.7237           90           90           90     102002.7   -811.06294 
  942000       941497   -6452.7252    688.91992   -7141.6451    4433.5056   -11575.151    133.05605   -889.76241   -747.77624   -891.96961    106.91248    12.293057   -3.7907099      46.7237      46.7237      46.7237           90           90           90     102002.7   -843.16942 
  943000       942497   -6446.0286    694.41901   -7140.4476    4411.2735   -11551.721    134.11813   -799.36193   -786.01894   -454.46503    104.59006   -277.81632   -51.526503      46.7237      46.7237      46.7237           90           90           90     102002.7   -679.94863 
  944000       943497   -6488.2512    667.51965   -7155.7708    4409.2853   -11565.056    128.92286   -546.88847   -280.50216    -402.3285   -9.0054159   -315.08993    -165.1191      46.7237      46.7237      46.7237           90           90           90     102002.7   -409.90638 
  945000       944497   -6488.8786     667.1975   -7156.0761    4407.3804   -11563.456    128.86064    27.074707   -865.57544   -664.33605    130.39287   -245.92345  -0.54959426      46.7237      46.7237      46.7237           90           90           90     102002.7   -500.94559 
  946000       945497   -6441.3659    686.30642   -7127.6724    4419.1207   -11546.793    132.55129   -537.39067   -834.21893   -513.56716    272.86229   -242.93286   -218.25157      46.7237      46.7237      46.7237           90           90           90     102002.7   -628.39225 
  947000       946497   -6462.1662    668.01408   -7130.1802    4426.6186   -11556.799    129.01835   -699.14078   -877.67234   -475.86615    18.215706    41.668089   -51.857835      46.7237      46.7237      46.7237           90           90           90     102002.7   -684.22643 
  948000       947497   -6461.5388    675.60731   -7137.1461    4423.6887   -11560.835    130.48489   -702.55233    -541.8561   -223.26941   -263.60834    -15.69746    105.40304      46.7237      46.7237      46.7237           90           90           90     102002.7   -489.22595 
  949000       948497   -6465.2041    679.49793   -7144.7021    4426.3855   -11571.088    131.23631   -1132.4503    -614.1315    -1334.439    126.48261    157.28537    193.79029      46.7237      46.7237      46.7237           90           90           90     102002.7   -1027.0069 
  950000       949497   -6485.7867    668.47072   -7154.2574    4424.7711   -11579.029    129.10655   -761.19529   -382.52911   -781.66398    103.59741      269.356    237.12424      46.7237      46.7237      46.7237           90           90           90     102002.7   -641.79613 
  951000       950497    -6497.732    662.59017   -7160.3222    4422.4766   -11582.799     127.9708   -1178.3173    -425.6518   -1129.0603   -63.613389    26.046215    -122.5086      46.7237      46.7237      46.7237           90           90           90     102002.7   -911.00981 
  952000       951497   -6463.9858    663.74471   -7127.7305     4440.412   -11568.142    128.19378   -1024.7554   -991.22973    -792.6342   -304.71681    86.804989   -238.58664      46.7237      46.7237      46.7237           90           90           90     102002.7   -936.20644 
  953000       952497   -6503.4349    668.00521   -7171.4401    4378.1644   -11549.605    129.01664   -764.99185   -1317.1495   -1256.2187    -257.4274    405.36883    91.754104      46.7237      46.7237      46.7237           90           90           90     102002.7   -1112.7867 
  954000       953497   -6471.2921    668.25397   -7139.5461    4411.2368   -11550.783    129.06469   -467.07507   -699.01446    -958.3009   -41.686755    221.99901   -194.58035      46.7237      46.7237      46.7237           90           90           90     102002.7   -708.13014 
  955000       954497   -6452.1208    696.64545   -7148.7663    4425.3735    -11574.14    134.54814   -867.08741   -722.20285   -515.48857    -90.32659   -247.16739   -37.769927      46.7237      46.7237      46.7237           90           90           90     102002.7   -701.59294 
  956000       955497   -6494.8741    644.30331   -7139.1774    4411.5412   -11550.719    124.43892   -1248.2915   -740.35104   -1063.3834    18.723412   -209.36783    240.02197      46.7237      46.7237      46.7237           90           90           90     102002.7    -1017.342 
  957000       956497   -6449.1231    694.79659   -7143.9197    4418.2704    -11562.19    134.19105   -992.91992   -370.52603   -1026.0638    120.18803    -103.3764    58.210548      46.7237      46.7237      46.7237           90           90           90     102002.7   -796.50324 
  958000       957497   -6458.7982    685.34885   -7144.1471    4421.3736   -11565.521    132.36634   -1116.5241   -1208.1546   -813.20805   -3.5470453    220.84846    4.0232303      46.7237      46.7237      46.7237           90           90           90     102002.7   -1045.9623 
  959000       958497   -6452.8687    675.96252   -7128.8313    4449.3094   -11578.141    130.55349   -339.38118   -1229.3478   -603.29622    81.179077    158.95528      289.053      46.7237      46.7237      46.7237           90           90           90     102002.7    -724.0084 
  960000       959497   -6476.5957    674.91922   -7151.5149    4402.3747    -11553.89    130.35199   -604.30533   -532.23082   -1088.7318   -190.12064    44.623265    79.153653      46.7237      46.7237      46.7237           90           90           90     102002.7   -741.75598 
  961000       960497   -6476.4893    665.29183   -7141.7811    4428.7288    -11570.51    128.49259     -580.245    -716.1543   -573.71516   -93.377237    373.26848    183.79776      46.7237      46.7237      46.7237           90           90           90     102002.7   -623.37148 
  962000       961497    -6452.746    675.47393   -7128.2199    4433.5711   -11561.791    130.45913    -801.7537   -212.84751   -939.87937    143.89182    350.01974   -219.23887      46.7237      46.7237      46.7237           90           90           90     102002.7   -651.49353 
  963000       962497   -6469.2289    661.18821   -7130.4171     4437.468   -11567.885    127.70002    -334.9685   -721.35234   -1194.2569    -38.50002    254.77989   -137.63283      46.7237      46.7237      46.7237           90           90           90     102002.7   -750.19259 
  964000       963497   -6477.7986    657.91228   -7135.7109    4412.7593    -11548.47    127.06732   -1139.5514   -151.07759    -632.7984    294.40939   -152.20867   -179.08753      46.7237      46.7237      46.7237           90           90           90     102002.7   -641.14247 
  965000       964497   -6471.9193    661.05214   -7132.9714     4439.115   -11572.086    127.67375   -945.88716   -771.91086   -823.52146    357.59154   -32.436926   -184.84042      46.7237      46.7237      46.7237           90           90           90     102002.7   -847.10649 
  966000       965497   -6471.1449    670.97242   -7142.1173     4419.072   -11561.189    129.58972   -677.28148   -957.20097   -754.26486    32.391087    6.0643605    125.12769      46.7237      46.7237      46.7237           90           90           90     102002.7    -796.2491 
  967000       966497   -6444.9086     699.2618   -7144.1704    4424.1502   -11568.321    135.05345   -1206.0011   -253.29602   -704.36559    190.87096    110.10441    62.013116      46.7237      46.7237      46.7237           90           90           90     102002.7   -721.22091 
  968000       967497   -6449.2909    685.88428   -7135.1752    4435.0132   -11570.188    132.46975   -1053.1422   -1146.6366   -602.75412    113.49969   -283.21816   -131.93358      46.7237      46.7237      46.7237           90           90           90     102002.7   -934.17763 
  969000       968497   -6484.7821    651.62758   -7136.4097    4436.2968   -11572.706    125.85351   -700.99948   -1060.8843    -1389.614   -63.232077   -33.978034     175.1666      46.7237      46.7237      46.7237           90           90           90     102002.7   -1050.4993 
  970000       969497    -6429.616    692.56265   -7122.1786    4430.0407   -11552.219    133.75959   -187.57455   -702.68421   -629.33272   -327.15495   -136.71533   -357.21563      46.7237      46.7237      46.7237           90           90           90     102002.7    -506.5305 
  971000       970497   -6464.3058    679.44798   -7143.7538    4430.8658    -11574.62    131.22667   -1064.5163   -1204.7114    -808.7362   -23.489348   -23.127512   -195.19578      46.7237      46.7237      46.7237           90           90           90     102002.7    -1025.988 
  972000       971497   -6500.8187    662.53843   -7163.3572    4404.3148   -11567.672     127.9608   -332.42502   -1186.6482   -1105.9397     104.8915    242.99909   -59.893091      46.7237      46.7237      46.7237           90           90           90     102002.7   -875.00431 
  973000       972497   -6463.8422    659.36151   -7123.2037    4435.7988   -11559.002    127.34722    -990.7337   -520.49475   -684.37972   -203.64683    30.829349    135.04213      46.7237      46.7237      46.7237           90           90           90     102002.7   -731.86939 
  974000       973497   -6463.0223    685.39769   -7148.4199    4404.3392   -11552.759    132.37577   -852.39376   -955.01714    -861.5724    215.63228   -53.709796   -196.93771      46.7237      46.7237      46.7237           90           90           90     102002.7    -889.6611 
  975000       974497   -6456.9496    676.85493   -7133.8046    4435.3558    -11569.16    130.72585   -1227.7578   -560.43905   -753.29742   -88.335947   -27.947852    11.188599      46.7237      46.7237      46.7237           90           90           90     102002.7   -847.16475 
  976000       975497   -6471.6364    681.56991   -7153.2064    4402.6804   -11555.887    131.63649   -693.33202   -498.24655    118.89562    117.35839    12.067541    104.76651      46.7237      46.7237      46.7237           90           90           90     102002.7   -357.56098 
  977000       976497    -6478.839      686.413    -7165.252    4395.7042   -11560.956    132.57187   -632.53155   -489.11075   -1638.1194    111.87306    -188.0359   -74.506558      46.7237      46.7237      46.7237           90           90           90     102002.7   -919.92056 
  978000       977497    -6479.755    663.24998    -7143.005    4432.3035   -11575.309    128.09823   -1158.5359   -657.63413   -294.13911   -242.70767    315.54189   -14.200107      46.7237      46.7237      46.7237           90           90           90     102002.7   -703.43639 
  979000       978497    -6471.703    678.76355   -7150.4666    4400.7036    -11551.17    131.09448   -701.06893   -1092.1066    -926.7987    131.78242    118.96564    185.71699      46.7237      46.7237      46.7237           90           90           90     102002.7   -906.65807 
  980000       979497   -6483.8904    654.65765   -7138.5481    4427.3295   -11565.878    126.43873   -1096.7568   -962.96761   -1064.9343    123.62835    36.064905    -43.78798      46.7237      46.7237      46.7237           90           90           90     102002.7   -1041.5529 
  981000       980497   -6443.9911    685.80367   -7129.7948    4438.3656    -11568.16    132.45419   -607.27919   -976.29606   -823.71032   -134.43832    12.065424       270.95      46.7237      46.7237      46.7237           90           90           90     102002.7   -802.42852 
  982000       981497   -6489.8809    645.37031   -7135.2512    4432.6472   -11567.898      124.645    -1097.114    -1485.835   -1002.7187    -89.22439     24.37476   -193.18851      46.7237      46.7237      46.7237           90           90           90     102002.7   -1195.2226 
  983000       982497   -6477.3005    669.97437   -7147.2749    4424.4697   -11571.745    129.39696   -849.93363   -953.19368   -754.60769     229.7583    3.1789247   -405.96024      46.7237      46.7237      46.7237           90           90           90     102002.7   -852.57834 
  984000       983497   -6489.1904    667.28729   -7156.4777    4420.1855   -11576.663    128.87798   -787.89918   -712.15579   -898.99484   -81.294335   -10.442608   -29.540012      46.7237      46.7237      46.7237           90           90           90     102002.7   -799.68327 
  985000       984497   -6464.6941    680.94117   -7145.6353    4405.9608   -11551.596    131.51506   -958.75226   -661.75431   -621.02697    63.863879    166.41751   -208.93424      46.7237      46.7237      46.7237           90           90           90     102002.7   -747.17785 
  986000       985497   -6464.6473      687.019   -7151.6663    4413.8828   -11565.549    132.68891   -1195.3544   -916.49314   -453.00804    230.44085   -115.13266   -391.16676      46.7237      46.7237      46.7237           90           90           90     102002.7   -854.95187 
  987000       986497   -6476.2208    678.86863   -7155.0894    4410.2021   -11565.291    131.11477   -196.03671   -1544.6421   -965.85291     24.96792    47.431429   -3.7284325      46.7237      46.7237      46.7237           90           90           90     102002.7   -902.17723 
  988000       987497   -6456.8199    675.09799   -7131.9179    4455.2293   -11587.147    130.38652   -1634.0549   -982.66333   -751.86162   -53.961537     187.2737   -342.92177      46.7237      46.7237      46.7237           90           90           90     102002.7   -1122.8599 
  989000       988497   -6497.9595    664.02651    -7161.986    4417.5776   -11579.564    128.24821    -1422.485   -982.99927   -844.89682   -13.336486   -277.03739    153.91963      46.7237      46.7237      46.7237           90           90           90     102002.7   -1083.4604 
  990000       989497   -6469.2687    682.65516   -7151.9238    4415.5324   -11567.456    131.84609   -771.61389   -806.17876   -695.26324    106.10282   -271.19632   -1.7221927      46.7237      46.7237      46.7237           90           90           90     102002.7    -757.6853 
  991000       990497   -6474.7528    677.39768   -7152.1505    4418.9042   -11571.055    130.83067   -1201.7914   -800.44343   -1385.5281    74.420426   -152.29528   -113.59534      46.7237      46.7237      46.7237           90           90           90     102002.7   -1129.2543 
  992000       991497   -6493.3921    661.03469   -7154.4268     4404.244   -11558.671    127.67037    -1027.873   -734.43095   -382.84787    228.35892    13.225496      5.13967      46.7237      46.7237      46.7237           90           90           90     102002.7   -715.05061 
  993000       992497    -6469.775    675.24765   -7145.0227    4407.2865   -11552.309    130.41543   -687.35741   -870.91054   -373.29297    324.03911   -29.241092   -108.00369      46.7237      46.7237      46.7237           90           90           90     102002.7   -643.85364 
  994000       993497   -6494.2185    669.53802   -7163.7565    4384.7966   -11548.553    129.31268   -453.97094   -1186.6111   -780.38097  -0.14591526    41.405619    69.245408      46.7237      46.7237      46.7237           90           90           90     102002.7   -806.98768 
  995000       994497   -6454.5537    678.43065   -7132.9843    4433.1724   -11566.157    131.03018   -632.34451   -656.36892   -1175.5044    89.732711   -340.24219   -25.659234      46.7237      46.7237      46.7237           90           90           90     102002.7   -821.40593 
  996000       995497   -6494.9923    655.78617   -7150.7784    4418.5516    -11569.33    126.65669   -756.98594   -914.80532    -1219.398    74.021308    19.976578   -35.050044      46.7237      46.7237      46.7237           90           90           90     102002.7   -963.72977 
  997000       996497   -6461.6445    665.44003   -7127.0845    4424.6326   -11551.717    128.52121   -528.97205   -769.06112   -1099.8899   -311.61638    234.28866   -51.500414      46.7237      46.7237      46.7237           90           90           90     102002.7   -799.30769 
  998000       997497   -6459.5288    675.17204   -7134.7009    4437.2134   -11571.914    130.40082   -556.25147   -1279.9261   -516.47793    -39.09525     42.87137    6.9903645      46.7237      46.7237      46.7237           90           90           90     102002.7   -784.21849 
  999000       998497   -6489.5876    646.84281   -7136.4304    4419.8891    -11556.32    124.92939   -653.46614   -874.62858   -1039.0015   -8.0301151    47.979719   -161.93616      46.7237      46.7237      46.7237           90           90           90     102002.7   -855.69873 
 1000000       999497   -6479.1405    665.94364   -7145.0842    4426.0965   -11571.181    128.61847   -1015.5274   -686.33313   -563.38287    33.265433   -105.08043   -40.132816      46.7237      46.7237      46.7237           90           90           90     102002.7   -755.08115 
 1000503      1000000   -6464.3072    664.59213   -7128.8994    4423.2316   -11552.131    128.35745   -867.38665   -996.35512   -1027.3182    22.719176   -216.76414   -116.14861      46.7237      46.7237      46.7237           90           90           90     102002.7   -963.68665 
Loop time of 1339.03 on 16 procs for 500000 steps with 1738 atoms

Performance: 32.262 ns/day, 0.744 hours/ns, 373.405 timesteps/s
99.8% CPU use with 16 MPI tasks x no OpenMP threads

MPI task timing breakdown:
Section |  min time  |  avg time  |  max time  |%varavg| %total
---------------------------------------------------------------
Pair    | 660.57     | 769.98     | 882.76     | 226.7 | 57.50
Bond    | 152.57     | 183.2      | 211.34     | 184.2 | 13.68
Neigh   | 4.1997     | 4.2109     | 4.2187     |   0.3 |  0.31
Comm    | 266.44     | 354.78     | 440.74     | 272.6 | 26.50
Output  | 0.094851   | 0.099838   | 0.10026    |   0.4 |  0.01
Modify  | 21.213     | 21.66      | 22.347     |   7.4 |  1.62
Other   |            | 5.105      |            |       |  0.38

Nlocal:    108.625 ave 132 max 64 min
Histogram: 1 0 1 1 1 0 4 2 4 2
Nghost:    2216.62 ave 2261 max 2196 min
Histogram: 5 2 2 3 0 1 0 2 0 1
Neighs:    11458.1 ave 15295 max 7782 min
Histogram: 3 0 1 3 1 2 1 2 2 1

Total # of neighbors = 183329
Ave neighs/atom = 105.483
Ave special neighs/atom = 6.62831
Neighbor list builds = 3677
Dangerous builds = 0
Total wall time: 0:42:59
