LAMMPS (30 Mar 2018)
Reading data file ...
  orthogonal box = (0 0 0) to (46.7237 46.7237 46.7237)
  2 by 2 by 4 MPI processor grid
  reading atoms ...
  3231 atoms
  scanning bonds ...
  5 = max bonds/atom
  scanning angles ...
  10 = max angles/atom
  scanning dihedrals ...
  32 = max dihedrals/atom
  scanning impropers ...
  3 = max impropers/atom
  reading bonds ...
  2064 bonds
  reading angles ...
  3696 angles
  reading dihedrals ...
  6240 dihedrals
  reading impropers ...
  1008 impropers
Finding 1-2 1-3 1-4 neighbors ...
  special bond factors lj:   0          0          0         
  special bond factors coul: 0          0          0         
  5 = max # of 1-2 neighbors
  8 = max # of 1-3 neighbors
  20 = max # of 1-4 neighbors
  19 = max # of special neighbors
Finding 1-2 1-3 1-4 neighbors ...
  special bond factors lj:   0          0          1         
  special bond factors coul: 1          1          1         
  5 = max # of 1-2 neighbors
  8 = max # of 1-3 neighbors
  19 = max # of special neighbors
WARNING: Using 'neigh_modify every 1 delay 0 check yes' setting during minimization (../min.cpp:168)
Neighbor list info ...
  update every 1 steps, delay 0 steps, check yes
  max neighbors/atom: 2000, page size: 100000
  master list distance cutoff = 16
  ghost atom cutoff = 16
  binsize = 8, bins = 6 6 6
  3 neighbor lists, perpetual/occasional/extra = 3 0 0
  (1) pair buck6d/coul/gauss/dsf, perpetual, skip from (3)
      attributes: half, newton on
      pair build: skip
      stencil: none
      bin: none
  (2) pair lj/cut, perpetual, skip from (3)
      attributes: half, newton on
      pair build: skip
      stencil: none
      bin: none
  (3) neighbor class addition, perpetual
      attributes: half, newton on
      pair build: half/bin/newton
      stencil: half/bin/3d/newton
      bin: standard
Setting up cg style minimization ...
  Unit style    : real
  Current step  : 0
WARNING: Inconsistent image flags (../domain.cpp:786)
Per MPI rank memory allocation (min/avg/max) = 23.02 | 23.47 | 23.92 Mbytes
Step Temp E_pair E_mol TotEng Press 
       0            0   -15686.093    6482.8914   -9203.2014    6034.0828 
     500            0   -16033.359    3760.6645   -12272.694   -1804.0995 
Loop time of 4.52906 on 16 procs for 500 steps with 3231 atoms

99.9% CPU use with 16 MPI tasks x no OpenMP threads

Minimization stats:
  Stopping criterion = max force evaluations
  Energy initial, next-to-last, final = 
         -9203.2013643     -12272.6410951     -12272.6942707
  Force two-norm initial, final = 2575.23 10.7975
  Force max component initial, final = 152.09 1.58556
  Final line search alpha, max atom move = 0.0108593 0.0172181
  Iterations, force evaluations = 500 1000

MPI task timing breakdown:
Section |  min time  |  avg time  |  max time  |%varavg| %total
---------------------------------------------------------------
Pair    | 2.2908     | 3.0243     | 3.7085     |  20.4 | 66.77
Bond    | 0.27458    | 0.3598     | 0.42047    |   7.6 |  7.94
Neigh   | 0.031075   | 0.031334   | 0.031554   |   0.1 |  0.69
Comm    | 0.34699    | 1.0695     | 1.8249     |  36.1 | 23.61
Output  | 0          | 0          | 0          |   0.0 |  0.00
Modify  | 0          | 0          | 0          |   0.0 |  0.00
Other   |            | 0.04412    |            |       |  0.97

Nlocal:    201.938 ave 227 max 170 min
Histogram: 1 2 3 0 0 1 0 5 2 2
Nghost:    4031.5 ave 4070 max 4002 min
Histogram: 2 4 2 1 1 1 0 0 3 2
Neighs:    11489.9 ave 16633 max 6164 min
Histogram: 1 0 1 4 4 2 0 0 2 2

Total # of neighbors = 183839
Ave neighs/atom = 56.8985
Ave special neighs/atom = 3.56546
Neighbor list builds = 9
Dangerous builds = 0
Neighbor list info ...
  update every 1 steps, delay 10 steps, check yes
  max neighbors/atom: 2000, page size: 100000
  master list distance cutoff = 16
  ghost atom cutoff = 16
  binsize = 8, bins = 6 6 6
  3 neighbor lists, perpetual/occasional/extra = 3 0 0
  (1) pair buck6d/coul/gauss/dsf, perpetual, skip from (3)
      attributes: half, newton on
      pair build: skip
      stencil: none
      bin: none
  (2) pair lj/cut, perpetual, skip from (3)
      attributes: half, newton on
      pair build: skip
      stencil: none
      bin: none
  (3) neighbor class addition, perpetual
      attributes: half, newton on
      pair build: half/bin/newton
      stencil: half/bin/3d/newton
      bin: standard
Setting up Verlet run ...
  Unit style    : real
  Current step  : 500
  Time step     : 1
WARNING: Inconsistent image flags (../domain.cpp:786)
Per MPI rank memory allocation (min/avg/max) = 22.66 | 22.74 | 22.79 Mbytes
Step Temp PotEng TotEng Press Volume Lx Ly Lz 
     500           91   -12272.694   -11396.545   -1411.4551     102002.7      46.7237      46.7237      46.7237 
    1000    75.423508   -11534.417   -10808.238   -533.99016     102002.7      46.7237      46.7237      46.7237 
    2000    93.376435   -11402.652   -10503.622   -547.69526     102002.7      46.7237      46.7237      46.7237 
    3000    90.281662   -11443.245   -10574.012   -192.68095     102002.7      46.7237      46.7237      46.7237 
    4000     91.56067   -11446.362   -10564.814    -39.87016     102002.7      46.7237      46.7237      46.7237 
    5000    90.963536   -11441.343   -10565.545   -318.33063     102002.7      46.7237      46.7237      46.7237 
    6000    89.948132   -11421.703   -10555.681   -107.91023     102002.7      46.7237      46.7237      46.7237 
    7000    91.768184   -11422.848   -10539.302   -252.06812     102002.7      46.7237      46.7237      46.7237 
    8000    90.820676   -11423.676   -10549.253   -21.274057     102002.7      46.7237      46.7237      46.7237 
    9000    92.014462   -11426.482   -10540.565   -257.89975     102002.7      46.7237      46.7237      46.7237 
   10000    91.282222   -11455.602   -10576.736    32.623227     102002.7      46.7237      46.7237      46.7237 
   11000    92.756858   -11439.739   -10546.674   -118.61494     102002.7      46.7237      46.7237      46.7237 
   12000    91.763855   -11445.568   -10562.064   -347.29226     102002.7      46.7237      46.7237      46.7237 
   13000    90.677061   -11469.882   -10596.841   -311.82268     102002.7      46.7237      46.7237      46.7237 
   14000    89.479038     -11440.7   -10579.194   -63.774846     102002.7      46.7237      46.7237      46.7237 
   15000    90.465357   -11445.208   -10574.206   -113.21582     102002.7      46.7237      46.7237      46.7237 
   16000    90.742635   -11444.584   -10570.912   -26.015047     102002.7      46.7237      46.7237      46.7237 
   17000    91.157509   -11459.696    -10582.03   -210.98181     102002.7      46.7237      46.7237      46.7237 
   18000    89.003767   -11478.754   -10621.824   -128.47712     102002.7      46.7237      46.7237      46.7237 
   19000     89.81833   -11456.072     -10591.3   -384.25391     102002.7      46.7237      46.7237      46.7237 
   20000    90.747124   -11462.953   -10589.238   -103.85885     102002.7      46.7237      46.7237      46.7237 
   21000    89.571562   -11466.153   -10603.757    -32.56446     102002.7      46.7237      46.7237      46.7237 
   22000    90.226066   -11457.477   -10588.779   -336.54114     102002.7      46.7237      46.7237      46.7237 
   23000     91.81306   -11440.581   -10556.604    -420.8835     102002.7      46.7237      46.7237      46.7237 
   24000    90.801208   -11452.516    -10578.28   -239.28233     102002.7      46.7237      46.7237      46.7237 
   25000    93.450531   -11466.356   -10566.612   -233.09915     102002.7      46.7237      46.7237      46.7237 
   26000    92.840265   -11454.655   -10560.787   -298.40897     102002.7      46.7237      46.7237      46.7237 
   27000    91.045484   -11453.434   -10576.847   -378.65209     102002.7      46.7237      46.7237      46.7237 
   28000    91.373742   -11444.042   -10564.294   -283.57753     102002.7      46.7237      46.7237      46.7237 
   29000    91.619826   -11468.875   -10586.758   -285.05356     102002.7      46.7237      46.7237      46.7237 
   30000    91.641898   -11426.915   -10544.585   -243.53769     102002.7      46.7237      46.7237      46.7237 
   31000    93.998866   -11452.325   -10547.303   -338.93782     102002.7      46.7237      46.7237      46.7237 
   32000    89.754304   -11437.516   -10573.361    59.143262     102002.7      46.7237      46.7237      46.7237 
   33000    91.945816   -11471.414   -10586.158   -462.41631     102002.7      46.7237      46.7237      46.7237 
   34000    90.062631   -11451.377   -10584.252   -501.64578     102002.7      46.7237      46.7237      46.7237 
   35000    91.637272   -11440.924   -10558.639   -218.31205     102002.7      46.7237      46.7237      46.7237 
   36000     90.50268    -11453.39   -10582.029   -476.53441     102002.7      46.7237      46.7237      46.7237 
   37000    92.049724    -11446.29   -10560.034    -152.1161     102002.7      46.7237      46.7237      46.7237 
   38000     91.96626   -11450.918   -10565.465   -30.682136     102002.7      46.7237      46.7237      46.7237 
   39000    93.169582   -11437.181   -10540.143   -607.62066     102002.7      46.7237      46.7237      46.7237 
   40000    90.176705   -11473.232   -10605.009   -237.53152     102002.7      46.7237      46.7237      46.7237 
   41000    91.395432   -11465.146   -10585.189   -279.81879     102002.7      46.7237      46.7237      46.7237 
   42000    91.277821    -11461.52   -10582.695    150.72215     102002.7      46.7237      46.7237      46.7237 
   43000    90.166051   -11471.528   -10603.408   -52.414925     102002.7      46.7237      46.7237      46.7237 
   44000    90.157436   -11453.798    -10585.76   -214.71367     102002.7      46.7237      46.7237      46.7237 
   45000    90.256788   -11467.492   -10598.498   -226.75075     102002.7      46.7237      46.7237      46.7237 
   46000    91.055723   -11437.217   -10560.531   -354.56752     102002.7      46.7237      46.7237      46.7237 
   47000    90.687936   -11468.605    -10595.46   -242.64275     102002.7      46.7237      46.7237      46.7237 
   48000    90.987828    -11493.21   -10617.178    -83.86252     102002.7      46.7237      46.7237      46.7237 
   49000    92.418131   -11469.047   -10579.243   -216.01308     102002.7      46.7237      46.7237      46.7237 
   50000    90.583332   -11463.487    -10591.35   -515.28028     102002.7      46.7237      46.7237      46.7237 
   51000    92.317015   -11466.808   -10577.978   -454.01767     102002.7      46.7237      46.7237      46.7237 
   52000    92.130923   -11442.067   -10555.029   -320.10895     102002.7      46.7237      46.7237      46.7237 
   53000    91.599368   -11461.869   -10579.949    -83.55998     102002.7      46.7237      46.7237      46.7237 
   54000    89.715021   -11448.997   -10585.219   -48.530448     102002.7      46.7237      46.7237      46.7237 
   55000    90.917959   -11466.217   -10590.857    -298.4896     102002.7      46.7237      46.7237      46.7237 
   56000    89.132252     -11465.1   -10606.933   -215.91904     102002.7      46.7237      46.7237      46.7237 
   57000    92.751455   -11480.616   -10587.604   -473.38162     102002.7      46.7237      46.7237      46.7237 
   58000    91.625744   -11487.739   -10605.565   -522.49211     102002.7      46.7237      46.7237      46.7237 
   59000    89.977819   -11444.465   -10578.157    -266.0472     102002.7      46.7237      46.7237      46.7237 
   60000    91.632611    -11485.11    -10602.87   -327.23375     102002.7      46.7237      46.7237      46.7237 
   61000    90.765196   -11470.265   -10596.376   -185.67739     102002.7      46.7237      46.7237      46.7237 
   62000    92.579865   -11455.774   -10564.414   -391.66881     102002.7      46.7237      46.7237      46.7237 
   63000    92.445391   -11476.792   -10586.726   -391.34219     102002.7      46.7237      46.7237      46.7237 
   64000    90.275761   -11481.514   -10612.338   -97.265647     102002.7      46.7237      46.7237      46.7237 
   65000    91.717743   -11463.419   -10580.359   -391.73386     102002.7      46.7237      46.7237      46.7237 
   66000    93.397537    -11480.43   -10581.197    -20.79654     102002.7      46.7237      46.7237      46.7237 
   67000    91.753984   -11452.479    -10569.07   -231.82864     102002.7      46.7237      46.7237      46.7237 
   68000    90.215618   -11451.846   -10583.249   -314.11518     102002.7      46.7237      46.7237      46.7237 
   69000    89.231863   -11455.282   -10596.156   -8.5032866     102002.7      46.7237      46.7237      46.7237 
   70000    94.355399   -11492.776    -10584.32   -239.87484     102002.7      46.7237      46.7237      46.7237 
   71000    91.241206   -11474.659   -10596.187   -205.18949     102002.7      46.7237      46.7237      46.7237 
   72000    91.084235   -11466.332   -10589.372   -227.95553     102002.7      46.7237      46.7237      46.7237 
   73000    91.529622   -11465.508   -10584.259   -122.20116     102002.7      46.7237      46.7237      46.7237 
   74000    92.128152   -11445.141   -10558.129    -383.0437     102002.7      46.7237      46.7237      46.7237 
   75000    91.558021   -11481.222     -10599.7   -515.49501     102002.7      46.7237      46.7237      46.7237 
   76000    91.556777   -11462.695   -10581.185   -151.90357     102002.7      46.7237      46.7237      46.7237 
   77000    91.460689    -11454.07   -10573.485   -370.81751     102002.7      46.7237      46.7237      46.7237 
   78000    90.189077    -11488.64   -10620.298   -438.21762     102002.7      46.7237      46.7237      46.7237 
   79000    89.981925   -11459.285   -10592.938   -298.34226     102002.7      46.7237      46.7237      46.7237 
   80000    90.892394   -11453.514     -10578.4   -254.19021     102002.7      46.7237      46.7237      46.7237 
   81000    90.608246   -11487.016   -10614.639   -103.69963     102002.7      46.7237      46.7237      46.7237 
   82000    91.314135   -11479.986   -10600.812    -277.6922     102002.7      46.7237      46.7237      46.7237 
   83000    92.331783   -11471.334   -10582.362   -382.29352     102002.7      46.7237      46.7237      46.7237 
   84000    91.446557   -11474.117   -10593.668    -142.5294     102002.7      46.7237      46.7237      46.7237 
   85000    90.579718   -11462.941   -10590.838    113.14768     102002.7      46.7237      46.7237      46.7237 
   86000    93.899766   -11476.842   -10572.774   -187.42371     102002.7      46.7237      46.7237      46.7237 
   87000    91.149737     -11474.3   -10596.709   -264.40219     102002.7      46.7237      46.7237      46.7237 
   88000     90.31324   -11457.692   -10588.155   -360.63092     102002.7      46.7237      46.7237      46.7237 
   89000     90.00684    -11451.95   -10585.363    10.256159     102002.7      46.7237      46.7237      46.7237 
   90000    93.368501   -11474.041   -10575.088   -184.94239     102002.7      46.7237      46.7237      46.7237 
   91000    90.164557   -11474.804   -10606.699   -117.03498     102002.7      46.7237      46.7237      46.7237 
   92000    89.183265   -11456.329   -10597.671   -75.337566     102002.7      46.7237      46.7237      46.7237 
   93000    89.330503   -11471.936    -10611.86   -488.28569     102002.7      46.7237      46.7237      46.7237 
   94000    89.620198   -11458.571   -10595.706   -187.45532     102002.7      46.7237      46.7237      46.7237 
   95000    90.773734    -11466.37   -10592.399    -269.9559     102002.7      46.7237      46.7237      46.7237 
   96000    90.744296   -11484.079   -10610.392   -362.85511     102002.7      46.7237      46.7237      46.7237 
   97000    90.464139   -11459.411    -10588.42    211.99151     102002.7      46.7237      46.7237      46.7237 
   98000    90.787288   -11473.333   -10599.231    -208.0751     102002.7      46.7237      46.7237      46.7237 
   99000     89.84393   -11475.543   -10610.524   -322.73889     102002.7      46.7237      46.7237      46.7237 
  100000    89.693999   -11449.034   -10585.459   -72.966304     102002.7      46.7237      46.7237      46.7237 
  101000    89.962041   -11446.997   -10580.841   -126.58395     102002.7      46.7237      46.7237      46.7237 
  102000    95.277245   -11493.248   -10575.917   -589.16953     102002.7      46.7237      46.7237      46.7237 
  103000    91.134751   -11471.093   -10593.646   -236.66527     102002.7      46.7237      46.7237      46.7237 
  104000    90.117858   -11474.927    -10607.27    -352.4321     102002.7      46.7237      46.7237      46.7237 
  105000    91.895586   -11475.332    -10590.56   -73.986548     102002.7      46.7237      46.7237      46.7237 
  106000    94.530027   -11462.752   -10552.616   -121.62159     102002.7      46.7237      46.7237      46.7237 
  107000     90.46391   -11457.617   -10586.629   -163.10996     102002.7      46.7237      46.7237      46.7237 
  108000    91.986562   -11438.349   -10552.701   -169.35942     102002.7      46.7237      46.7237      46.7237 
  109000    91.600518   -11491.497   -10609.566   -268.31721     102002.7      46.7237      46.7237      46.7237 
  110000    90.806824   -11466.547   -10592.258   -365.80489     102002.7      46.7237      46.7237      46.7237 
  111000     91.09246   -11460.757   -10583.717   -293.65097     102002.7      46.7237      46.7237      46.7237 
  112000    90.516272   -11479.318   -10607.826   -372.62107     102002.7      46.7237      46.7237      46.7237 
  113000    92.515588   -11458.825   -10568.084   -235.38781     102002.7      46.7237      46.7237      46.7237 
  114000    93.076463   -11470.987   -10574.846     9.375074     102002.7      46.7237      46.7237      46.7237 
  115000    89.622267   -11460.125   -10597.241   -354.47842     102002.7      46.7237      46.7237      46.7237 
  116000    88.070915   -11492.152   -10644.204   -246.18992     102002.7      46.7237      46.7237      46.7237 
  117000    91.942696   -11462.026     -10576.8   -198.41159     102002.7      46.7237      46.7237      46.7237 
  118000    92.428054   -11454.506   -10564.607   -472.87248     102002.7      46.7237      46.7237      46.7237 
  119000    91.806984   -11475.373   -10591.454   -134.87739     102002.7      46.7237      46.7237      46.7237 
  120000    91.243537   -11467.645   -10589.151   -199.27955     102002.7      46.7237      46.7237      46.7237 
  121000    89.984903   -11463.499   -10597.123   -356.11803     102002.7      46.7237      46.7237      46.7237 
  122000    90.380697   -11483.355   -10613.168   -112.73987     102002.7      46.7237      46.7237      46.7237 
  123000    92.237668   -11459.564   -10571.498    57.322071     102002.7      46.7237      46.7237      46.7237 
  124000    92.186836   -11439.412   -10551.835    193.85378     102002.7      46.7237      46.7237      46.7237 
  125000    92.160114   -11467.208   -10579.889   -164.79657     102002.7      46.7237      46.7237      46.7237 
  126000    90.515434   -11464.668   -10593.184    -122.4052     102002.7      46.7237      46.7237      46.7237 
  127000    92.168577   -11488.251    -10600.85   -127.56473     102002.7      46.7237      46.7237      46.7237 
  128000    90.881268   -11445.421   -10570.415   -25.760641     102002.7      46.7237      46.7237      46.7237 
  129000    89.168651   -11465.078   -10606.561   -406.56496     102002.7      46.7237      46.7237      46.7237 
  130000    90.617274   -11489.658   -10617.194   -362.67336     102002.7      46.7237      46.7237      46.7237 
  131000    91.814443   -11470.905   -10586.914   -303.13237     102002.7      46.7237      46.7237      46.7237 
  132000     89.78356   -11452.667    -10588.23   -325.15233     102002.7      46.7237      46.7237      46.7237 
  133000    92.758685   -11449.469   -10556.387    -149.8918     102002.7      46.7237      46.7237      46.7237 
  134000    91.210186   -11478.971   -10600.798   -271.17461     102002.7      46.7237      46.7237      46.7237 
  135000    93.581144   -11473.171    -10572.17   -403.64492     102002.7      46.7237      46.7237      46.7237 
  136000    90.147832   -11459.879   -10591.934   -110.98812     102002.7      46.7237      46.7237      46.7237 
  137000    92.576219   -11447.876    -10556.55   -55.133271     102002.7      46.7237      46.7237      46.7237 
  138000    91.156484   -11474.813   -10597.157   -297.86601     102002.7      46.7237      46.7237      46.7237 
  139000    91.762989    -11468.84   -10585.345   -207.88203     102002.7      46.7237      46.7237      46.7237 
  140000    90.741601   -11474.248   -10600.586   -257.86183     102002.7      46.7237      46.7237      46.7237 
  141000    93.216619   -11482.051    -10584.56   -411.55207     102002.7      46.7237      46.7237      46.7237 
  142000    89.850676   -11456.311   -10591.227   -150.43921     102002.7      46.7237      46.7237      46.7237 
  143000    88.197569   -11453.979   -10604.811   -89.342873     102002.7      46.7237      46.7237      46.7237 
  144000    91.950802   -11449.677   -10564.373   -161.17715     102002.7      46.7237      46.7237      46.7237 
  145000    91.105872   -11482.378   -10605.209   -253.30187     102002.7      46.7237      46.7237      46.7237 
  146000    92.158911   -11472.904   -10585.596   -369.14035     102002.7      46.7237      46.7237      46.7237 
  147000    92.792781   -11447.743   -10554.333   -353.83602     102002.7      46.7237      46.7237      46.7237 
  148000    90.681282   -11465.561    -10592.48   -166.76521     102002.7      46.7237      46.7237      46.7237 
  149000    90.692697   -11494.129   -10620.938   -402.92281     102002.7      46.7237      46.7237      46.7237 
  150000    91.223324   -11467.464   -10589.164   -244.17767     102002.7      46.7237      46.7237      46.7237 
  151000    92.509549   -11465.859   -10575.175   -203.65993     102002.7      46.7237      46.7237      46.7237 
  152000     92.95611   -11454.119   -10559.136   -372.84017     102002.7      46.7237      46.7237      46.7237 
  153000    89.718568   -11472.527   -10608.715   -356.55009     102002.7      46.7237      46.7237      46.7237 
  154000     94.59415   -11465.953   -10555.199   -128.28145     102002.7      46.7237      46.7237      46.7237 
  155000     92.92652   -11484.992   -10590.294   -142.39575     102002.7      46.7237      46.7237      46.7237 
  156000    92.307801   -11476.738   -10587.997   -185.60496     102002.7      46.7237      46.7237      46.7237 
  157000    91.073085   -11471.451   -10594.598   -291.35995     102002.7      46.7237      46.7237      46.7237 
  158000    92.885081   -11460.378   -10566.079   -124.76238     102002.7      46.7237      46.7237      46.7237 
  159000    93.643589   -11487.464   -10585.862   -286.48362     102002.7      46.7237      46.7237      46.7237 
  160000      91.2145   -11451.379   -10573.164   -252.72093     102002.7      46.7237      46.7237      46.7237 
  161000    92.019236   -11471.317   -10585.354   -371.47065     102002.7      46.7237      46.7237      46.7237 
  162000     92.35108   -11460.285   -10571.127   -81.361523     102002.7      46.7237      46.7237      46.7237 
  163000    92.216744    -11474.17   -10586.306    -279.2669     102002.7      46.7237      46.7237      46.7237 
  164000     88.46156   -11450.966   -10599.257   -135.94444     102002.7      46.7237      46.7237      46.7237 
  165000    91.179003   -11455.577   -10577.704   -310.39788     102002.7      46.7237      46.7237      46.7237 
  166000    91.236789   -11464.165   -10585.736   -174.30717     102002.7      46.7237      46.7237      46.7237 
  167000    91.950871   -11457.989   -10572.684   -193.79728     102002.7      46.7237      46.7237      46.7237 
  168000    91.294638   -11458.219   -10579.232   -288.97916     102002.7      46.7237      46.7237      46.7237 
  169000    91.555209   -11490.441   -10608.946   -72.089419     102002.7      46.7237      46.7237      46.7237 
  170000    90.680273    -11490.65   -10617.579   -669.83072     102002.7      46.7237      46.7237      46.7237 
  171000    90.976237   -11481.548   -10605.627   -430.32235     102002.7      46.7237      46.7237      46.7237 
  172000    92.440112   -11454.321   -10564.306   -437.21856     102002.7      46.7237      46.7237      46.7237 
  173000    91.454393   -11441.782   -10561.257   -342.08263     102002.7      46.7237      46.7237      46.7237 
  174000    93.464532   -11471.778     -10571.9   -503.83447     102002.7      46.7237      46.7237      46.7237 
  175000    90.690318   -11456.405   -10583.237   -358.70704     102002.7      46.7237      46.7237      46.7237 
  176000    92.324257   -11479.007   -10590.108   -212.24044     102002.7      46.7237      46.7237      46.7237 
  177000    90.123879     -11485.4   -10617.685   -312.43553     102002.7      46.7237      46.7237      46.7237 
  178000     90.34207   -11476.769   -10606.954   -294.45826     102002.7      46.7237      46.7237      46.7237 
  179000    91.179881   -11457.387   -10579.506   -37.365521     102002.7      46.7237      46.7237      46.7237 
  180000    93.886538   -11460.003   -10556.062   -96.656645     102002.7      46.7237      46.7237      46.7237 
  181000    89.516127   -11448.341   -10586.478    -282.7111     102002.7      46.7237      46.7237      46.7237 
  182000    89.997141   -11481.794     -10615.3   -347.09695     102002.7      46.7237      46.7237      46.7237 
  183000    90.414801   -11477.675    -10607.16   -414.87035     102002.7      46.7237      46.7237      46.7237 
  184000    92.080248   -11447.262   -10560.712   -360.30431     102002.7      46.7237      46.7237      46.7237 
  185000    90.466628   -11478.004    -10606.99   -66.346203     102002.7      46.7237      46.7237      46.7237 
  186000    91.220774   -11450.351   -10572.076   -58.906505     102002.7      46.7237      46.7237      46.7237 
  187000    92.795056   -11475.012    -10581.58   -344.67618     102002.7      46.7237      46.7237      46.7237 
  188000    92.084702   -11473.987   -10587.394   -384.37309     102002.7      46.7237      46.7237      46.7237 
  189000    89.899286   -11464.119   -10598.568   -269.98539     102002.7      46.7237      46.7237      46.7237 
  190000    90.565816   -11482.376   -10610.407    -81.97247     102002.7      46.7237      46.7237      46.7237 
  191000    91.838115   -11459.734   -10575.516   -523.85126     102002.7      46.7237      46.7237      46.7237 
  192000    88.318296    -11496.81    -10646.48   -572.22293     102002.7      46.7237      46.7237      46.7237 
  193000    93.524059    -11461.47   -10561.019   -248.77029     102002.7      46.7237      46.7237      46.7237 
  194000    93.681652   -11461.382   -10559.413   -386.06497     102002.7      46.7237      46.7237      46.7237 
  195000    90.249553   -11479.865    -10610.94   -172.70948     102002.7      46.7237      46.7237      46.7237 
  196000    91.111491   -11455.716   -10578.493   -217.83005     102002.7      46.7237      46.7237      46.7237 
  197000    92.016207   -11456.284    -10570.35   -398.20062     102002.7      46.7237      46.7237      46.7237 
  198000    90.452663    -11461.05    -10590.17   -150.92605     102002.7      46.7237      46.7237      46.7237 
  199000    93.687353   -11463.192   -10561.169   -382.94274     102002.7      46.7237      46.7237      46.7237 
  200000    89.723055   -11464.537   -10600.682   -431.74755     102002.7      46.7237      46.7237      46.7237 
  201000     90.31959   -11453.593   -10583.995   -296.38029     102002.7      46.7237      46.7237      46.7237 
  202000    89.753233   -11454.516    -10590.37   -115.61596     102002.7      46.7237      46.7237      46.7237 
  203000    92.169432    -11464.88   -10577.471   -209.36135     102002.7      46.7237      46.7237      46.7237 
  204000    90.323074    -11451.09   -10581.458   -300.36746     102002.7      46.7237      46.7237      46.7237 
  205000    90.536091   -11468.814   -10597.131   -405.49814     102002.7      46.7237      46.7237      46.7237 
  206000    92.405307   -11449.898   -10560.219   -429.81048     102002.7      46.7237      46.7237      46.7237 
  207000    91.307638   -11456.906   -10577.795   -288.83769     102002.7      46.7237      46.7237      46.7237 
  208000    90.503831    -11467.84   -10596.468   -345.47661     102002.7      46.7237      46.7237      46.7237 
  209000    90.979258   -11477.514   -10601.564   -156.42799     102002.7      46.7237      46.7237      46.7237 
  210000      90.4609   -11464.863   -10593.904   -446.87086     102002.7      46.7237      46.7237      46.7237 
  211000    90.403673     -11458.3   -10587.892   -298.02275     102002.7      46.7237      46.7237      46.7237 
  212000    91.107411   -11465.216   -10588.032   -564.35184     102002.7      46.7237      46.7237      46.7237 
  213000    89.661604       -11483   -10619.736   -419.40897     102002.7      46.7237      46.7237      46.7237 
  214000    91.482994   -11468.518   -10587.718   -219.50784     102002.7      46.7237      46.7237      46.7237 
  215000     92.35969   -11455.963   -10566.723   -414.05569     102002.7      46.7237      46.7237      46.7237 
  216000    89.768794    -11457.39   -10593.095    -236.4844     102002.7      46.7237      46.7237      46.7237 
  217000    87.743643   -11480.419   -10635.622   -286.10641     102002.7      46.7237      46.7237      46.7237 
  218000     91.37714   -11466.798   -10587.018   -357.85907     102002.7      46.7237      46.7237      46.7237 
  219000    91.206374   -11473.213   -10595.077   -521.51835     102002.7      46.7237      46.7237      46.7237 
  220000    93.030601   -11432.813   -10537.113   -550.75227     102002.7      46.7237      46.7237      46.7237 
  221000    91.018238   -11454.134   -10577.809   -419.79739     102002.7      46.7237      46.7237      46.7237 
  222000    91.530782   -11463.685   -10582.425   -277.85468     102002.7      46.7237      46.7237      46.7237 
  223000     90.88713   -11481.851   -10606.788   -350.58415     102002.7      46.7237      46.7237      46.7237 
  224000    92.982416   -11476.294   -10581.058    -266.3308     102002.7      46.7237      46.7237      46.7237 
  225000    89.865855   -11453.133   -10587.904   -204.55268     102002.7      46.7237      46.7237      46.7237 
  226000    90.235485   -11485.395   -10616.607   -261.62173     102002.7      46.7237      46.7237      46.7237 
  227000    92.517268    -11460.72   -10569.963   -358.68492     102002.7      46.7237      46.7237      46.7237 
  228000     90.65041   -11439.001   -10566.217   -186.74229     102002.7      46.7237      46.7237      46.7237 
  229000    91.012106   -11455.728   -10579.462   -495.09553     102002.7      46.7237      46.7237      46.7237 
  230000    91.197402    -11461.66    -10583.61   -288.90341     102002.7      46.7237      46.7237      46.7237 
  231000    91.539778   -11462.616    -10581.27   -439.92582     102002.7      46.7237      46.7237      46.7237 
  232000    92.179588   -11448.435   -10560.929   -163.80244     102002.7      46.7237      46.7237      46.7237 
  233000    90.172789   -11455.034   -10586.849   -359.50262     102002.7      46.7237      46.7237      46.7237 
  234000    92.281741   -11469.832   -10581.341   -337.60482     102002.7      46.7237      46.7237      46.7237 
  235000     90.51156     -11488.6   -10617.153   -416.36739     102002.7      46.7237      46.7237      46.7237 
  236000    91.752788    -11460.17   -10576.773   -354.71936     102002.7      46.7237      46.7237      46.7237 
  237000    90.308371   -11476.928   -10607.437   -451.50253     102002.7      46.7237      46.7237      46.7237 
  238000    93.603663   -11450.378    -10549.16   -528.14166     102002.7      46.7237      46.7237      46.7237 
  239000    92.260788   -11473.134   -10584.846    7.3365211     102002.7      46.7237      46.7237      46.7237 
  240000    91.214586   -11456.161   -10577.945   -411.28371     102002.7      46.7237      46.7237      46.7237 
  241000    90.041445   -11478.747   -10611.826   -337.96869     102002.7      46.7237      46.7237      46.7237 
  242000    92.590633   -11479.295   -10587.831   -164.79893     102002.7      46.7237      46.7237      46.7237 
  243000    91.349654   -11464.954   -10585.438   -451.80733     102002.7      46.7237      46.7237      46.7237 
  244000    89.018643   -11490.057   -10632.984   -378.47541     102002.7      46.7237      46.7237      46.7237 
  245000    89.727521    -11444.64   -10580.742   -89.003108     102002.7      46.7237      46.7237      46.7237 
  246000     90.71902   -11469.271   -10595.827   -236.89352     102002.7      46.7237      46.7237      46.7237 
  247000    91.379453   -11472.287   -10592.484   -259.99064     102002.7      46.7237      46.7237      46.7237 
  248000    90.332351   -11469.613   -10599.891   -426.69531     102002.7      46.7237      46.7237      46.7237 
  249000    90.241943   -11447.666   -10578.815   -303.82445     102002.7      46.7237      46.7237      46.7237 
  250000    89.938456   -11472.576   -10606.647   -352.04567     102002.7      46.7237      46.7237      46.7237 
  251000    90.211732    -11440.07    -10571.51   -19.754186     102002.7      46.7237      46.7237      46.7237 
  252000    90.940149   -11462.933    -10587.36    34.207336     102002.7      46.7237      46.7237      46.7237 
  253000    91.321783   -11468.051   -10588.803   -160.27401     102002.7      46.7237      46.7237      46.7237 
  254000    90.464271   -11461.978   -10590.986   -253.03079     102002.7      46.7237      46.7237      46.7237 
  255000    91.051498   -11469.236   -10592.591   -166.17459     102002.7      46.7237      46.7237      46.7237 
  256000    91.321583   -11464.361   -10585.115   -326.35313     102002.7      46.7237      46.7237      46.7237 
  257000     91.46057   -11456.795   -10576.211   -351.11587     102002.7      46.7237      46.7237      46.7237 
  258000    90.461331   -11452.433   -10581.469   -9.2304781     102002.7      46.7237      46.7237      46.7237 
  259000    90.949365   -11449.237   -10573.575   -345.27642     102002.7      46.7237      46.7237      46.7237 
  260000    91.026779   -11441.584   -10565.177   -237.13726     102002.7      46.7237      46.7237      46.7237 
  261000    88.064466   -11461.834   -10613.948   -244.17546     102002.7      46.7237      46.7237      46.7237 
  262000    91.371257   -11449.136   -10569.412   -295.51029     102002.7      46.7237      46.7237      46.7237 
  263000    92.713824    -11455.59    -10562.94   -286.98687     102002.7      46.7237      46.7237      46.7237 
  264000    91.488036   -11480.813   -10599.964   -177.78753     102002.7      46.7237      46.7237      46.7237 
  265000    93.518442   -11470.206   -10569.809   -317.27062     102002.7      46.7237      46.7237      46.7237 
  266000    90.170356   -11467.638   -10599.476   -397.56367     102002.7      46.7237      46.7237      46.7237 
  267000    90.734729   -11465.829   -10592.234   -409.22444     102002.7      46.7237      46.7237      46.7237 
  268000    92.257794   -11485.923   -10597.663   -114.62984     102002.7      46.7237      46.7237      46.7237 
  269000    89.453805   -11469.316   -10608.054    -151.1161     102002.7      46.7237      46.7237      46.7237 
  270000    90.659945   -11462.793   -10589.918   -264.16795     102002.7      46.7237      46.7237      46.7237 
  271000    91.458297   -11472.274   -10591.712   -164.33913     102002.7      46.7237      46.7237      46.7237 
  272000    90.904724   -11483.472   -10608.239   -143.68427     102002.7      46.7237      46.7237      46.7237 
  273000     91.39035   -11487.169   -10607.261   -180.38069     102002.7      46.7237      46.7237      46.7237 
  274000    89.923736    -11469.96   -10604.173   -263.43258     102002.7      46.7237      46.7237      46.7237 
  275000    89.161107   -11458.855   -10600.411   -371.26009     102002.7      46.7237      46.7237      46.7237 
  276000    93.524283   -11480.174    -10579.72   -102.77708     102002.7      46.7237      46.7237      46.7237 
  277000    91.662581   -11434.155   -10551.626    23.531968     102002.7      46.7237      46.7237      46.7237 
  278000    91.846986   -11456.796   -10572.492   -314.67028     102002.7      46.7237      46.7237      46.7237 
  279000    90.992952   -11467.438   -10591.357   -587.88102     102002.7      46.7237      46.7237      46.7237 
  280000    89.864654   -11481.247   -10616.028   -239.98454     102002.7      46.7237      46.7237      46.7237 
  281000     90.48697   -11457.012   -10585.802   -483.55028     102002.7      46.7237      46.7237      46.7237 
  282000    89.921595   -11450.235   -10584.469   -498.52488     102002.7      46.7237      46.7237      46.7237 
  283000    88.160581   -11484.365   -10635.553   -444.84384     102002.7      46.7237      46.7237      46.7237 
  284000    88.912602   -11464.447   -10608.395   -255.78415     102002.7      46.7237      46.7237      46.7237 
  285000    91.951975   -11467.713   -10582.398   -100.38436     102002.7      46.7237      46.7237      46.7237 
  286000    91.864296    -11454.87   -10570.399   -173.60374     102002.7      46.7237      46.7237      46.7237 
  287000     91.27827   -11455.539   -10576.711   -156.12562     102002.7      46.7237      46.7237      46.7237 
  288000    88.255316   -11444.373    -10594.65   -382.99659     102002.7      46.7237      46.7237      46.7237 
  289000    94.632464   -11472.762   -10561.639   -321.81713     102002.7      46.7237      46.7237      46.7237 
  290000    89.952101   -11468.535   -10602.475   -12.062562     102002.7      46.7237      46.7237      46.7237 
  291000    90.826033   -11479.375   -10604.901   -373.89328     102002.7      46.7237      46.7237      46.7237 
  292000    90.353998   -11474.956   -10605.026   -186.31974     102002.7      46.7237      46.7237      46.7237 
  293000    91.035575    -11460.36   -10583.868   -173.41099     102002.7      46.7237      46.7237      46.7237 
  294000    91.070398   -11466.882   -10590.055   -630.22687     102002.7      46.7237      46.7237      46.7237 
  295000    89.386487   -11483.633   -10623.018    4.2872016     102002.7      46.7237      46.7237      46.7237 
  296000    93.201935   -11466.265   -10568.915   -220.40469     102002.7      46.7237      46.7237      46.7237 
  297000    91.082303   -11482.864   -10605.922   -203.25433     102002.7      46.7237      46.7237      46.7237 
  298000    89.104655     -11474.9   -10616.999   -300.64088     102002.7      46.7237      46.7237      46.7237 
  299000     91.25325   -11475.071   -10596.483   -271.58493     102002.7      46.7237      46.7237      46.7237 
  300000    89.705869   -11489.573   -10625.883   -13.270325     102002.7      46.7237      46.7237      46.7237 
  301000    92.344203   -11467.322    -10578.23    -72.75213     102002.7      46.7237      46.7237      46.7237 
  302000     90.51438   -11497.266   -10625.792   -221.24666     102002.7      46.7237      46.7237      46.7237 
  303000    89.244678   -11457.581   -10598.331   -303.53442     102002.7      46.7237      46.7237      46.7237 
  304000      89.9432   -11489.399   -10623.425   -116.03184     102002.7      46.7237      46.7237      46.7237 
  305000    89.984738   -11478.847   -10612.472   -434.96582     102002.7      46.7237      46.7237      46.7237 
  306000    90.629959   -11467.928   -10595.341   -141.88828     102002.7      46.7237      46.7237      46.7237 
  307000    92.941415   -11454.425   -10559.584   -337.89439     102002.7      46.7237      46.7237      46.7237 
  308000    90.899846    -11450.14   -10574.955   -337.08226     102002.7      46.7237      46.7237      46.7237 
  309000    93.089015   -11442.312   -10546.049   -282.20913     102002.7      46.7237      46.7237      46.7237 
  310000    88.774021    -11450.16   -10595.442   -271.61718     102002.7      46.7237      46.7237      46.7237 
  311000     90.30842   -11463.801   -10594.311   -562.68326     102002.7      46.7237      46.7237      46.7237 
  312000    93.097055   -11482.439   -10586.099    -193.6379     102002.7      46.7237      46.7237      46.7237 
  313000      92.4504   -11449.285   -10559.171   -403.29096     102002.7      46.7237      46.7237      46.7237 
  314000    90.842208   -11455.073   -10580.443   -108.12454     102002.7      46.7237      46.7237      46.7237 
  315000    90.146709   -11464.161   -10596.227   -4.8888722     102002.7      46.7237      46.7237      46.7237 
  316000    87.784937   -11473.799   -10628.605   -472.16462     102002.7      46.7237      46.7237      46.7237 
  317000    90.494726   -11470.135   -10598.851   -191.61535     102002.7      46.7237      46.7237      46.7237 
  318000    90.212836   -11467.642   -10599.071   -103.71963     102002.7      46.7237      46.7237      46.7237 
  319000    92.301651   -11467.083   -10578.401   -395.68122     102002.7      46.7237      46.7237      46.7237 
  320000    91.989317   -11452.288   -10566.613   -407.50617     102002.7      46.7237      46.7237      46.7237 
  321000    91.985865   -11485.584   -10599.943   -395.45346     102002.7      46.7237      46.7237      46.7237 
  322000    90.788945   -11477.055   -10602.937   -570.97854     102002.7      46.7237      46.7237      46.7237 
  323000    91.434407   -11455.768   -10575.436   -327.13257     102002.7      46.7237      46.7237      46.7237 
  324000    90.572667   -11485.193   -10613.158   -181.77167     102002.7      46.7237      46.7237      46.7237 
  325000    91.785397    -11469.64   -10585.928   -307.89536     102002.7      46.7237      46.7237      46.7237 
  326000    90.435301   -11477.643   -10606.931   -172.68045     102002.7      46.7237      46.7237      46.7237 
  327000    91.712607    -11468.19   -10585.179   -252.48873     102002.7      46.7237      46.7237      46.7237 
  328000    88.008914   -11472.292   -10624.941   -88.549806     102002.7      46.7237      46.7237      46.7237 
  329000    89.788149   -11463.666   -10599.185   -589.44807     102002.7      46.7237      46.7237      46.7237 
  330000    92.604786   -11469.698   -10578.098   -332.39992     102002.7      46.7237      46.7237      46.7237 
  331000    90.494172   -11477.793   -10606.513   -129.48514     102002.7      46.7237      46.7237      46.7237 
  332000    91.588895   -11450.451   -10568.632   -413.56578     102002.7      46.7237      46.7237      46.7237 
  333000    90.293001   -11464.929   -10595.586    -325.9868     102002.7      46.7237      46.7237      46.7237 
  334000    90.843855   -11465.458   -10590.811   -323.52772     102002.7      46.7237      46.7237      46.7237 
  335000    91.924836   -11478.061   -10593.007   -300.64652     102002.7      46.7237      46.7237      46.7237 
  336000    93.336018   -11470.918   -10572.277   -289.33921     102002.7      46.7237      46.7237      46.7237 
  337000    91.926172   -11459.643   -10574.576   -327.61724     102002.7      46.7237      46.7237      46.7237 
  338000    88.666786   -11473.147   -10619.461   -294.59756     102002.7      46.7237      46.7237      46.7237 
  339000    88.673651   -11445.785   -10592.033   -187.12464     102002.7      46.7237      46.7237      46.7237 
  340000    90.162467   -11480.557   -10612.471   -152.54213     102002.7      46.7237      46.7237      46.7237 
  341000    91.136357   -11453.226   -10575.764   -187.71807     102002.7      46.7237      46.7237      46.7237 
  342000    90.082441   -11468.761   -10601.446   -108.84375     102002.7      46.7237      46.7237      46.7237 
  343000    90.054943    -11449.58   -10582.529   -77.973871     102002.7      46.7237      46.7237      46.7237 
  344000    91.809917   -11451.766   -10567.818   -247.96054     102002.7      46.7237      46.7237      46.7237 
  345000    89.909343   -11476.971   -10611.322   -329.28847     102002.7      46.7237      46.7237      46.7237 
  346000    91.820526   -11463.596   -10579.547    -214.0757     102002.7      46.7237      46.7237      46.7237 
  347000    91.211588   -11472.043   -10593.856   -154.65235     102002.7      46.7237      46.7237      46.7237 
  348000    91.117158   -11481.452   -10604.174   -322.15168     102002.7      46.7237      46.7237      46.7237 
  349000    91.528048   -11455.655   -10574.421    99.880418     102002.7      46.7237      46.7237      46.7237 
  350000    90.448547   -11460.544   -10589.704    -270.4241     102002.7      46.7237      46.7237      46.7237 
  351000    88.779152   -11465.732   -10610.965   -301.58988     102002.7      46.7237      46.7237      46.7237 
  352000    92.417296   -11471.135   -10581.339   -227.66361     102002.7      46.7237      46.7237      46.7237 
  353000    95.346048   -11442.728   -10524.735    -260.7566     102002.7      46.7237      46.7237      46.7237 
  354000    90.819979    -11464.23   -10589.814   -231.59945     102002.7      46.7237      46.7237      46.7237 
  355000    90.469159   -11473.882   -10602.843   -348.19047     102002.7      46.7237      46.7237      46.7237 
  356000    91.085262   -11462.451   -10585.481   -467.36574     102002.7      46.7237      46.7237      46.7237 
  357000    91.054333   -11478.012    -10601.34   -297.48419     102002.7      46.7237      46.7237      46.7237 
  358000    90.286171   -11456.772   -10587.495   -234.97711     102002.7      46.7237      46.7237      46.7237 
  359000    91.123851    -11450.97   -10573.628    -132.5861     102002.7      46.7237      46.7237      46.7237 
  360000    90.214432   -11451.158   -10582.571    -143.2265     102002.7      46.7237      46.7237      46.7237 
  361000    89.993536   -11479.197   -10612.738   -356.82756     102002.7      46.7237      46.7237      46.7237 
  362000    93.663513   -11494.933   -10593.139   -393.03425     102002.7      46.7237      46.7237      46.7237 
  363000    90.940056   -11460.079   -10584.506   -219.11026     102002.7      46.7237      46.7237      46.7237 
  364000     92.18745    -11462.82   -10575.237   -238.79545     102002.7      46.7237      46.7237      46.7237 
  365000    90.537633   -11426.184   -10554.486   -138.00209     102002.7      46.7237      46.7237      46.7237 
  366000    89.878179   -11474.944   -10609.596   -271.90112     102002.7      46.7237      46.7237      46.7237 
  367000    90.560592   -11475.238   -10603.319   -165.54684     102002.7      46.7237      46.7237      46.7237 
  368000    91.841576   -11486.967   -10602.715   -9.9791697     102002.7      46.7237      46.7237      46.7237 
  369000     90.57326   -11470.909   -10598.868   -516.61035     102002.7      46.7237      46.7237      46.7237 
  370000    89.991889   -11467.893    -10601.45    -137.8157     102002.7      46.7237      46.7237      46.7237 
  371000    88.921668   -11476.097   -10619.957   -255.36839     102002.7      46.7237      46.7237      46.7237 
  372000    90.672556   -11481.029   -10608.032    -164.3776     102002.7      46.7237      46.7237      46.7237 
  373000    90.455436   -11475.416    -10604.51   -257.22789     102002.7      46.7237      46.7237      46.7237 
  374000    91.143743   -11450.314   -10572.781    -353.8395     102002.7      46.7237      46.7237      46.7237 
  375000    94.036155   -11471.388   -10566.007   -253.61257     102002.7      46.7237      46.7237      46.7237 
  376000    89.131853   -11457.301   -10599.138   -129.95667     102002.7      46.7237      46.7237      46.7237 
  377000    91.446038   -11457.748   -10577.304   -497.80715     102002.7      46.7237      46.7237      46.7237 
  378000    89.922191    -11432.96   -10567.188   -396.17418     102002.7      46.7237      46.7237      46.7237 
  379000    90.975963   -11472.817   -10596.899   -177.04768     102002.7      46.7237      46.7237      46.7237 
  380000    90.280264   -11500.815   -10631.595   -598.07139     102002.7      46.7237      46.7237      46.7237 
  381000    90.745909   -11469.646   -10595.942   -291.85003     102002.7      46.7237      46.7237      46.7237 
  382000    92.463852   -11457.348   -10567.105   -540.85879     102002.7      46.7237      46.7237      46.7237 
  383000    92.104497   -11455.748   -10568.965    -328.2641     102002.7      46.7237      46.7237      46.7237 
  384000     89.78401   -11483.219   -10618.777   -264.20148     102002.7      46.7237      46.7237      46.7237 
  385000    92.366939   -11480.617   -10591.307    -354.6516     102002.7      46.7237      46.7237      46.7237 
  386000    89.783266   -11478.222   -10613.788   -531.91807     102002.7      46.7237      46.7237      46.7237 
  387000    92.400961   -11465.198    -10575.56   -253.56328     102002.7      46.7237      46.7237      46.7237 
  388000    91.696233   -11449.864   -10567.011   -408.21678     102002.7      46.7237      46.7237      46.7237 
  389000    90.681442   -11466.981   -10593.899   -192.95051     102002.7      46.7237      46.7237      46.7237 
  390000    90.498683   -11471.744   -10600.421   -606.51222     102002.7      46.7237      46.7237      46.7237 
  391000    89.185254   -11463.216   -10604.539   -659.56786     102002.7      46.7237      46.7237      46.7237 
  392000    91.645927   -11471.663   -10589.295   -488.31661     102002.7      46.7237      46.7237      46.7237 
  393000    92.329539   -11466.681   -10577.731   -547.57191     102002.7      46.7237      46.7237      46.7237 
  394000    90.503989   -11465.269   -10593.895   -444.34652     102002.7      46.7237      46.7237      46.7237 
  395000    90.020838   -11470.294   -10603.572   -325.72019     102002.7      46.7237      46.7237      46.7237 
  396000    90.792256   -11471.465   -10597.316   -326.42534     102002.7      46.7237      46.7237      46.7237 
  397000    90.049222   -11453.065    -10586.07   -14.679394     102002.7      46.7237      46.7237      46.7237 
  398000    92.015349   -11461.652   -10575.727   -238.05319     102002.7      46.7237      46.7237      46.7237 
  399000    90.075369   -11439.886   -10572.639   -425.13903     102002.7      46.7237      46.7237      46.7237 
  400000    90.601221   -11470.035   -10597.725   -635.38911     102002.7      46.7237      46.7237      46.7237 
  401000    88.715469   -11494.853   -10640.699    -438.0148     102002.7      46.7237      46.7237      46.7237 
  402000    91.482859   -11468.653   -10587.854   -390.25843     102002.7      46.7237      46.7237      46.7237 
  403000    92.739004   -11461.403    -10568.51   -268.25791     102002.7      46.7237      46.7237      46.7237 
  404000     90.08243   -11442.543   -10575.228   -422.45487     102002.7      46.7237      46.7237      46.7237 
  405000    92.183459   -11475.119   -10587.576   -543.17145     102002.7      46.7237      46.7237      46.7237 
  406000     90.42535   -11487.359   -10616.742   -161.62437     102002.7      46.7237      46.7237      46.7237 
  407000    89.340604    -11457.64   -10597.467   -165.33849     102002.7      46.7237      46.7237      46.7237 
  408000    91.799977   -11476.801   -10592.949   -435.02031     102002.7      46.7237      46.7237      46.7237 
  409000    92.900454   -11473.053   -10578.606   -316.14646     102002.7      46.7237      46.7237      46.7237 
  410000    91.696757   -11463.522   -10580.665   -86.990218     102002.7      46.7237      46.7237      46.7237 
  411000     89.78311   -11467.972   -10603.538   -77.919719     102002.7      46.7237      46.7237      46.7237 
  412000     91.62934   -11461.667   -10579.458   -193.04433     102002.7      46.7237      46.7237      46.7237 
  413000    90.955801   -11463.744    -10588.02   -432.36816     102002.7      46.7237      46.7237      46.7237 
  414000    95.821421   -11481.096   -10558.526   -128.39215     102002.7      46.7237      46.7237      46.7237 
  415000    91.609102   -11464.231   -10582.217   -356.79524     102002.7      46.7237      46.7237      46.7237 
  416000    93.272833   -11474.625   -10576.593   -195.16378     102002.7      46.7237      46.7237      46.7237 
  417000    90.688137   -11453.637    -10580.49   -476.07799     102002.7      46.7237      46.7237      46.7237 
  418000    90.727289    -11484.43   -10610.907   -297.45017     102002.7      46.7237      46.7237      46.7237 
  419000    91.883563   -11468.211   -10583.554   -490.40888     102002.7      46.7237      46.7237      46.7237 
  420000    93.756315   -11445.876   -10543.189   -603.26526     102002.7      46.7237      46.7237      46.7237 
  421000    90.601751   -11470.349   -10598.034   -347.15806     102002.7      46.7237      46.7237      46.7237 
  422000    91.205208   -11464.191   -10586.066   -185.50315     102002.7      46.7237      46.7237      46.7237 
  423000    91.711615   -11459.179   -10576.178   -296.47208     102002.7      46.7237      46.7237      46.7237 
  424000    90.782993   -11470.022   -10595.962   -341.65005     102002.7      46.7237      46.7237      46.7237 
  425000    90.710755   -11461.545    -10588.18    -276.1281     102002.7      46.7237      46.7237      46.7237 
  426000    92.995394   -11464.039   -10568.677   -429.95974     102002.7      46.7237      46.7237      46.7237 
  427000    90.919006   -11486.752   -10611.382   -537.15405     102002.7      46.7237      46.7237      46.7237 
  428000    90.683049   -11491.477   -10618.379   -163.53949     102002.7      46.7237      46.7237      46.7237 
  429000    93.605029   -11453.918   -10552.687   -97.444606     102002.7      46.7237      46.7237      46.7237 
  430000    91.979957   -11478.023   -10592.439   -78.035394     102002.7      46.7237      46.7237      46.7237 
  431000    94.229335   -11491.103   -10583.861   -416.25077     102002.7      46.7237      46.7237      46.7237 
  432000    91.353255   -11455.688   -10576.138   -440.90242     102002.7      46.7237      46.7237      46.7237 
  433000     91.88037   -11467.316   -10582.691   -220.39356     102002.7      46.7237      46.7237      46.7237 
  434000    90.758934   -11469.268   -10595.439   -510.60327     102002.7      46.7237      46.7237      46.7237 
  435000    91.387468   -11477.342   -10597.462   -364.02062     102002.7      46.7237      46.7237      46.7237 
  436000    92.116326   -11477.152   -10590.254   -358.46374     102002.7      46.7237      46.7237      46.7237 
  437000    89.715582   -11471.001   -10607.218    -286.8604     102002.7      46.7237      46.7237      46.7237 
  438000    90.472924   -11479.997   -10608.923     -225.732     102002.7      46.7237      46.7237      46.7237 
  439000    89.597266   -11477.529   -10614.885   -216.74735     102002.7      46.7237      46.7237      46.7237 
  440000    91.816038   -11489.456    -10605.45   -447.91409     102002.7      46.7237      46.7237      46.7237 
  441000    89.773533   -11466.484   -10602.143   -370.62241     102002.7      46.7237      46.7237      46.7237 
  442000    92.400687   -11446.551   -10556.915   -329.14259     102002.7      46.7237      46.7237      46.7237 
  443000    91.687605   -11475.081   -10592.311    -307.8232     102002.7      46.7237      46.7237      46.7237 
  444000    94.634212   -11482.418   -10571.279   -242.85049     102002.7      46.7237      46.7237      46.7237 
  445000    91.835011   -11482.966   -10598.777   -104.76672     102002.7      46.7237      46.7237      46.7237 
  446000    88.994516   -11457.083   -10600.243   -370.22424     102002.7      46.7237      46.7237      46.7237 
  447000    89.009159    -11477.53   -10620.549    -532.2225     102002.7      46.7237      46.7237      46.7237 
  448000    89.228605   -11463.763   -10604.669   -326.66707     102002.7      46.7237      46.7237      46.7237 
  449000    90.173851   -11462.728   -10594.533   -267.66908     102002.7      46.7237      46.7237      46.7237 
  450000    90.605604   -11491.666   -10619.314   -346.60577     102002.7      46.7237      46.7237      46.7237 
  451000    91.923309   -11457.535   -10572.496   -604.38528     102002.7      46.7237      46.7237      46.7237 
  452000    89.985003   -11472.627    -10606.25   -346.32465     102002.7      46.7237      46.7237      46.7237 
  453000     88.78628   -11483.628   -10628.793   -287.84272     102002.7      46.7237      46.7237      46.7237 
  454000    90.745577   -11474.634   -10600.934   -542.73226     102002.7      46.7237      46.7237      46.7237 
  455000    91.977553   -11469.901    -10584.34   -308.29586     102002.7      46.7237      46.7237      46.7237 
  456000    93.895212   -11473.152   -10569.127   -161.84908     102002.7      46.7237      46.7237      46.7237 
  457000    91.712477   -11470.807   -10587.798   -285.48998     102002.7      46.7237      46.7237      46.7237 
  458000    90.051027   -11489.782   -10622.769   -674.16721     102002.7      46.7237      46.7237      46.7237 
  459000    90.886504   -11480.939   -10605.882   -303.89957     102002.7      46.7237      46.7237      46.7237 
  460000    91.982768   -11465.444   -10579.833   -347.81199     102002.7      46.7237      46.7237      46.7237 
  461000    91.911314   -11455.721   -10570.798   -241.04709     102002.7      46.7237      46.7237      46.7237 
  462000    91.770686   -11469.558   -10585.989    -456.5531     102002.7      46.7237      46.7237      46.7237 
  463000    89.471031   -11462.744   -10601.316   -242.21605     102002.7      46.7237      46.7237      46.7237 
  464000    93.061499   -11453.295   -10557.298   -546.13557     102002.7      46.7237      46.7237      46.7237 
  465000    90.799322    -11460.84   -10586.623   -465.80355     102002.7      46.7237      46.7237      46.7237 
  466000    90.531573   -11451.128   -10579.488   -253.91264     102002.7      46.7237      46.7237      46.7237 
  467000    94.365408   -11483.535   -10574.983   -278.85162     102002.7      46.7237      46.7237      46.7237 
  468000    91.606998   -11485.469   -10603.475   -268.44668     102002.7      46.7237      46.7237      46.7237 
  469000      90.0689   -11459.132   -10591.947   -305.70289     102002.7      46.7237      46.7237      46.7237 
  470000    90.093907   -11477.469   -10610.044   -100.85893     102002.7      46.7237      46.7237      46.7237 
  471000    92.672951   -11484.223   -10591.967   -250.13565     102002.7      46.7237      46.7237      46.7237 
  472000    89.724698   -11455.364   -10591.493   -26.085311     102002.7      46.7237      46.7237      46.7237 
  473000    92.164497   -11457.874   -10570.513   -368.29781     102002.7      46.7237      46.7237      46.7237 
  474000    92.927199   -11466.009   -10571.304   -176.57351     102002.7      46.7237      46.7237      46.7237 
  475000    90.626698   -11464.849   -10592.294   -71.990902     102002.7      46.7237      46.7237      46.7237 
  476000    93.487857   -11478.891   -10578.789   -200.34501     102002.7      46.7237      46.7237      46.7237 
  477000    89.761581   -11475.434   -10611.208   -222.73384     102002.7      46.7237      46.7237      46.7237 
  478000    89.811271   -11471.673   -10606.968   -135.86163     102002.7      46.7237      46.7237      46.7237 
  479000    92.365399   -11489.924   -10600.628   -571.74833     102002.7      46.7237      46.7237      46.7237 
  480000    92.799435   -11482.299   -10588.825   -389.39104     102002.7      46.7237      46.7237      46.7237 
  481000    90.034741    -11465.31   -10598.454   -200.77386     102002.7      46.7237      46.7237      46.7237 
  482000    90.590704   -11464.514   -10592.305    66.580599     102002.7      46.7237      46.7237      46.7237 
  483000    90.909146   -11479.139   -10603.864   -431.91112     102002.7      46.7237      46.7237      46.7237 
  484000     90.97212   -11478.467   -10602.586   -207.40731     102002.7      46.7237      46.7237      46.7237 
  485000    92.010881   -11475.868   -10589.985   -435.32057     102002.7      46.7237      46.7237      46.7237 
  486000    86.513352   -11468.276   -10635.324   -291.16264     102002.7      46.7237      46.7237      46.7237 
  487000    92.174296   -11457.941   -10570.485   -396.73869     102002.7      46.7237      46.7237      46.7237 
  488000     90.16501   -11462.419   -10594.309   -333.54925     102002.7      46.7237      46.7237      46.7237 
  489000    90.570405   -11478.339   -10606.326   -380.79911     102002.7      46.7237      46.7237      46.7237 
  490000    90.088889   -11452.957   -10585.579   -402.19235     102002.7      46.7237      46.7237      46.7237 
  491000     90.77137    -11481.38   -10607.432   -127.49657     102002.7      46.7237      46.7237      46.7237 
  492000    92.742641   -11471.768    -10578.84   -158.68543     102002.7      46.7237      46.7237      46.7237 
  493000     90.50369   -11447.205   -10575.834   -189.66384     102002.7      46.7237      46.7237      46.7237 
  494000    90.770809    -11468.05   -10594.107   -175.74004     102002.7      46.7237      46.7237      46.7237 
  495000      91.1028    -11454.23   -10577.091    142.68185     102002.7      46.7237      46.7237      46.7237 
  496000    91.320431   -11479.567   -10600.333   -231.59993     102002.7      46.7237      46.7237      46.7237 
  497000    93.183825   -11477.973   -10580.798    -352.1174     102002.7      46.7237      46.7237      46.7237 
  498000    89.877865    -11458.13   -10592.784   -371.24133     102002.7      46.7237      46.7237      46.7237 
  499000    91.833115   -11466.678   -10582.507   -432.60433     102002.7      46.7237      46.7237      46.7237 
  500000      89.5658    -11455.66   -10593.319   -207.28848     102002.7      46.7237      46.7237      46.7237 
  500500    93.284298   -11491.109   -10592.966   -310.28277     102002.7      46.7237      46.7237      46.7237 
Loop time of 1913.82 on 16 procs for 500000 steps with 3231 atoms

Performance: 22.573 ns/day, 1.063 hours/ns, 261.258 timesteps/s
99.8% CPU use with 16 MPI tasks x no OpenMP threads

MPI task timing breakdown:
Section |  min time  |  avg time  |  max time  |%varavg| %total
---------------------------------------------------------------
Pair    | 905.11     | 1176.8     | 1501.2     | 458.5 | 61.49
Bond    | 140.78     | 174.83     | 203.65     | 158.6 |  9.14
Neigh   | 14.761     | 14.873     | 14.971     |   2.2 |  0.78
Comm    | 181.52     | 530.27     | 814.95     | 730.2 | 27.71
Output  | 0.020969   | 0.021409   | 0.024629   |   0.6 |  0.00
Modify  | 8.9879     | 10.234     | 11.473     |  27.3 |  0.53
Other   |            | 6.764      |            |       |  0.35

Nlocal:    201.938 ave 241 max 178 min
Histogram: 3 2 3 2 1 1 2 1 0 1
Nghost:    4090.69 ave 4120 max 4050 min
Histogram: 1 0 1 1 3 3 1 2 1 3
Neighs:    11460.5 ave 15088 max 8106 min
Histogram: 1 1 2 2 5 1 0 1 2 1

Total # of neighbors = 183368
Ave neighs/atom = 56.7527
Ave special neighs/atom = 3.56546
Neighbor list builds = 4169
Dangerous builds = 0
Neighbor list info ...
  update every 1 steps, delay 10 steps, check yes
  max neighbors/atom: 2000, page size: 100000
  master list distance cutoff = 16
  ghost atom cutoff = 16
  binsize = 8, bins = 6 6 6
  3 neighbor lists, perpetual/occasional/extra = 3 0 0
  (1) pair buck6d/coul/gauss/dsf, perpetual, skip from (3)
      attributes: half, newton on
      pair build: skip
      stencil: none
      bin: none
  (2) pair lj/cut, perpetual, skip from (3)
      attributes: half, newton on
      pair build: skip
      stencil: none
      bin: none
  (3) neighbor class addition, perpetual
      attributes: half, newton on
      pair build: half/bin/newton
      stencil: half/bin/3d/newton
      bin: standard
Setting up Verlet run ...
  Unit style    : real
  Current step  : 500500
  Time step     : 1
WARNING: Inconsistent image flags (../domain.cpp:786)
Per MPI rank memory allocation (min/avg/max) = 22.79 | 23.23 | 23.44 Mbytes
Step Time TotEng KinEng PotEng E_mol E_pair Temp Pxx Pyy Pzz Pxy Pxz Pyz Cella Cellb Cellc CellAlpha CellBeta CellGamma Volume Press 
  500500       500000   -10592.966    898.14276   -11491.109     4153.054   -15644.163    93.284298   -628.40107   -151.74191   -150.70531    35.279777    66.507382   -95.843619      46.7237      46.7237      46.7237           90           90           90     102002.7   -310.28277 
  501000       500500   -10567.835    899.86945   -11467.704     4164.138   -15631.842    93.463638   -535.14932   -513.11322   -310.64819   -30.604084   -188.65244     100.7141      46.7237      46.7237      46.7237           90           90           90     102002.7   -452.97024 
  502000       501500   -10582.245    871.22368   -11453.468    4180.1803   -15633.649    90.488387   -573.50578   -139.48323   -56.924207   -198.64648    155.03831    -21.19789      46.7237      46.7237      46.7237           90           90           90     102002.7   -256.63774 
  503000       502500   -10599.496    864.57788   -11464.074     4172.755   -15636.829     89.79813   -371.88914   -229.98949   -456.91462   -20.580532   -179.55085    107.85859      46.7237      46.7237      46.7237           90           90           90     102002.7   -352.93108 
  504000       503500   -10579.047     868.8087   -11447.855    4188.1287   -15635.984    90.237558   -208.37081   -273.90715   -609.44539   -62.715514    138.21622   -94.402353      46.7237      46.7237      46.7237           90           90           90     102002.7   -363.90779 
  505000       504500    -10587.01    875.51578   -11462.526    4178.4673   -15640.993    90.934179   -381.22927   -278.07184     180.0911   -143.56133    151.38656     3.288982      46.7237      46.7237      46.7237           90           90           90     102002.7   -159.73667 
  506000       505500   -10590.149     854.3515   -11444.501    4184.6816   -15629.182    88.735982   -499.56401   -89.475263   -99.730059   -64.253442    135.22134   -10.920286      46.7237      46.7237      46.7237           90           90           90     102002.7   -229.58978 
  507000       506500   -10584.645    857.07765   -11441.722    4206.4204   -15648.143     89.01913   -231.31811   -60.722315     45.81338    79.105541   -208.30103    70.473831      46.7237      46.7237      46.7237           90           90           90     102002.7   -82.075682 
  508000       507500   -10573.523    893.36326   -11466.887     4173.139   -15640.026    92.787883   -413.76981    170.50809    464.67049    54.294601   -188.80741   -57.773507      46.7237      46.7237      46.7237           90           90           90     102002.7    73.802921 
  509000       508500   -10589.597    883.93301    -11473.53    4167.9807    -15641.51    91.808423   -451.07748   -225.21565   -46.225267    121.57154    228.61993   -213.50473      46.7237      46.7237      46.7237           90           90           90     102002.7   -240.83946 
  510000       509500   -10613.533    871.54027   -11485.073    4156.0835   -15641.156    90.521269   -406.14079   -121.57135    -64.25756    142.24977   -19.417479    42.799633      46.7237      46.7237      46.7237           90           90           90     102002.7   -197.32323 
  511000       510500   -10591.434    874.80385   -11466.238    4165.1761   -15631.414    90.860236   -486.24812   -258.58616    -424.8622    195.98688     70.85635    120.68287      46.7237      46.7237      46.7237           90           90           90     102002.7   -389.89882 
  512000       511500   -10611.809    861.52919   -11473.338    4179.2316    -15652.57    89.481483   -322.02658   -523.46461    77.142247   -296.29773    -257.0541   -69.519959      46.7237      46.7237      46.7237           90           90           90     102002.7   -256.11631 
  513000       512500   -10590.811    879.33402   -11470.145    4177.2476   -15647.392    91.330756   -732.42947   -404.22459    70.459812    27.842519    43.951361   -2.5724264      46.7237      46.7237      46.7237           90           90           90     102002.7   -355.39808 
  514000       513500   -10601.312    884.33982   -11485.651    4172.1423   -15657.794    91.850676   -335.76306   -770.48225     15.81982   -50.345301     219.6869   -122.75138      46.7237      46.7237      46.7237           90           90           90     102002.7   -363.47516 
  515000       514500   -10579.024    868.79181   -11447.816    4172.4933   -15620.309    90.235804    91.337045   -369.22352     126.4783    32.613423    2.8386048   -218.02919      46.7237      46.7237      46.7237           90           90           90     102002.7    -50.46939 
  516000       515500   -10603.417    858.51787   -11461.935     4169.628   -15631.563    89.168716   -785.43297   -255.27951   -261.51191    235.14148   -98.614143    103.29859      46.7237      46.7237      46.7237           90           90           90     102002.7    -434.0748 
  517000       516500   -10584.824    884.22716   -11469.051    4166.3513   -15635.402    91.838975   -76.094511   -109.55512    111.34373    62.058477    154.31834   -185.45188      46.7237      46.7237      46.7237           90           90           90     102002.7   -24.768631 
  518000       517500   -10555.276    895.87199   -11451.147    4175.3204   -15626.468    93.048449   -649.40586   -265.16382   -253.33422    255.39003    61.229824   -151.16474      46.7237      46.7237      46.7237           90           90           90     102002.7    -389.3013 
  519000       518500    -10603.16    879.19666   -11482.357    4156.1205   -15638.477    91.316489    139.93494   -201.32211     69.58364   -88.170953    167.13861    43.756883      46.7237      46.7237      46.7237           90           90           90     102002.7    2.7321599 
  520000       519500   -10582.424    887.22226   -11469.647    4192.6417   -15662.288    92.150056   -383.42545   -270.80609   -115.63132    145.28724    85.758625    86.163611      46.7237      46.7237      46.7237           90           90           90     102002.7   -256.62095 
  521000       520500     -10610.9    859.98373   -11470.884    4160.4724   -15631.356    89.320966    -211.2977   -220.41337    172.76766    72.247886   -128.42603   -17.748105      46.7237      46.7237      46.7237           90           90           90     102002.7   -86.314468 
  522000       521500    -10585.36     864.5417   -11449.901    4180.6749   -15630.576    89.794373   -161.11272   -221.65333   -157.70669   -148.85437   -148.41135   -219.80189      46.7237      46.7237      46.7237           90           90           90     102002.7   -180.15758 
  523000       522500   -10618.889    865.22625   -11484.116    4148.3297   -15632.445    89.865473   -460.32466    -603.6235   -162.97136    3.6086651   -258.03357    56.161208      46.7237      46.7237      46.7237           90           90           90     102002.7   -408.97318 
  524000       523500   -10579.478    885.87434   -11465.353    4181.0983   -15646.451    92.010057   -467.37829    116.26305   -713.59786   -67.448489     44.68765   -10.746067      46.7237      46.7237      46.7237           90           90           90     102002.7   -354.90437 
  525000       524500   -10619.384    845.76993   -11465.153    4172.1168    -15637.27     87.84467    167.77503    57.680987   -275.88919    8.0703293   -6.6172663    181.86486      46.7237      46.7237      46.7237           90           90           90     102002.7   -16.811059 
  526000       525500   -10616.621    855.01007   -11471.631     4169.715   -15641.346    88.804384   -410.82499   -115.99742   -147.54148   -48.789296   -143.37117     101.2295      46.7237      46.7237      46.7237           90           90           90     102002.7   -224.78796 
  527000       526500   -10554.982    888.48043   -11443.462    4179.3389   -15622.801    92.280734   -84.169015    51.199601   -61.334534     143.5934    156.11026    27.806048      46.7237      46.7237      46.7237           90           90           90     102002.7   -31.434649 
  528000       527500   -10617.089    858.43803   -11475.527    4163.8328   -15639.359    89.160424   -137.56754     3.171695   -157.99401    62.493874   -29.112817   -101.39104      46.7237      46.7237      46.7237           90           90           90     102002.7   -97.463282 
  529000       528500   -10594.224    875.11255   -11469.336       4173.1   -15642.436    90.892299   -685.12424   -384.55979    166.08813     121.5289   -269.40464    110.84595      46.7237      46.7237      46.7237           90           90           90     102002.7   -301.19863 
  530000       529500   -10557.211    886.99027   -11444.202    4195.8926   -15640.094    92.125962   -586.27808   -188.22524    13.868484    19.489589   -99.959188   -19.138012      46.7237      46.7237      46.7237           90           90           90     102002.7   -253.54494 
  531000       530500   -10582.769    887.29506   -11470.064    4162.4192   -15632.483    92.157618   -360.79639   -54.037815   -217.13034    129.87412   -11.682877    158.69656      46.7237      46.7237      46.7237           90           90           90     102002.7   -210.65485 
  532000       531500   -10568.273    904.67116   -11472.944    4171.2536   -15644.197    93.962361   -179.70632   -79.804743   -297.38813   -48.708533   -283.92135    178.53363      46.7237      46.7237      46.7237           90           90           90     102002.7   -185.63306 
  533000       532500   -10558.451    902.04943     -11460.5    4153.9304   -15614.431    93.690058    243.93913    61.622127     -80.1749   -6.0055525    74.219715    -47.78969      46.7237      46.7237      46.7237           90           90           90     102002.7    75.128785 
  534000       533500   -10592.748    865.98306   -11458.732    4184.1016   -15642.833    89.944078    -302.4602   -407.40961   -228.50144    88.372547   -222.24511   -47.959262      46.7237      46.7237      46.7237           90           90           90     102002.7   -312.79042 
  535000       534500   -10607.092     863.7145   -11470.807    4158.3076   -15629.114    89.708456   -151.45376   -208.54264   -353.64417    18.639592    87.966393    34.149468      46.7237      46.7237      46.7237           90           90           90     102002.7   -237.88019 
  536000       535500   -10586.202    873.12963   -11459.331    4185.5221   -15644.853    90.686346   -587.98647   -568.84367   -130.05559    76.268657    26.150042     42.20511      46.7237      46.7237      46.7237           90           90           90     102002.7   -428.96191 
  537000       536500   -10588.318    889.82411   -11478.142    4166.3298   -15644.472    92.420293   -669.85265   -606.32051    -190.0746    131.90971     12.80496     190.7445      46.7237      46.7237      46.7237           90           90           90     102002.7   -488.74925 
  538000       537500   -10578.858    873.34936   -11452.208    4160.9201   -15613.128    90.709168   -302.75774   -232.89259    386.50658   -181.24927   -81.141456    75.332511      46.7237      46.7237      46.7237           90           90           90     102002.7   -49.714581 
  539000       538500   -10637.901    854.44474   -11492.345    4134.6674   -15627.013    88.745667    -544.8437   -197.45546   -156.29629    33.748232   -162.77988    129.63978      46.7237      46.7237      46.7237           90           90           90     102002.7   -299.53182 
  540000       539500   -10587.571    873.74762   -11461.318    4167.3891   -15628.707    90.750532   -426.00861    166.29057   -92.674047    101.52816   -69.058489   -131.53285      46.7237      46.7237      46.7237           90           90           90     102002.7   -117.46403 
  541000       540500   -10604.343    877.61378   -11481.957    4174.2235    -15656.18    91.152085   -720.39785   -130.20011   -536.17858   -150.59548    52.765184   -126.96016      46.7237      46.7237      46.7237           90           90           90     102002.7   -462.25884 
  542000       541500   -10576.075    885.75485    -11461.83    4156.6838   -15618.514    91.997646   -328.99419   -224.68901   -77.065489    136.36269    305.07022    121.92651      46.7237      46.7237      46.7237           90           90           90     102002.7   -210.24956 
  543000       542500   -10631.646    870.12873   -11501.775    4140.3407   -15642.116    90.374662   -690.40725   -1.6623228    48.365738    -70.78288   -39.969269   -152.16184      46.7237      46.7237      46.7237           90           90           90     102002.7   -214.56794 
  544000       543500   -10605.181    874.11961   -11479.301    4158.7676   -15638.069    90.789168    -397.9615   -153.73887     257.5122    198.51111    222.96163   -45.420073      46.7237      46.7237      46.7237           90           90           90     102002.7   -98.062723 
  545000       544500   -10595.088    863.15166   -11458.239    4183.9449   -15642.184    89.649998   -278.16015   -366.29765   -128.70911    4.9086586    25.688813    109.50582      46.7237      46.7237      46.7237           90           90           90     102002.7    -257.7223 
  546000       545500   -10622.886    865.17075   -11488.056    4154.5189   -15642.575    89.859709   -518.99086   -242.34397   -97.129192   -109.02502    25.253968    7.7190432      46.7237      46.7237      46.7237           90           90           90     102002.7   -286.15467 
  547000       546500   -10605.756    865.93678   -11471.693    4158.6708   -15630.364    89.939271   -367.10848   -62.455443    -461.2966    262.20091   -1.5618408    107.81363      46.7237      46.7237      46.7237           90           90           90     102002.7   -296.95351 
  548000       547500   -10606.346    877.29837   -11483.645    4156.9942   -15640.639    91.119326   -241.96297   -603.03167    139.14451    288.66717    -54.51014   -115.10613      46.7237      46.7237      46.7237           90           90           90     102002.7   -235.28338 
  549000       548500   -10567.743    893.50688   -11461.249    4169.8477   -15631.097    92.802799    3.9993544   0.37416538   -430.36147     143.7415      137.424   -22.509393      46.7237      46.7237      46.7237           90           90           90     102002.7   -141.99598 
  550000       549500   -10614.356    863.53868   -11477.894    4164.8399   -15642.734    89.690196   -598.25218   -243.74694   -307.69186    77.775376      25.3524    103.14118      46.7237      46.7237      46.7237           90           90           90     102002.7   -383.23033 
  551000       550500   -10613.927    856.58099   -11470.508    4176.1622    -15646.67    88.967545   -425.11262    68.890387    -255.8036   -131.44707   -2.9428214   -91.685557      46.7237      46.7237      46.7237           90           90           90     102002.7   -204.00861 
  552000       551500   -10593.301    869.36211   -11462.663    4181.4019   -15644.065    90.295038   -864.40318    270.50789    297.28313   -40.114029    53.443056    216.78361      46.7237      46.7237      46.7237           90           90           90     102002.7   -98.870719 
  553000       552500   -10574.582    880.41616   -11454.999    4182.9596   -15637.958    91.443151   -258.28018   -249.43188   -603.67446   -33.177901   -98.172947   -119.36916      46.7237      46.7237      46.7237           90           90           90     102002.7   -370.46217 
  554000       553500   -10575.199    879.44855   -11454.648    4183.0331   -15637.681    91.342651     -399.474   -224.25943    -260.3887    81.717917   -28.270622   -128.11818      46.7237      46.7237      46.7237           90           90           90     102002.7   -294.70737 
  555000       554500   -10599.346    866.92318   -11466.269    4173.5656   -15639.835    90.041722   -479.91732   -561.56174   -477.23977    23.805658    47.299021   -18.514585      46.7237      46.7237      46.7237           90           90           90     102002.7   -506.23961 
[...]
  936000       935500   -10583.963    898.12166   -11482.085    4158.8897   -15640.975    93.282107    -581.5538   -70.671391    11.199248   -61.060789    1.9967849    86.605494      46.7237      46.7237      46.7237           90           90           90     102002.7   -213.67532 
  937000       936500   -10602.879    878.05679   -11480.936    4158.5892   -15639.525    91.198098   -28.722385   -222.02856    92.708719    4.5279719   -145.82662    60.650963      46.7237      46.7237      46.7237           90           90           90     102002.7   -52.680743 
  938000       937500   -10585.765    868.08918   -11453.854    4189.8062   -15643.661    90.162827   -402.60974   -352.06839   -238.13329   -166.08581   -35.566175   -69.767215      46.7237      46.7237      46.7237           90           90           90     102002.7   -330.93714 
  939000       938500   -10593.638    883.35915   -11476.997    4171.0111   -15648.009     91.74882   -118.23782    107.39947   -627.41697   -39.360398   -217.03159   -71.131436      46.7237      46.7237      46.7237           90           90           90     102002.7   -212.75177 
  940000       939500   -10606.605    868.08846   -11474.694    4168.5182   -15643.212    90.162751    -21.92391    262.72453    6.2741226    24.819269   -35.681924   -58.716072      46.7237      46.7237      46.7237           90           90           90     102002.7    82.358246 
  941000       940500   -10582.581    880.26198   -11462.843    4166.4745   -15629.317    91.427137   -425.71235   -281.92472   -7.6064452   -206.67905    60.745992   -48.962831      46.7237      46.7237      46.7237           90           90           90     102002.7    -238.4145 
  942000       941500   -10601.904    877.46276   -11479.367    4154.9858   -15634.353      91.1364   -426.27459    143.25185     -46.3487    165.74753    119.06143   -48.656871      46.7237      46.7237      46.7237           90           90           90     102002.7   -109.79048 
  943000       942500    -10577.49    881.41114   -11458.901    4175.7652   -15634.666    91.546493   -130.13835   -307.05216   -435.88334    -122.1648    261.24853    159.24022      46.7237      46.7237      46.7237           90           90           90     102002.7   -291.02462 
  944000       943500   -10608.476    855.15674   -11463.632    4164.4881    -15628.12    88.819617   -262.74994    69.316425   -215.50958   -46.616435   -176.20567    -156.9434      46.7237      46.7237      46.7237           90           90           90     102002.7   -136.31437 
  945000       944500   -10582.552    876.89952   -11459.451    4191.4122   -15650.863      91.0779   -110.64958   -166.61424    452.37373    72.007873    67.463449    51.836777      46.7237      46.7237      46.7237           90           90           90     102002.7     58.36997 
  946000       945500   -10560.525    895.63297   -11456.157    4171.1298   -15627.287    93.023623   -166.99443   -505.80409   -483.37394   -35.199684   -157.45088   -71.971206      46.7237      46.7237      46.7237           90           90           90     102002.7   -385.39082 
  947000       946500   -10589.649    886.54976   -11476.199    4181.2951   -15657.494    92.080208   -351.93526     -261.923   -132.83503    152.18401    79.448086   -157.55319      46.7237      46.7237      46.7237           90           90           90     102002.7   -248.89776 
  948000       947500   -10598.708    882.02986   -11480.738    4161.4157   -15642.154    91.610755   -448.00148   -88.250427   -65.769671   -141.21497   -120.80337    50.048999      46.7237      46.7237      46.7237           90           90           90     102002.7   -200.67386 
  949000       948500    -10593.51    869.89723   -11463.407     4172.098   -15635.505    90.350618   -465.46742   -423.70775    103.76632   -109.91646    149.88689    -220.0209      46.7237      46.7237      46.7237           90           90           90     102002.7   -261.80295 
  950000       949500   -10590.078    878.32498   -11468.403    4156.6221   -15625.025    91.225954    100.73436   -70.102276    310.89965     9.640605    4.7885938    33.215266      46.7237      46.7237      46.7237           90           90           90     102002.7    113.84391 
  951000       950500   -10603.072     887.6288   -11490.701    4153.8992     -15644.6    92.192281   -240.55317    33.498298   -279.27039    198.23871    102.89584   -59.004621      46.7237      46.7237      46.7237           90           90           90     102002.7   -162.10842 
  952000       951500   -10570.984    898.58687   -11469.571    4158.1767   -15627.747    93.330425   -574.86867   -216.66223   -472.53732    83.957106   -44.499158    27.585667      46.7237      46.7237      46.7237           90           90           90     102002.7   -421.35607 
  953000       952500   -10606.574    863.09344   -11469.667    4167.2378   -15636.905    89.643951   -331.59543   -436.37736   -216.62864    105.98448   -36.457783    202.37905      46.7237      46.7237      46.7237           90           90           90     102002.7   -328.20048 
  954000       953500   -10596.553     878.6794   -11475.232    4168.3931   -15643.625    91.262765   -388.79537   -616.05041   -635.06571    -133.0097   -163.94531    83.681592      46.7237      46.7237      46.7237           90           90           90     102002.7   -546.63717 
  955000       954500    -10609.85    864.92838   -11474.778       4152.2   -15626.978    89.834535   -353.63322   -97.467529   -220.62784    29.128455    76.443824   -81.008025      46.7237      46.7237      46.7237           90           90           90     102002.7   -223.90953 
  956000       955500   -10600.297    867.02576   -11467.322    4157.1245   -15624.447    90.052376    100.23163   -210.46248    40.735836    -137.2373    125.62448    122.60041      46.7237      46.7237      46.7237           90           90           90     102002.7   -23.165002 
  957000       956500   -10611.412    856.66975   -11468.082     4158.524   -15626.606    88.976765   -936.88432   -196.44208   -489.07294    87.314443   -36.352889    152.80633      46.7237      46.7237      46.7237           90           90           90     102002.7   -540.79978 
  958000       957500   -10597.725    875.37544   -11473.101    4170.5197   -15643.621    90.919604   -183.66266   -145.84329   -387.38063    -275.0999   -311.18405    107.74497      46.7237      46.7237      46.7237           90           90           90     102002.7   -238.96219 
  959000       958500    -10554.02    894.24202   -11448.262    4173.2582    -15621.52    92.879153   -383.19874    297.08081    9.2124975   -61.908486   -158.40702    -37.04481      46.7237      46.7237      46.7237           90           90           90     102002.7   -25.635146 
  960000       959500   -10584.845    880.73407   -11465.579    4152.1665   -15617.745     91.47617   -151.69748   -83.288296   -28.116256   -212.72756   -7.9395948    397.88363      46.7237      46.7237      46.7237           90           90           90     102002.7   -87.700678 
  961000       960500   -10605.456    872.39507   -11477.851    4165.4172   -15643.268    90.610052   -400.02992   -96.750198    4.1212974    184.41102   -49.801295    -152.3483      46.7237      46.7237      46.7237           90           90           90     102002.7   -164.21961 
  962000       961500   -10604.269    879.58157    -11483.85    4167.1286   -15650.979    91.356467   -520.19646   -90.840023    225.75298   -110.86265   -270.20431    135.94476      46.7237      46.7237      46.7237           90           90           90     102002.7   -128.42784 
  963000       962500   -10640.006    848.93672   -11488.943    4127.1022   -15616.045    88.173584    -252.0703   -318.34345    106.04732    46.487729    -261.7396    46.993728      46.7237      46.7237      46.7237           90           90           90     102002.7   -154.78881 
  964000       963500   -10656.371    837.50318   -11493.875    4172.1379   -15666.012    86.986056   -484.60514   -201.53994   -224.48828   -34.686862   -142.68135    99.075597      46.7237      46.7237      46.7237           90           90           90     102002.7   -303.54445 
  965000       964500   -10588.534    850.63076   -11439.165    4177.0471   -15616.212    88.349533   -382.28548   -566.86107   -320.98903   -48.648125    45.088091    44.755055      46.7237      46.7237      46.7237           90           90           90     102002.7   -423.37852 
  966000       965500   -10594.253    890.40621   -11484.659    4143.4107    -15628.07    92.480753    24.259677    -259.3287   -246.60424    112.66985    22.381526   -129.45744      46.7237      46.7237      46.7237           90           90           90     102002.7   -160.55775 
  967000       966500   -10607.517    865.92606   -11473.443     4153.945   -15627.388    89.938158   -78.877969    -408.1235   -37.496138    52.131726    14.537461   -118.33595      46.7237      46.7237      46.7237           90           90           90     102002.7   -174.83254 
  968000       967500   -10594.555    875.90366   -11470.458    4164.2424   -15634.701    90.974467   -330.63937   -515.56316   -44.348047    108.58148   -68.783505   -81.096905      46.7237      46.7237      46.7237           90           90           90     102002.7   -296.85019 
  969000       968500   -10590.366    884.78594   -11475.152    4164.6261   -15639.778    91.897012   -188.48239   -218.97286    111.18715   -1.7038677    161.90194    296.69975      46.7237      46.7237      46.7237           90           90           90     102002.7   -98.756033 
  970000       969500   -10622.125    860.59236   -11482.717    4145.1602   -15627.877     89.38418   -251.52512   -566.82635   -575.39479    34.649745    58.402562   -238.98253      46.7237      46.7237      46.7237           90           90           90     102002.7   -464.58209 
  971000       970500   -10589.571    876.81606   -11466.387     4178.142   -15644.529    91.069231   -109.56091   -322.41222   -71.345827    76.636009    217.26739   -118.16436      46.7237      46.7237      46.7237           90           90           90     102002.7   -167.77298 
  972000       971500   -10618.574    858.87572   -11477.449    4146.1612   -15623.611    89.205884   -172.97921    185.45419   -49.150306    173.81713   -25.694521    164.25127      46.7237      46.7237      46.7237           90           90           90     102002.7   -12.225108 
  973000       972500   -10593.766    875.70378    -11469.47    4162.0754   -15631.546    90.953707    -114.6817    9.6466898   -69.847548    104.51453   -99.714725   -40.520246      46.7237      46.7237      46.7237           90           90           90     102002.7   -58.294186 
  974000       973500   -10581.671    888.50502   -11470.176    4170.5654   -15640.742    92.283288    183.04182   -347.66025   -668.10843   -118.26707    61.924292    -1.800174      46.7237      46.7237      46.7237           90           90           90     102002.7   -277.57562 
  975000       974500   -10588.237    871.69156   -11459.928    4152.1924    -15612.12    90.536982      33.6143    -223.8623   -295.34931    -6.278445   -93.343334   -325.98724      46.7237      46.7237      46.7237           90           90           90     102002.7   -161.86577 
  976000       975500   -10601.413     856.3047   -11457.718    4178.0019    -15635.72    88.938849   -286.20889   -252.58391   -258.19658   -14.987551    186.16977   -158.90681      46.7237      46.7237      46.7237           90           90           90     102002.7   -265.66313 
  977000       976500   -10563.658    887.69133   -11451.349    4172.1751   -15623.524    92.198776    89.351572   -165.06667   -396.50435    206.36779   -111.64263    210.31956      46.7237      46.7237      46.7237           90           90           90     102002.7   -157.40648 
  978000       977500   -10590.879    886.88998   -11477.769    4157.2392   -15635.008    92.115545   -128.38333   -534.53252   -244.24802    34.665368    58.436313   -78.337089      46.7237      46.7237      46.7237           90           90           90     102002.7   -302.38796 
  979000       978500   -10570.203    886.03897   -11456.242     4166.262   -15622.504    92.027156   -234.91592   -480.93008   -306.83257    -22.85628   -239.47197    41.340551      46.7237      46.7237      46.7237           90           90           90     102002.7   -340.89286 
  980000       979500    -10587.73    887.40907   -11475.139    4165.7201   -15640.859    92.169459   -766.56588   -118.06011   -368.11121    72.515147   -220.61484   -219.84215      46.7237      46.7237      46.7237           90           90           90     102002.7   -417.57906 
  981000       980500   -10571.674    905.09204   -11476.766     4174.288   -15651.054    94.006075   -144.47878   -616.73237   -561.81715   -62.023405     29.43736   -298.81826      46.7237      46.7237      46.7237           90           90           90     102002.7   -441.00943 
  982000       981500   -10604.433    893.63886   -11498.072    4142.4927   -15640.565    92.816507     89.18362    -189.6977   -514.25315   -36.303416    142.53547   -11.552009      46.7237      46.7237      46.7237           90           90           90     102002.7   -204.92241 
  983000       982500   -10628.475    836.39461    -11464.87      4158.45    -15623.32    86.870916    297.65953   -59.828899   -148.14455     61.06867     111.2561    66.934996      46.7237      46.7237      46.7237           90           90           90     102002.7     29.89536 
  984000       983500   -10610.456    870.57557   -11481.031    4149.0747   -15630.106    90.421072   -264.60515   -125.60655   -221.65936   -136.15117   -141.52069   -142.08213      46.7237      46.7237      46.7237           90           90           90     102002.7   -203.95702 
  985000       984500   -10595.241    872.49896    -11467.74    4179.3554   -15647.095    90.620842   -329.67727   -518.56857   -486.50403   -259.85535   -115.03589     3.913491      46.7237      46.7237      46.7237           90           90           90     102002.7   -444.91662 
  986000       985500   -10602.892    856.53096   -11459.423    4155.1378   -15614.561    88.962349     108.6545   -658.01296   -511.49754     -92.0834    58.851961    91.676877      46.7237      46.7237      46.7237           90           90           90     102002.7   -353.61867 
  987000       986500   -10578.028    881.22272   -11459.251     4187.395   -15646.646    91.526923   -278.25389    -242.2116   -538.24322    58.923102   -22.848174   -188.55687      46.7237      46.7237      46.7237           90           90           90     102002.7   -352.90291 
  988000       987500   -10603.778    880.67499   -11484.453    4174.8896   -15659.342    91.470034   -432.98369   -331.39686   -508.11456   -102.06248    5.3191305    44.280659      46.7237      46.7237      46.7237           90           90           90     102002.7   -424.16504 
  989000       988500   -10581.503    881.40717    -11462.91    4175.5115   -15638.421    91.546081   -275.17835   -137.23904   -611.63485    108.63845    -121.6204    41.561077      46.7237      46.7237      46.7237           90           90           90     102002.7   -341.35075 
  990000       989500   -10609.838    863.75322   -11473.591     4174.364   -15647.955    89.712479   -266.05236   -105.22952   -304.24455    160.18331    27.809575    24.533938      46.7237      46.7237      46.7237           90           90           90     102002.7   -225.17548 
  991000       990500   -10623.056    856.90194   -11479.958    4147.5996   -15627.557     89.00088   -345.86968    65.436659   -270.76694    57.251044    36.717143   -71.196845      46.7237      46.7237      46.7237           90           90           90     102002.7   -183.73332 
  992000       991500   -10581.336    890.99006   -11472.326    4165.0591   -15637.385    92.541394    -298.4608   -423.46435   -212.42049    41.487878   -108.54388    78.309816      46.7237      46.7237      46.7237           90           90           90     102002.7   -311.44855 
  993000       992500   -10597.037    873.51002   -11470.547    4162.8414   -15633.388    90.725854    -231.8801    -163.7592    131.37158    209.27079    14.081752    14.064274      46.7237      46.7237      46.7237           90           90           90     102002.7   -88.089239 
  994000       993500   -10576.015    885.71796   -11461.733    4167.9471    -15629.68    91.993814   -77.904843   -244.81986   -333.79566    135.57797    74.678199    147.55992      46.7237      46.7237      46.7237           90           90           90     102002.7   -218.84012 
  995000       994500   -10639.566    853.92407    -11493.49    4155.6499    -15649.14    88.691588   -422.02654   -362.64263   -728.98355    337.38949   -127.73308    120.45222      46.7237      46.7237      46.7237           90           90           90     102002.7    -504.5509 
  996000       995500   -10603.531    866.05161   -11469.583     4156.071   -15625.654    89.951197   -177.04609   -560.67079   -396.18243    24.242045   -15.589073    -290.7045      46.7237      46.7237      46.7237           90           90           90     102002.7   -377.96644 
  997000       996500   -10627.967    854.26281   -11482.229    4167.3774   -15649.607    88.726771   -869.77179   -220.53077   -411.69662    9.8614966   -52.049542    215.16195      46.7237      46.7237      46.7237           90           90           90     102002.7   -500.66639 
  998000       997500   -10585.149    895.81432   -11480.964    4134.2089   -15615.173    93.042459   -282.74272   -45.095281    61.376513    -178.6453    -150.8113    -4.237385      46.7237      46.7237      46.7237           90           90           90     102002.7   -88.820496 
  999000       998500   -10618.104    868.80951   -11486.914    4147.1544   -15634.068    90.237643   -363.40592   -294.58321   -132.79471    166.49494   -187.05054   -84.174256      46.7237      46.7237      46.7237           90           90           90     102002.7   -263.59461 
 1000000       999500   -10573.406    893.62795   -11467.034    4156.8439   -15623.878    92.815374   -423.03524   -121.08443   -49.146134   -97.142194   -103.77803    83.783919      46.7237      46.7237      46.7237           90           90           90     102002.7   -197.75527 
 1000500      1000000   -10567.126    892.98208   -11460.108     4164.952    -15625.06    92.748292   -489.02717    65.289292     164.2562    18.560101   -99.413303   -52.423369      46.7237      46.7237      46.7237           90           90           90     102002.7   -86.493891 
Loop time of 2244.71 on 16 procs for 500000 steps with 3231 atoms

Performance: 19.245 ns/day, 1.247 hours/ns, 222.745 timesteps/s
99.8% CPU use with 16 MPI tasks x no OpenMP threads

MPI task timing breakdown:
Section |  min time  |  avg time  |  max time  |%varavg| %total
---------------------------------------------------------------
Pair    | 1213.1     | 1485.9     | 1840.5     | 404.1 | 66.20
Bond    | 141.07     | 184.09     | 221.83     | 179.0 |  8.20
Neigh   | 14.47      | 14.581     | 14.679     |   2.2 |  0.65
Comm    | 148.52     | 527.85     | 836.87     | 717.3 | 23.52
Output  | 0.12948    | 0.13622    | 0.13681    |   0.5 |  0.01
Modify  | 23.626     | 25.181     | 26.368     |  19.1 |  1.12
Other   |            | 6.962      |            |       |  0.31

Nlocal:    201.938 ave 247 max 173 min
Histogram: 2 2 3 2 2 2 1 0 1 1
Nghost:    4078.75 ave 4111 max 4030 min
Histogram: 1 0 1 1 3 1 2 4 1 2
Neighs:    11459.8 ave 18687 max 6305 min
Histogram: 2 4 0 2 1 3 1 1 1 1

Total # of neighbors = 183357
Ave neighs/atom = 56.7493
Ave special neighs/atom = 3.56546
Neighbor list builds = 4152
Dangerous builds = 0
Total wall time: 1:09:23
