LAMMPS (30 Mar 2018)
Reading data file ...
  orthogonal box = (0 0 0) to (46.7237 46.7237 46.7237)
  2 by 2 by 4 MPI processor grid
  reading atoms ...
  3316 atoms
  scanning bonds ...
  5 = max bonds/atom
  scanning angles ...
  10 = max angles/atom
  scanning dihedrals ...
  32 = max dihedrals/atom
  scanning impropers ...
  3 = max impropers/atom
  reading bonds ...
  2064 bonds
  reading angles ...
  3696 angles
  reading dihedrals ...
  6240 dihedrals
  reading impropers ...
  1008 impropers
Finding 1-2 1-3 1-4 neighbors ...
  special bond factors lj:   0          0          0         
  special bond factors coul: 0          0          0         
  5 = max # of 1-2 neighbors
  8 = max # of 1-3 neighbors
  20 = max # of 1-4 neighbors
  19 = max # of special neighbors
Finding 1-2 1-3 1-4 neighbors ...
  special bond factors lj:   0          0          1         
  special bond factors coul: 1          1          1         
  5 = max # of 1-2 neighbors
  8 = max # of 1-3 neighbors
  19 = max # of special neighbors
WARNING: Using 'neigh_modify every 1 delay 0 check yes' setting during minimization (../min.cpp:168)
Neighbor list info ...
  update every 1 steps, delay 0 steps, check yes
  max neighbors/atom: 2000, page size: 100000
  master list distance cutoff = 16
  ghost atom cutoff = 16
  binsize = 8, bins = 6 6 6
  3 neighbor lists, perpetual/occasional/extra = 3 0 0
  (1) pair buck6d/coul/gauss/dsf, perpetual, skip from (3)
      attributes: half, newton on
      pair build: skip
      stencil: none
      bin: none
  (2) pair lj/cut, perpetual, skip from (3)
      attributes: half, newton on
      pair build: skip
      stencil: none
      bin: none
  (3) neighbor class addition, perpetual
      attributes: half, newton on
      pair build: half/bin/newton
      stencil: half/bin/3d/newton
      bin: standard
Setting up cg style minimization ...
  Unit style    : real
  Current step  : 0
WARNING: Inconsistent image flags (../domain.cpp:786)
Per MPI rank memory allocation (min/avg/max) = 23.03 | 23.48 | 23.92 Mbytes
Step Temp E_pair E_mol TotEng Press 
       0            0   -15979.853    6482.8914   -9496.9611    6561.5928 
     500            0   -16319.929    3762.9547   -12556.974   -1190.3866 
Loop time of 4.42908 on 16 procs for 500 steps with 3316 atoms

99.8% CPU use with 16 MPI tasks x no OpenMP threads

Minimization stats:
  Stopping criterion = max force evaluations
  Energy initial, next-to-last, final = 
        -9496.96111957     -12556.9144689     -12556.9744533
  Force two-norm initial, final = 2575.1 10.788
  Force max component initial, final = 152.049 1.62852
  Final line search alpha, max atom move = 0.00703031 0.011449
  Iterations, force evaluations = 500 1000

MPI task timing breakdown:
Section |  min time  |  avg time  |  max time  |%varavg| %total
---------------------------------------------------------------
Pair    | 2.5683     | 3.1135     | 3.5416     |  17.5 | 70.30
Bond    | 0.31479    | 0.35985    | 0.42679    |   4.8 |  8.12
Neigh   | 0.027872   | 0.028069   | 0.028186   |   0.1 |  0.63
Comm    | 0.45622    | 0.88159    | 1.4191     |  32.6 | 19.90
Output  | 0          | 0          | 0          |   0.0 |  0.00
Modify  | 0          | 0          | 0          |   0.0 |  0.00
Other   |            | 0.04605    |            |       |  1.04

Nlocal:    207.25 ave 221 max 181 min
Histogram: 1 0 0 0 5 1 2 0 2 5
Nghost:    4150.19 ave 4185 max 4131 min
Histogram: 3 2 1 3 4 1 1 0 0 1
Neighs:    11508.9 ave 15041 max 7627 min
Histogram: 3 1 1 2 2 0 0 1 3 3

Total # of neighbors = 184143
Ave neighs/atom = 55.5317
Ave special neighs/atom = 3.47407
Neighbor list builds = 8
Dangerous builds = 0
Neighbor list info ...
  update every 1 steps, delay 10 steps, check yes
  max neighbors/atom: 2000, page size: 100000
  master list distance cutoff = 16
  ghost atom cutoff = 16
  binsize = 8, bins = 6 6 6
  3 neighbor lists, perpetual/occasional/extra = 3 0 0
  (1) pair buck6d/coul/gauss/dsf, perpetual, skip from (3)
      attributes: half, newton on
      pair build: skip
      stencil: none
      bin: none
  (2) pair lj/cut, perpetual, skip from (3)
      attributes: half, newton on
      pair build: skip
      stencil: none
      bin: none
  (3) neighbor class addition, perpetual
      attributes: half, newton on
      pair build: half/bin/newton
      stencil: half/bin/3d/newton
      bin: standard
Setting up Verlet run ...
  Unit style    : real
  Current step  : 500
  Time step     : 1
WARNING: Inconsistent image flags (../domain.cpp:786)
Per MPI rank memory allocation (min/avg/max) = 22.67 | 22.74 | 22.8 Mbytes
Step Temp PotEng TotEng Press Volume Lx Ly Lz 
     500           91   -12556.974   -11657.768   -787.40951     102002.7      46.7237      46.7237      46.7237 
    1000      77.0823   -11816.625   -11054.945    430.48198     102002.7      46.7237      46.7237      46.7237 
    2000    92.641232   -11678.236   -10762.812    590.10242     102002.7      46.7237      46.7237      46.7237 
    3000    91.922634   -11707.358   -10799.035    631.18477     102002.7      46.7237      46.7237      46.7237 
    4000    91.204184   -11698.049   -10796.826    654.56862     102002.7      46.7237      46.7237      46.7237 
    5000    90.233296   -11667.389   -10775.759     731.7715     102002.7      46.7237      46.7237      46.7237 
    6000     90.30912   -11707.688   -10815.309    525.03871     102002.7      46.7237      46.7237      46.7237 
    7000    92.483275   -11691.228   -10777.365    626.54224     102002.7      46.7237      46.7237      46.7237 
    8000    89.670673   -11694.081   -10808.011    761.95251     102002.7      46.7237      46.7237      46.7237 
    9000    91.391528   -11684.042   -10780.967    691.69186     102002.7      46.7237      46.7237      46.7237 
   10000    87.808772   -11685.646   -10817.973    604.18825     102002.7      46.7237      46.7237      46.7237 
   11000     92.76033   -11697.669   -10781.068    852.90387     102002.7      46.7237      46.7237      46.7237 
   12000     90.02473   -11702.632   -10813.063    518.63893     102002.7      46.7237      46.7237      46.7237 
   13000    90.122755   -11700.592   -10810.054    752.52617     102002.7      46.7237      46.7237      46.7237 
   14000    93.613908    -11697.83   -10772.795    891.56838     102002.7      46.7237      46.7237      46.7237 
   15000    90.798841   -11693.886   -10796.668    435.59932     102002.7      46.7237      46.7237      46.7237 
   16000    89.286335   -11702.168   -10819.896    819.78551     102002.7      46.7237      46.7237      46.7237 
   17000    90.829387   -11716.576   -10819.056    594.15309     102002.7      46.7237      46.7237      46.7237 
   18000    92.168002   -11696.309   -10785.561    755.74051     102002.7      46.7237      46.7237      46.7237 
   19000    90.805059   -11713.851   -10816.571    432.69068     102002.7      46.7237      46.7237      46.7237 
   20000    90.097655    -11709.27    -10818.98    555.27045     102002.7      46.7237      46.7237      46.7237 
   21000    94.465175   -11707.302   -10773.855    739.85638     102002.7      46.7237      46.7237      46.7237 
   22000    91.897314   -11734.149   -10826.076    472.49579     102002.7      46.7237      46.7237      46.7237 
   23000    90.910338   -11716.145   -10817.825    607.30328     102002.7      46.7237      46.7237      46.7237 
   24000    88.904977   -11711.443   -10832.939    728.06448     102002.7      46.7237      46.7237      46.7237 
   25000    93.258594   -11726.348   -10804.824    566.54554     102002.7      46.7237      46.7237      46.7237 
   26000    90.224562   -11733.753   -10842.209    679.11726     102002.7      46.7237      46.7237      46.7237 
   27000    91.648273   -11696.613   -10791.002    805.11125     102002.7      46.7237      46.7237      46.7237 
   28000     91.61477   -11724.729   -10819.448    640.74406     102002.7      46.7237      46.7237      46.7237 
   29000    94.409398   -11715.638   -10782.743    746.84233     102002.7      46.7237      46.7237      46.7237 
   30000    88.997145   -11705.399   -10825.984    733.15563     102002.7      46.7237      46.7237      46.7237 
   31000    92.381807   -11686.909   -10774.049    587.34955     102002.7      46.7237      46.7237      46.7237 
   32000    91.184842   -11715.967   -10814.935    553.65393     102002.7      46.7237      46.7237      46.7237 
   33000    90.742119   -11734.595   -10837.938    713.28243     102002.7      46.7237      46.7237      46.7237 
   34000    90.047399   -11707.284   -10817.491    782.42557     102002.7      46.7237      46.7237      46.7237 
   35000    90.203872   -11692.246   -10800.907    609.14772     102002.7      46.7237      46.7237      46.7237 
   36000     88.51697   -11710.826   -10836.156    465.76838     102002.7      46.7237      46.7237      46.7237 
   37000    89.630203   -11711.684   -10826.013    527.66117     102002.7      46.7237      46.7237      46.7237 
   38000    91.250113   -11722.749   -10821.071     496.7587     102002.7      46.7237      46.7237      46.7237 
   39000    93.124924   -11725.965   -10805.761    532.29176     102002.7      46.7237      46.7237      46.7237 
   40000    90.858786   -11716.403   -10818.593    591.02371     102002.7      46.7237      46.7237      46.7237 
   41000    90.967099   -11730.429   -10831.548    678.01129     102002.7      46.7237      46.7237      46.7237 
   42000    91.472956   -11707.304   -10803.425    726.36457     102002.7      46.7237      46.7237      46.7237 
   43000    92.989855   -11748.045   -10829.176    562.54066     102002.7      46.7237      46.7237      46.7237 
   44000    90.635882   -11705.685   -10810.077    973.69618     102002.7      46.7237      46.7237      46.7237 
   45000    89.044544   -11711.733   -10831.849    644.04872     102002.7      46.7237      46.7237      46.7237 
   46000    91.047265   -11742.156   -10842.483    594.20804     102002.7      46.7237      46.7237      46.7237 
   47000    91.604582   -11697.842   -10792.662    651.93912     102002.7      46.7237      46.7237      46.7237 
   48000    90.136975   -11728.919    -10838.24    804.37466     102002.7      46.7237      46.7237      46.7237 
   49000    91.471405   -11715.163   -10811.299    451.04396     102002.7      46.7237      46.7237      46.7237 
   50000    91.192477   -11702.642   -10801.534    332.66484     102002.7      46.7237      46.7237      46.7237 
   51000     89.83141   -11701.521   -10813.862    565.61054     102002.7      46.7237      46.7237      46.7237 
   52000    92.480491    -11692.52   -10778.684    805.66022     102002.7      46.7237      46.7237      46.7237 
   53000    89.964464    -11698.72   -10809.746    776.50456     102002.7      46.7237      46.7237      46.7237 
   54000    91.791096   -11718.509   -10811.486    698.72775     102002.7      46.7237      46.7237      46.7237 
   55000    93.498214    -11729.51   -10805.618    756.71896     102002.7      46.7237      46.7237      46.7237 
   56000    90.922353    -11701.14   -10802.701     365.4684     102002.7      46.7237      46.7237      46.7237 
   57000    90.293217   -11702.309   -10810.087    537.79227     102002.7      46.7237      46.7237      46.7237 
   58000    89.977732   -11726.636   -10837.531    866.50711     102002.7      46.7237      46.7237      46.7237 
   59000    89.589787   -11730.384   -10845.113    358.22718     102002.7      46.7237      46.7237      46.7237 
   60000    93.386668   -11698.748   -10775.959    784.56632     102002.7      46.7237      46.7237      46.7237 
   61000    89.143047    -11700.01   -10819.153    524.99237     102002.7      46.7237      46.7237      46.7237 
   62000    90.011692   -11724.456   -10835.016    322.89706     102002.7      46.7237      46.7237      46.7237 
   63000    91.152492   -11704.626   -10803.913    1037.6259     102002.7      46.7237      46.7237      46.7237 
   64000    94.409495   -11727.991   -10795.094     717.0968     102002.7      46.7237      46.7237      46.7237 
   65000    93.709352   -11700.317   -10774.339     926.2853     102002.7      46.7237      46.7237      46.7237 
   66000    90.181529   -11719.721   -10828.602    1053.9001     102002.7      46.7237      46.7237      46.7237 
   67000    89.877448    -11702.04   -10813.926    811.76194     102002.7      46.7237      46.7237      46.7237 
   68000    88.565857   -11733.334   -10858.181    850.65676     102002.7      46.7237      46.7237      46.7237 
   69000    91.895415   -11731.176   -10823.122    718.44083     102002.7      46.7237      46.7237      46.7237 
   70000    91.161817   -11706.486   -10805.681    319.69875     102002.7      46.7237      46.7237      46.7237 
   71000    88.771666   -11718.662   -10841.475    689.31161     102002.7      46.7237      46.7237      46.7237 
   72000    91.695503   -11744.363   -10838.284    581.54566     102002.7      46.7237      46.7237      46.7237 
   73000    93.848964   -11716.913   -10789.556    801.26335     102002.7      46.7237      46.7237      46.7237 
   74000    90.013795   -11723.885   -10834.424    722.02885     102002.7      46.7237      46.7237      46.7237 
   75000    93.308007   -11713.689   -10791.677    205.74668     102002.7      46.7237      46.7237      46.7237 
   76000    90.361997   -11721.525   -10828.624    567.65788     102002.7      46.7237      46.7237      46.7237 
   77000    93.217559   -11739.867   -10818.748    661.52934     102002.7      46.7237      46.7237      46.7237 
   78000    91.136163   -11737.828   -10837.276    511.63769     102002.7      46.7237      46.7237      46.7237 
   79000    90.322355   -11730.025   -10837.515    705.05247     102002.7      46.7237      46.7237      46.7237 
   80000    91.196546   -11716.176   -10815.028    970.31211     102002.7      46.7237      46.7237      46.7237 
   81000     92.96178   -11740.357   -10821.766    853.50213     102002.7      46.7237      46.7237      46.7237 
   82000    91.023477   -11717.892   -10818.454    825.46333     102002.7      46.7237      46.7237      46.7237 
   83000    89.501978   -11739.069   -10854.666    508.18793     102002.7      46.7237      46.7237      46.7237 
   84000    93.004706   -11750.017   -10831.001    356.60342     102002.7      46.7237      46.7237      46.7237 
   85000    92.841772   -11713.968   -10796.563    476.67806     102002.7      46.7237      46.7237      46.7237 
   86000    90.896711   -11736.676   -10838.491    628.28799     102002.7      46.7237      46.7237      46.7237 
   87000    90.948706   -11751.358   -10852.659    483.73921     102002.7      46.7237      46.7237      46.7237 
   88000    91.471082   -11735.894   -10832.033     730.9304     102002.7      46.7237      46.7237      46.7237 
   89000     92.09475   -11743.627   -10833.603     518.3022     102002.7      46.7237      46.7237      46.7237 
   90000    89.467565   -11734.335   -10850.271    422.89145     102002.7      46.7237      46.7237      46.7237 
   91000     89.50771   -11735.141   -10850.681    723.47451     102002.7      46.7237      46.7237      46.7237 
   92000    89.574696   -11725.949   -10840.827     743.2874     102002.7      46.7237      46.7237      46.7237 
   93000     91.54131   -11741.485    -10836.93    773.76166     102002.7      46.7237      46.7237      46.7237 
   94000     91.23542   -11717.455   -10815.922    475.32132     102002.7      46.7237      46.7237      46.7237 
   95000    91.341572    -11761.95   -10859.368    508.02232     102002.7      46.7237      46.7237      46.7237 
   96000    90.277112   -11743.537   -10851.474    518.26232     102002.7      46.7237      46.7237      46.7237 
   97000    92.150456   -11734.541   -10823.967    590.74577     102002.7      46.7237      46.7237      46.7237 
   98000    88.692725   -11728.352   -10851.945     426.9524     102002.7      46.7237      46.7237      46.7237 
   99000    91.537217   -11721.235    -10816.72    767.37425     102002.7      46.7237      46.7237      46.7237 
  100000    93.530945   -11720.401   -10796.186     590.1502     102002.7      46.7237      46.7237      46.7237 
  101000    92.767274   -11747.906   -10831.237    325.11207     102002.7      46.7237      46.7237      46.7237 
  102000    89.685172   -11743.056   -10856.842    529.38262     102002.7      46.7237      46.7237      46.7237 
  103000    92.281618   -11744.895   -10833.025    626.69897     102002.7      46.7237      46.7237      46.7237 
  104000    88.089261   -11706.982   -10836.538     617.0901     102002.7      46.7237      46.7237      46.7237 
  105000    92.268756   -11738.463   -10826.719    500.49829     102002.7      46.7237      46.7237      46.7237 
  106000    92.452435   -11736.899   -10823.341    716.86271     102002.7      46.7237      46.7237      46.7237 
  107000    91.806509   -11750.001   -10842.825    579.67077     102002.7      46.7237      46.7237      46.7237 
  108000    94.521106   -11717.922   -10783.923    949.95517     102002.7      46.7237      46.7237      46.7237 
  109000    90.311544    -11724.77   -10832.367    735.47247     102002.7      46.7237      46.7237      46.7237 
  110000    87.809659    -11752.61   -10884.929    404.70348     102002.7      46.7237      46.7237      46.7237 
  111000    90.032472   -11726.789   -10837.144    748.08922     102002.7      46.7237      46.7237      46.7237 
  112000    91.546907   -11762.138   -10857.527    705.87439     102002.7      46.7237      46.7237      46.7237 
  113000    93.301508   -11727.486   -10805.538    645.82415     102002.7      46.7237      46.7237      46.7237 
  114000    92.724387   -11752.644   -10836.398    634.88329     102002.7      46.7237      46.7237      46.7237 
  115000    90.466629   -11757.181   -10863.245    631.80879     102002.7      46.7237      46.7237      46.7237 
  116000    89.820447   -11746.356   -10858.806    642.42446     102002.7      46.7237      46.7237      46.7237 
  117000     92.39678   -11760.728    -10847.72    754.84541     102002.7      46.7237      46.7237      46.7237 
  118000    90.682478   -11740.124   -10844.055    666.54161     102002.7      46.7237      46.7237      46.7237 
  119000    94.622245   -11743.913   -10808.915    401.23883     102002.7      46.7237      46.7237      46.7237 
  120000    91.191656   -11744.706   -10843.606    438.53387     102002.7      46.7237      46.7237      46.7237 
  121000    92.279369   -11752.457   -10840.609    901.11905     102002.7      46.7237      46.7237      46.7237 
  122000     90.11847   -11772.327   -10881.831    637.03724     102002.7      46.7237      46.7237      46.7237 
  123000    90.297072   -11749.384   -10857.124    569.01454     102002.7      46.7237      46.7237      46.7237 
  124000    90.557448   -11747.071   -10852.238    493.24585     102002.7      46.7237      46.7237      46.7237 
  125000    91.147019   -11743.561   -10842.902    541.14407     102002.7      46.7237      46.7237      46.7237 
  126000    92.015242   -11753.791   -10844.553    968.02515     102002.7      46.7237      46.7237      46.7237 
  127000    92.477119   -11743.975   -10830.173    716.18989     102002.7      46.7237      46.7237      46.7237 
  128000    90.109372   -11751.371   -10860.966    206.60264     102002.7      46.7237      46.7237      46.7237 
  129000    92.447614   -11755.955   -10842.445    848.47412     102002.7      46.7237      46.7237      46.7237 
  130000     87.68369   -11737.401   -10870.964    854.53358     102002.7      46.7237      46.7237      46.7237 
  131000    92.181249   -11733.375   -10822.497     395.8556     102002.7      46.7237      46.7237      46.7237 
  132000    93.628351   -11754.015   -10828.837    583.14296     102002.7      46.7237      46.7237      46.7237 
  133000    90.608644   -11739.144   -10843.805    484.64203     102002.7      46.7237      46.7237      46.7237 
  134000    90.764425   -11751.819   -10854.941    509.47781     102002.7      46.7237      46.7237      46.7237 
  135000    89.210273   -11747.895   -10866.374    433.23216     102002.7      46.7237      46.7237      46.7237 
  136000    91.648015    -11732.19   -10826.581    580.91974     102002.7      46.7237      46.7237      46.7237 
  137000    88.741965   -11741.283   -10864.389    644.82807     102002.7      46.7237      46.7237      46.7237 
  138000    88.784234   -11758.051    -10880.74    753.00836     102002.7      46.7237      46.7237      46.7237 
  139000    92.074561   -11742.319   -10832.495    761.04962     102002.7      46.7237      46.7237      46.7237 
  140000    91.843883   -11754.769   -10847.224    558.40941     102002.7      46.7237      46.7237      46.7237 
  141000    90.889355   -11726.619   -10828.507    636.19184     102002.7      46.7237      46.7237      46.7237 
  142000     91.52082   -11730.459   -10826.106    607.31698     102002.7      46.7237      46.7237      46.7237 
  143000    90.047274   -11739.204   -10849.412    614.61441     102002.7      46.7237      46.7237      46.7237 
  144000    90.155409   -11755.368   -10864.508    689.51205     102002.7      46.7237      46.7237      46.7237 
  145000    92.121106   -11715.177   -10804.893    988.75318     102002.7      46.7237      46.7237      46.7237 
  146000    91.491826   -11736.947   -10832.881    707.75158     102002.7      46.7237      46.7237      46.7237 
  147000    89.272212   -11759.889   -10877.756    623.13675     102002.7      46.7237      46.7237      46.7237 
  148000    94.511906   -11765.226   -10831.318    681.03408     102002.7      46.7237      46.7237      46.7237 
  149000    91.644457   -11751.599   -10846.024     576.9774     102002.7      46.7237      46.7237      46.7237 
  150000    90.247514   -11745.554   -10853.783    449.83848     102002.7      46.7237      46.7237      46.7237 
  151000    92.933816   -11744.113   -10825.798    637.18598     102002.7      46.7237      46.7237      46.7237 
  152000    90.805556    -11748.77   -10851.486    638.48719     102002.7      46.7237      46.7237      46.7237 
  153000    94.299612   -11773.502   -10841.691    671.90505     102002.7      46.7237      46.7237      46.7237 
  154000     88.42192    -11743.92   -10870.189    487.87106     102002.7      46.7237      46.7237      46.7237 
  155000    91.317798   -11737.928   -10835.582    444.51294     102002.7      46.7237      46.7237      46.7237 
  156000    92.297291   -11741.292   -10829.267    741.20815     102002.7      46.7237      46.7237      46.7237 
  157000    89.921856   -11733.949   -10845.397    583.54774     102002.7      46.7237      46.7237      46.7237 
  158000    90.923376    -11731.36   -10832.911    656.67583     102002.7      46.7237      46.7237      46.7237 
  159000    90.463267    -11729.11   -10835.207    722.38753     102002.7      46.7237      46.7237      46.7237 
  160000    89.230201    -11741.36   -10859.642    617.61834     102002.7      46.7237      46.7237      46.7237 
  161000    90.630151   -11732.783   -10837.232    496.75744     102002.7      46.7237      46.7237      46.7237 
  162000    92.477494   -11752.977   -10839.171    796.52989     102002.7      46.7237      46.7237      46.7237 
  163000    91.573604   -11736.492   -10831.618    737.94484     102002.7      46.7237      46.7237      46.7237 
  164000     89.99655   -11752.138   -10862.848    675.94036     102002.7      46.7237      46.7237      46.7237 
  165000    90.277828   -11736.805   -10844.735    822.92483     102002.7      46.7237      46.7237      46.7237 
  166000    91.875138    -11748.11   -10840.256    733.78496     102002.7      46.7237      46.7237      46.7237 
  167000    93.434441   -11759.922    -10836.66    528.24381     102002.7      46.7237      46.7237      46.7237 
  168000    89.105139   -11769.252    -10888.77    766.38534     102002.7      46.7237      46.7237      46.7237 
  169000    91.468723   -11745.255   -10841.417    570.58322     102002.7      46.7237      46.7237      46.7237 
  170000    93.319793    -11726.06   -10803.932    556.30161     102002.7      46.7237      46.7237      46.7237 
  171000    90.773273   -11754.566     -10857.6     556.1986     102002.7      46.7237      46.7237      46.7237 
  172000    91.654751   -11739.623   -10833.947    677.30669     102002.7      46.7237      46.7237      46.7237 
  173000      90.6305   -11754.389   -10858.834    622.55025     102002.7      46.7237      46.7237      46.7237 
  174000    90.808057   -11730.444   -10833.135    590.26569     102002.7      46.7237      46.7237      46.7237 
  175000     89.47563   -11751.149   -10867.005    677.00022     102002.7      46.7237      46.7237      46.7237 
  176000    91.459519   -11747.447     -10843.7    666.87494     102002.7      46.7237      46.7237      46.7237 
  177000    89.584933   -11727.649   -10842.426    1044.7085     102002.7      46.7237      46.7237      46.7237 
  178000    90.184449   -11752.142   -10860.994    968.72447     102002.7      46.7237      46.7237      46.7237 
  179000    92.487999   -11756.018   -10842.109    794.36745     102002.7      46.7237      46.7237      46.7237 
  180000    90.160965   -11735.272   -10844.356     483.0215     102002.7      46.7237      46.7237      46.7237 
  181000    91.550672   -11762.595   -10857.948    672.46758     102002.7      46.7237      46.7237      46.7237 
  182000    90.100291   -11729.368   -10839.052    595.39237     102002.7      46.7237      46.7237      46.7237 
  183000    90.562439   -11733.576   -10838.694    842.33123     102002.7      46.7237      46.7237      46.7237 
  184000    90.380252   -11751.316   -10858.234    680.16848     102002.7      46.7237      46.7237      46.7237 
  185000    92.453524   -11759.883   -10846.314    729.94249     102002.7      46.7237      46.7237      46.7237 
  186000    92.873696    -11754.69    -10836.97    630.50149     102002.7      46.7237      46.7237      46.7237 
  187000    90.878557   -11777.465   -10879.459    580.37266     102002.7      46.7237      46.7237      46.7237 
  188000    91.545933   -11742.126   -10837.526    880.60718     102002.7      46.7237      46.7237      46.7237 
  189000    90.243353   -11757.462   -10865.732    690.41942     102002.7      46.7237      46.7237      46.7237 
  190000    91.687477    -11751.51   -10845.511    674.89483     102002.7      46.7237      46.7237      46.7237 
  191000    91.607724    -11766.16   -10860.949    667.19494     102002.7      46.7237      46.7237      46.7237 
  192000    89.850743   -11748.272   -10860.423    580.29843     102002.7      46.7237      46.7237      46.7237 
  193000    91.909923   -11760.697   -10852.499    572.20015     102002.7      46.7237      46.7237      46.7237 
  194000    91.760049    -11770.14   -10863.424     543.9174     102002.7      46.7237      46.7237      46.7237 
  195000    90.338705   -11751.016   -10858.344    646.20386     102002.7      46.7237      46.7237      46.7237 
  196000    88.346939   -11756.887   -10883.897    624.06147     102002.7      46.7237      46.7237      46.7237 
  197000    91.048601   -11749.174   -10849.488     705.1856     102002.7      46.7237      46.7237      46.7237 
  198000    89.091607   -11736.991   -10856.643    453.75487     102002.7      46.7237      46.7237      46.7237 
  199000    91.984453   -11765.464    -10856.53    655.90413     102002.7      46.7237      46.7237      46.7237 
  200000    88.838318   -11736.442   -10858.596    809.30862     102002.7      46.7237      46.7237      46.7237 
  201000    89.628224   -11773.221    -10887.57    663.17891     102002.7      46.7237      46.7237      46.7237 
  202000    91.368077   -11764.821   -10861.978    358.95965     102002.7      46.7237      46.7237      46.7237 
  203000    90.210366   -11737.609   -10846.206    493.65118     102002.7      46.7237      46.7237      46.7237 
  204000    92.464146   -11734.315   -10820.641    597.56291     102002.7      46.7237      46.7237      46.7237 
  205000    89.915115   -11731.202   -10842.716     675.6029     102002.7      46.7237      46.7237      46.7237 
  206000    91.455277    -11764.45   -10860.746    663.13882     102002.7      46.7237      46.7237      46.7237 
  207000    90.882571   -11777.358   -10879.313    657.24193     102002.7      46.7237      46.7237      46.7237 
  208000    90.486106   -11762.389   -10868.261    649.59655     102002.7      46.7237      46.7237      46.7237 
  209000    92.185421   -11745.208   -10834.289    391.53202     102002.7      46.7237      46.7237      46.7237 
  210000    91.774508   -11770.036   -10863.176    506.84131     102002.7      46.7237      46.7237      46.7237 
  211000    91.064008    -11755.24   -10855.401    593.56248     102002.7      46.7237      46.7237      46.7237 
  212000    90.188661   -11758.632   -10867.443    525.83084     102002.7      46.7237      46.7237      46.7237 
  213000    91.329602   -11748.588   -10846.125    667.84549     102002.7      46.7237      46.7237      46.7237 
  214000    90.917245   -11729.174   -10830.786    591.38137     102002.7      46.7237      46.7237      46.7237 
  215000    89.992617   -11751.935   -10862.684    460.41941     102002.7      46.7237      46.7237      46.7237 
  216000    91.821852   -11773.838   -10866.511     430.9365     102002.7      46.7237      46.7237      46.7237 
  217000    90.910362   -11771.687   -10873.367    580.38546     102002.7      46.7237      46.7237      46.7237 
  218000    93.319684   -11755.716   -10833.589    538.11795     102002.7      46.7237      46.7237      46.7237 
  219000    89.907003   -11763.735   -10875.329    641.55069     102002.7      46.7237      46.7237      46.7237 
  220000    92.583793    -11751.11   -10836.254    770.09658     102002.7      46.7237      46.7237      46.7237 
  221000    90.840764   -11763.782   -10866.149    428.22655     102002.7      46.7237      46.7237      46.7237 
  222000    90.177993    -11764.72   -10873.637    618.77247     102002.7      46.7237      46.7237      46.7237 
  223000    91.962771   -11766.485   -10857.766    332.49187     102002.7      46.7237      46.7237      46.7237 
  224000    89.607573   -11770.742   -10885.295    426.03571     102002.7      46.7237      46.7237      46.7237 
  225000    91.505279   -11772.181   -10867.982    683.10191     102002.7      46.7237      46.7237      46.7237 
  226000    89.944733   -11761.007   -10872.228    701.29227     102002.7      46.7237      46.7237      46.7237 
  227000    91.285331   -11734.318   -10832.292    529.88889     102002.7      46.7237      46.7237      46.7237 
  228000    92.144454   -11782.232   -10871.717    367.65603     102002.7      46.7237      46.7237      46.7237 
  229000    92.651378   -11771.116   -10855.592    581.28377     102002.7      46.7237      46.7237      46.7237 
  230000    90.523021   -11758.256   -10863.763    465.13628     102002.7      46.7237      46.7237      46.7237 
  231000    93.092439   -11759.251   -10839.369    541.08114     102002.7      46.7237      46.7237      46.7237 
  232000    92.199713   -11761.291    -10850.23    305.34459     102002.7      46.7237      46.7237      46.7237 
  233000     88.97919   -11763.757   -10884.519    303.47716     102002.7      46.7237      46.7237      46.7237 
  234000     91.32223   -11771.443   -10869.053    627.57558     102002.7      46.7237      46.7237      46.7237 
  235000     90.51848   -11761.421   -10866.973    620.27638     102002.7      46.7237      46.7237      46.7237 
  236000     90.08086   -11739.099   -10848.975    673.39283     102002.7      46.7237      46.7237      46.7237 
  237000    89.875757   -11778.886   -10890.789    664.67102     102002.7      46.7237      46.7237      46.7237 
  238000    89.873836   -11760.222   -10872.144    685.41892     102002.7      46.7237      46.7237      46.7237 
  239000    91.009461   -11753.865   -10854.565    443.65866     102002.7      46.7237      46.7237      46.7237 
  240000    91.734671    -11757.67   -10851.204    404.84823     102002.7      46.7237      46.7237      46.7237 
  241000    90.844549   -11776.396   -10878.726    795.03554     102002.7      46.7237      46.7237      46.7237 
  242000    92.107674   -11753.942    -10843.79    524.74608     102002.7      46.7237      46.7237      46.7237 
  243000    90.851325   -11747.211   -10849.474     535.0668     102002.7      46.7237      46.7237      46.7237 
  244000    90.763777   -11764.868   -10867.996     598.3546     102002.7      46.7237      46.7237      46.7237 
  245000    93.699624   -11754.487   -10828.605    669.91107     102002.7      46.7237      46.7237      46.7237 
  246000    90.315647   -11753.803   -10861.359     472.5335     102002.7      46.7237      46.7237      46.7237 
  247000    92.057286   -11757.257   -10847.604    303.78284     102002.7      46.7237      46.7237      46.7237 
  248000    91.344808   -11767.102   -10864.488      595.837     102002.7      46.7237      46.7237      46.7237 
  249000    93.614569   -11736.812    -10811.77    746.94079     102002.7      46.7237      46.7237      46.7237 
  250000    92.689212   -11767.084   -10851.186    758.84444     102002.7      46.7237      46.7237      46.7237 
  251000     90.95949   -11761.491   -10862.685    630.71893     102002.7      46.7237      46.7237      46.7237 
  252000     91.85262   -11774.332   -10866.701    685.33358     102002.7      46.7237      46.7237      46.7237 
  253000    93.381241   -11757.489   -10834.753    665.95749     102002.7      46.7237      46.7237      46.7237 
  254000    94.009533   -11766.202   -10837.258    725.88223     102002.7      46.7237      46.7237      46.7237 
  255000    91.890412   -11763.278   -10855.273    521.36249     102002.7      46.7237      46.7237      46.7237 
  256000    90.990155   -11776.462   -10877.354    577.77971     102002.7      46.7237      46.7237      46.7237 
  257000    91.389976   -11750.994   -10847.934    739.02066     102002.7      46.7237      46.7237      46.7237 
  258000    89.681012   -11778.951   -10892.778    606.67901     102002.7      46.7237      46.7237      46.7237 
  259000     91.40806   -11760.217   -10856.979    507.06207     102002.7      46.7237      46.7237      46.7237 
  260000    91.036026   -11771.215   -10871.653    604.22334     102002.7      46.7237      46.7237      46.7237 
  261000    90.413263   -11762.285   -10868.877    823.66654     102002.7      46.7237      46.7237      46.7237 
  262000    88.664363   -11775.735   -10899.609    749.23958     102002.7      46.7237      46.7237      46.7237 
  263000    93.013028   -11775.894   -10856.796    712.87722     102002.7      46.7237      46.7237      46.7237 
  264000    91.347083   -11751.757   -10849.121     672.6802     102002.7      46.7237      46.7237      46.7237 
  265000    92.892941    -11744.17   -10826.259    758.28777     102002.7      46.7237      46.7237      46.7237 
  266000    91.216322   -11754.743   -10853.399    616.39601     102002.7      46.7237      46.7237      46.7237 
  267000    91.877576   -11750.339   -10842.461    719.08926     102002.7      46.7237      46.7237      46.7237 
  268000     90.90026   -11772.929   -10874.708    611.47341     102002.7      46.7237      46.7237      46.7237 
  269000    90.312108   -11756.115   -10863.707    561.00208     102002.7      46.7237      46.7237      46.7237 
  270000    89.552855   -11735.818   -10850.912    544.25889     102002.7      46.7237      46.7237      46.7237 
  271000    92.630799   -11762.678   -10847.357    643.44376     102002.7      46.7237      46.7237      46.7237 
  272000    91.763533   -11774.455   -10867.704    677.07217     102002.7      46.7237      46.7237      46.7237 
  273000    88.900278   -11763.651   -10885.193    627.38694     102002.7      46.7237      46.7237      46.7237 
  274000    91.038275   -11729.882   -10830.298    951.57958     102002.7      46.7237      46.7237      46.7237 
  275000    90.831808   -11779.299   -10881.754    556.57482     102002.7      46.7237      46.7237      46.7237 
  276000    90.036029   -11762.024   -10872.343    551.39984     102002.7      46.7237      46.7237      46.7237 
  277000    91.880146   -11758.174   -10850.271    743.64358     102002.7      46.7237      46.7237      46.7237 
  278000    89.662532   -11769.404   -10883.414     567.6948     102002.7      46.7237      46.7237      46.7237 
  279000    92.065824   -11740.478    -10830.74    768.32327     102002.7      46.7237      46.7237      46.7237 
  280000    89.710106   -11773.728   -10887.268    727.76611     102002.7      46.7237      46.7237      46.7237 
  281000    89.645227   -11754.446   -10868.627    513.29154     102002.7      46.7237      46.7237      46.7237 
  282000    93.138683   -11774.194   -10853.854    601.06731     102002.7      46.7237      46.7237      46.7237 
  283000    91.376849   -11768.416   -10865.486    576.28754     102002.7      46.7237      46.7237      46.7237 
  284000    92.283831    -11774.39   -10862.498    462.89101     102002.7      46.7237      46.7237      46.7237 
  285000    89.889158    -11760.51    -10872.28      436.302     102002.7      46.7237      46.7237      46.7237 
  286000    91.392527       -11742   -10838.915    341.09622     102002.7      46.7237      46.7237      46.7237 
  287000    89.992438   -11760.642   -10871.392    795.99632     102002.7      46.7237      46.7237      46.7237 
  288000    90.533977    -11766.34   -10871.739    936.41511     102002.7      46.7237      46.7237      46.7237 
  289000    89.735112   -11750.718   -10864.011    645.51663     102002.7      46.7237      46.7237      46.7237 
  290000    90.931435   -11771.531   -10873.002    571.31784     102002.7      46.7237      46.7237      46.7237 
  291000    90.096243   -11756.668   -10866.392    731.38452     102002.7      46.7237      46.7237      46.7237 
  292000    92.040096   -11751.511   -10842.027    770.81437     102002.7      46.7237      46.7237      46.7237 
  293000    88.674938   -11758.738   -10882.507     481.7158     102002.7      46.7237      46.7237      46.7237 
  294000    89.126526   -11738.532   -10857.839    460.49593     102002.7      46.7237      46.7237      46.7237 
  295000    90.728118   -11735.201   -10838.681    689.15164     102002.7      46.7237      46.7237      46.7237 
  296000    91.790203   -11743.847   -10836.832    777.79417     102002.7      46.7237      46.7237      46.7237 
  297000    89.188227   -11767.108   -10885.804    314.09904     102002.7      46.7237      46.7237      46.7237 
  298000     92.58045   -11749.517   -10834.694    645.12594     102002.7      46.7237      46.7237      46.7237 
  299000    92.553707   -11746.122   -10831.563    443.69834     102002.7      46.7237      46.7237      46.7237 
  300000    90.596065   -11788.356   -10893.142    631.00825     102002.7      46.7237      46.7237      46.7237 
  301000    90.360091   -11748.696   -10855.813    723.42159     102002.7      46.7237      46.7237      46.7237 
  302000    92.154723   -11748.414   -10837.798    668.28839     102002.7      46.7237      46.7237      46.7237 
  303000    91.811816   -11767.421   -10860.193    421.25755     102002.7      46.7237      46.7237      46.7237 
  304000     88.84208   -11738.925   -10861.043    677.77616     102002.7      46.7237      46.7237      46.7237 
  305000    90.907457   -11766.827   -10868.536    650.58376     102002.7      46.7237      46.7237      46.7237 
  306000    90.304873   -11767.843   -10875.505    775.05903     102002.7      46.7237      46.7237      46.7237 
  307000    89.996081   -11754.755   -10865.469    766.81638     102002.7      46.7237      46.7237      46.7237 
  308000    92.930519    -11747.55   -10829.267    524.89061     102002.7      46.7237      46.7237      46.7237 
  309000    89.564408   -11733.669   -10848.649    580.85491     102002.7      46.7237      46.7237      46.7237 
  310000    90.106855   -11753.289   -10862.908    600.24221     102002.7      46.7237      46.7237      46.7237 
  311000    92.396572   -11752.046    -10839.04    557.40832     102002.7      46.7237      46.7237      46.7237 
  312000    91.175849    -11750.99   -10850.047    632.52308     102002.7      46.7237      46.7237      46.7237 
  313000    92.187266   -11761.262   -10850.324    393.90801     102002.7      46.7237      46.7237      46.7237 
  314000    89.389422   -11751.626   -10868.334    663.49552     102002.7      46.7237      46.7237      46.7237 
  315000    92.872288   -11771.522   -10853.815    751.20053     102002.7      46.7237      46.7237      46.7237 
  316000    91.442797   -11763.854   -10860.272    258.71293     102002.7      46.7237      46.7237      46.7237 
  317000    93.099516   -11742.048   -10822.096    621.72388     102002.7      46.7237      46.7237      46.7237 
  318000    90.151384   -11759.467   -10868.647    689.53272     102002.7      46.7237      46.7237      46.7237 
  319000    90.365628   -11757.275   -10864.338    722.66389     102002.7      46.7237      46.7237      46.7237 
  320000    89.737891   -11770.246   -10883.512    605.08515     102002.7      46.7237      46.7237      46.7237 
  321000    88.308479   -11736.861   -10864.251    474.01799     102002.7      46.7237      46.7237      46.7237 
  322000    91.453671    -11728.62   -10824.931    549.50728     102002.7      46.7237      46.7237      46.7237 
  323000    89.404598   -11773.076   -10889.635     712.6105     102002.7      46.7237      46.7237      46.7237 
  324000    92.374719    -11760.89     -10848.1    631.00567     102002.7      46.7237      46.7237      46.7237 
  325000    92.390373   -11758.498   -10845.553    540.49002     102002.7      46.7237      46.7237      46.7237 
  326000    90.624664   -11756.019   -10860.521    485.01649     102002.7      46.7237      46.7237      46.7237 
  327000     89.77017   -11767.408   -10880.354    716.31623     102002.7      46.7237      46.7237      46.7237 
  328000    91.566305   -11771.106   -10866.304    377.03712     102002.7      46.7237      46.7237      46.7237 
  329000    91.666312   -11747.912   -10842.122    564.28264     102002.7      46.7237      46.7237      46.7237 
  330000    90.910413   -11760.538   -10862.217    571.75883     102002.7      46.7237      46.7237      46.7237 
  331000    90.104557   -11754.402   -10864.044    495.15437     102002.7      46.7237      46.7237      46.7237 
  332000    89.001728   -11756.059   -10876.598    768.85283     102002.7      46.7237      46.7237      46.7237 
  333000    91.722864   -11761.287   -10854.938    504.22951     102002.7      46.7237      46.7237      46.7237 
  334000    90.493376   -11747.236   -10853.036    499.31995     102002.7      46.7237      46.7237      46.7237 
  335000    90.513446    -11745.21   -10850.812    399.56778     102002.7      46.7237      46.7237      46.7237 
  336000    92.307807   -11764.325   -10852.196    782.05415     102002.7      46.7237      46.7237      46.7237 
  337000    91.672004   -11772.826   -10866.979    715.25948     102002.7      46.7237      46.7237      46.7237 
  338000    89.995525   -11759.488   -10870.208    464.23335     102002.7      46.7237      46.7237      46.7237 
  339000    91.524091   -11794.578   -10890.193    696.36656     102002.7      46.7237      46.7237      46.7237 
  340000    91.754292   -11759.162   -10852.502    436.10999     102002.7      46.7237      46.7237      46.7237 
  341000    89.190618   -11775.551   -10894.224    607.19903     102002.7      46.7237      46.7237      46.7237 
  342000    91.290822   -11758.403   -10856.323     797.3244     102002.7      46.7237      46.7237      46.7237 
  343000    89.832757   -11764.586   -10876.914     800.3577     102002.7      46.7237      46.7237      46.7237 
  344000    91.483893   -11750.557   -10846.569    418.18332     102002.7      46.7237      46.7237      46.7237 
  345000    91.604611   -11757.078   -10851.898    853.04177     102002.7      46.7237      46.7237      46.7237 
  346000    90.796316   -11760.875   -10863.682    786.97566     102002.7      46.7237      46.7237      46.7237 
  347000    88.043823   -11748.178   -10878.183    731.27732     102002.7      46.7237      46.7237      46.7237 
  348000    91.783828   -11721.839   -10814.887       714.21     102002.7      46.7237      46.7237      46.7237 
  349000    90.547432   -11773.626   -10878.892    412.45595     102002.7      46.7237      46.7237      46.7237 
  350000    87.644682   -11750.109   -10884.058    811.70081     102002.7      46.7237      46.7237      46.7237 
  351000    89.772422   -11743.032   -10855.957    812.27748     102002.7      46.7237      46.7237      46.7237 
  352000    92.247785   -11759.781   -10848.245    624.15867     102002.7      46.7237      46.7237      46.7237 
  353000    90.600633   -11761.755   -10866.496    771.90124     102002.7      46.7237      46.7237      46.7237 
  354000    89.843361   -11768.722   -10880.945    535.60949     102002.7      46.7237      46.7237      46.7237 
  355000    91.906441   -11734.685   -10826.522    705.73358     102002.7      46.7237      46.7237      46.7237 
  356000    91.894693   -11748.648   -10840.601    542.66813     102002.7      46.7237      46.7237      46.7237 
  357000    89.475407   -11755.566   -10871.425    542.62483     102002.7      46.7237      46.7237      46.7237 
  358000    91.471222   -11760.491   -10856.629    578.38026     102002.7      46.7237      46.7237      46.7237 
  359000    91.323557   -11761.492   -10859.089    736.75148     102002.7      46.7237      46.7237      46.7237 
  360000    91.486492   -11757.658   -10853.645    847.54509     102002.7      46.7237      46.7237      46.7237 
  361000    90.561854   -11754.593   -10859.716    478.49045     102002.7      46.7237      46.7237      46.7237 
  362000    92.312726    -11714.12   -10801.942    696.78732     102002.7      46.7237      46.7237      46.7237 
  363000    90.923359   -11752.309    -10853.86    443.63801     102002.7      46.7237      46.7237      46.7237 
  364000    90.234653   -11744.966   -10853.323    510.09249     102002.7      46.7237      46.7237      46.7237 
  365000    88.049697   -11754.342   -10884.289    576.74887     102002.7      46.7237      46.7237      46.7237 
  366000    89.882258   -11760.175   -10872.014    535.74897     102002.7      46.7237      46.7237      46.7237 
  367000    90.133923   -11757.414   -10866.766    498.25276     102002.7      46.7237      46.7237      46.7237 
  368000    92.144336    -11748.46   -10837.947    523.50051     102002.7      46.7237      46.7237      46.7237 
  369000    90.502135   -11760.543   -10866.257    496.12379     102002.7      46.7237      46.7237      46.7237 
  370000    91.817756   -11763.699   -10856.412    573.84684     102002.7      46.7237      46.7237      46.7237 
  371000    92.400867   -11773.338   -10860.289     440.5167     102002.7      46.7237      46.7237      46.7237 
  372000    89.995498   -11736.586   -10847.305    472.91239     102002.7      46.7237      46.7237      46.7237 
  373000    90.957412   -11762.468   -10863.683    587.40727     102002.7      46.7237      46.7237      46.7237 
  374000    91.577621   -11762.853   -10857.939    748.42896     102002.7      46.7237      46.7237      46.7237 
  375000    91.209841   -11781.387   -10880.107    382.74983     102002.7      46.7237      46.7237      46.7237 
  376000    91.518496   -11758.435   -10854.106    556.61877     102002.7      46.7237      46.7237      46.7237 
  377000    90.742833   -11771.815    -10875.15    599.59966     102002.7      46.7237      46.7237      46.7237 
  378000    91.808844    -11742.01   -10834.811     432.8397     102002.7      46.7237      46.7237      46.7237 
  379000    89.530274   -11764.627   -10879.944     673.6844     102002.7      46.7237      46.7237      46.7237 
  380000    91.184358    -11749.64   -10848.612     821.2753     102002.7      46.7237      46.7237      46.7237 
  381000    91.774264   -11783.978   -10877.121    368.92939     102002.7      46.7237      46.7237      46.7237 
  382000    94.456935   -11770.651   -10837.286    723.38492     102002.7      46.7237      46.7237      46.7237 
  383000     90.65346   -11765.889   -10870.107    686.37255     102002.7      46.7237      46.7237      46.7237 
  384000    91.214617   -11777.154   -10875.827    421.73529     102002.7      46.7237      46.7237      46.7237 
  385000    90.866636    -11751.56   -10853.672    380.28589     102002.7      46.7237      46.7237      46.7237 
  386000    90.778725   -11764.065   -10867.046    687.60578     102002.7      46.7237      46.7237      46.7237 
  387000     90.05099   -11764.497   -10874.669    661.94061     102002.7      46.7237      46.7237      46.7237 
  388000    92.675952   -11756.892   -10841.125    658.73342     102002.7      46.7237      46.7237      46.7237 
  389000    91.973667     -11749.1   -10840.273    685.70892     102002.7      46.7237      46.7237      46.7237 
  390000    91.172048   -11748.663   -10847.757    364.83415     102002.7      46.7237      46.7237      46.7237 
  391000    89.264317   -11764.358   -10882.303    530.54552     102002.7      46.7237      46.7237      46.7237 
  392000    90.409935   -11791.193   -10897.817     674.5056     102002.7      46.7237      46.7237      46.7237 
  393000    88.950497   -11749.087   -10870.133    689.75995     102002.7      46.7237      46.7237      46.7237 
  394000    90.462553   -11776.779   -10882.884    664.65055     102002.7      46.7237      46.7237      46.7237 
  395000    90.173249   -11764.784   -10873.747    775.35818     102002.7      46.7237      46.7237      46.7237 
  396000    91.150696   -11779.959   -10879.264     397.9609     102002.7      46.7237      46.7237      46.7237 
  397000    92.421644   -11742.434   -10829.181    804.79881     102002.7      46.7237      46.7237      46.7237 
  398000     91.35883   -11775.042    -10872.29    661.03808     102002.7      46.7237      46.7237      46.7237 
  399000    94.235057   -11745.931   -10814.758    635.60589     102002.7      46.7237      46.7237      46.7237 
  400000    92.023878   -11775.713    -10866.39    721.01012     102002.7      46.7237      46.7237      46.7237 
  401000     91.17658   -11760.697   -10859.746    498.18639     102002.7      46.7237      46.7237      46.7237 
  402000    89.531499   -11771.134   -10886.439    587.25819     102002.7      46.7237      46.7237      46.7237 
  403000    90.053318    -11754.41   -10864.558    337.76154     102002.7      46.7237      46.7237      46.7237 
  404000    93.695271   -11777.211   -10851.372    593.23063     102002.7      46.7237      46.7237      46.7237 
  405000    92.036031   -11762.151   -10852.708     605.7534     102002.7      46.7237      46.7237      46.7237 
  406000    92.232681   -11763.511   -10852.124    657.07674     102002.7      46.7237      46.7237      46.7237 
  407000    90.761627   -11748.853   -10852.003    693.35176     102002.7      46.7237      46.7237      46.7237 
  408000    91.500002    -11766.75   -10862.604     356.3397     102002.7      46.7237      46.7237      46.7237 
  409000    90.517569   -11773.524   -10879.085    805.48686     102002.7      46.7237      46.7237      46.7237 
  410000    89.959753   -11756.236   -10867.309    712.22295     102002.7      46.7237      46.7237      46.7237 
  411000    92.266218   -11772.575   -10860.857    432.76216     102002.7      46.7237      46.7237      46.7237 
  412000    91.311743   -11770.998   -10868.711    549.52586     102002.7      46.7237      46.7237      46.7237 
  413000    91.693113   -11780.094   -10874.039    679.29863     102002.7      46.7237      46.7237      46.7237 
  414000    87.764806   -11772.819   -10905.581    654.08249     102002.7      46.7237      46.7237      46.7237 
  415000    90.264986   -11753.144   -10861.201    614.81498     102002.7      46.7237      46.7237      46.7237 
  416000    89.705446   -11782.713   -10896.299     559.9573     102002.7      46.7237      46.7237      46.7237 
  417000    91.065354   -11777.778   -10877.926    604.97516     102002.7      46.7237      46.7237      46.7237 
  418000     89.33899   -11762.522   -10879.729    612.24529     102002.7      46.7237      46.7237      46.7237 
  419000    90.426506   -11760.314   -10866.775    537.66031     102002.7      46.7237      46.7237      46.7237 
  420000    93.419496   -11754.132   -10831.018    460.49289     102002.7      46.7237      46.7237      46.7237 
  421000    90.509612   -11753.666   -10859.305    596.99976     102002.7      46.7237      46.7237      46.7237 
  422000    91.810965   -11753.057   -10845.838     861.5895     102002.7      46.7237      46.7237      46.7237 
  423000    93.917854   -11763.102   -10835.064     554.2899     102002.7      46.7237      46.7237      46.7237 
  424000    90.236343   -11782.252   -10890.592     593.1012     102002.7      46.7237      46.7237      46.7237 
  425000    90.709784     -11756.4   -10860.061    534.32818     102002.7      46.7237      46.7237      46.7237 
  426000    90.505176   -11773.535   -10879.219    514.80971     102002.7      46.7237      46.7237      46.7237 
  427000    91.821956   -11757.841   -10850.513    606.90426     102002.7      46.7237      46.7237      46.7237 
  428000    92.333974   -11753.283   -10840.896    413.79927     102002.7      46.7237      46.7237      46.7237 
  429000    93.276617   -11757.564   -10835.862     631.6591     102002.7      46.7237      46.7237      46.7237 
  430000    92.175103   -11771.329   -10860.511    613.74809     102002.7      46.7237      46.7237      46.7237 
  431000    90.426178    -11756.27   -10862.734     541.5651     102002.7      46.7237      46.7237      46.7237 
  432000    89.931463   -11782.882   -10894.235    500.33611     102002.7      46.7237      46.7237      46.7237 
  433000    91.581832    -11760.82   -10855.865    591.02449     102002.7      46.7237      46.7237      46.7237 
  434000      89.8138    -11774.58   -10887.096    535.26791     102002.7      46.7237      46.7237      46.7237 
  435000    92.350501   -11764.374   -10851.823    771.93832     102002.7      46.7237      46.7237      46.7237 
  436000     92.39383   -11767.971   -10854.992    412.93051     102002.7      46.7237      46.7237      46.7237 
  437000    89.530107   -11783.233   -10898.551     487.4862     102002.7      46.7237      46.7237      46.7237 
  438000    91.105121   -11742.719   -10842.475    744.94668     102002.7      46.7237      46.7237      46.7237 
  439000    89.793269   -11754.874   -10867.592    516.23329     102002.7      46.7237      46.7237      46.7237 
  440000    90.281167   -11756.365   -10864.262    312.21412     102002.7      46.7237      46.7237      46.7237 
  441000    93.977572   -11775.052   -10846.423    628.18754     102002.7      46.7237      46.7237      46.7237 
  442000    88.760045   -11741.317   -10864.245    557.24999     102002.7      46.7237      46.7237      46.7237 
  443000    92.056026    -11779.64   -10869.999    460.14266     102002.7      46.7237      46.7237      46.7237 
  444000    90.990931   -11742.952   -10843.835    530.66941     102002.7      46.7237      46.7237      46.7237 
  445000    88.862616   -11766.814   -10888.728    629.78433     102002.7      46.7237      46.7237      46.7237 
  446000    92.594744   -11775.989   -10861.025      648.833     102002.7      46.7237      46.7237      46.7237 
  447000    90.085904   -11751.991   -10861.818    626.92864     102002.7      46.7237      46.7237      46.7237 
  448000     90.90066   -11759.667   -10861.442    477.71425     102002.7      46.7237      46.7237      46.7237 
  449000    90.928805   -11754.367   -10855.865    575.80354     102002.7      46.7237      46.7237      46.7237 
  450000    90.848537   -11745.039    -10847.33     738.9641     102002.7      46.7237      46.7237      46.7237 
  451000    89.036116    -11765.61    -10885.81    618.62499     102002.7      46.7237      46.7237      46.7237 
  452000    89.960175   -11748.854   -10859.922    662.43423     102002.7      46.7237      46.7237      46.7237 
  453000     91.47576   -11773.396   -10869.489    553.13266     102002.7      46.7237      46.7237      46.7237 
  454000    89.929941   -11765.363   -10876.731    509.75507     102002.7      46.7237      46.7237      46.7237 
  455000     93.16269   -11776.265   -10855.688    485.71648     102002.7      46.7237      46.7237      46.7237 
  456000    91.644651   -11778.648   -10873.072    548.53916     102002.7      46.7237      46.7237      46.7237 
  457000    89.627759   -11762.921   -10877.274    516.83765     102002.7      46.7237      46.7237      46.7237 
  458000    91.992539   -11772.065   -10863.051    851.35265     102002.7      46.7237      46.7237      46.7237 
  459000    90.674497   -11757.133   -10861.144    431.59175     102002.7      46.7237      46.7237      46.7237 
  460000    89.821368   -11778.599   -10891.039    558.72405     102002.7      46.7237      46.7237      46.7237 
  461000    91.890633   -11760.414   -10852.407    467.44026     102002.7      46.7237      46.7237      46.7237 
  462000     91.13691   -11755.086   -10854.527    602.27192     102002.7      46.7237      46.7237      46.7237 
  463000    91.075022   -11779.383   -10879.435    679.39759     102002.7      46.7237      46.7237      46.7237 
  464000    90.518457   -11771.348   -10876.901    674.02081     102002.7      46.7237      46.7237      46.7237 
  465000    89.520055   -11776.369   -10891.787    304.90199     102002.7      46.7237      46.7237      46.7237 
  466000    90.989139   -11766.019    -10866.92      440.936     102002.7      46.7237      46.7237      46.7237 
  467000    89.445514   -11748.889   -10865.044    622.61226     102002.7      46.7237      46.7237      46.7237 
  468000    90.592738   -11764.014   -10868.832    744.71566     102002.7      46.7237      46.7237      46.7237 
  469000    88.920294   -11751.869   -10873.213     840.1685     102002.7      46.7237      46.7237      46.7237 
  470000    87.413105   -11766.857   -10903.094     413.1772     102002.7      46.7237      46.7237      46.7237 
  471000     90.90622   -11757.501   -10859.222    433.32557     102002.7      46.7237      46.7237      46.7237 
  472000    90.944258   -11766.666   -10868.011     582.5599     102002.7      46.7237      46.7237      46.7237 
  473000    91.920765   -11749.972   -10841.667    298.41077     102002.7      46.7237      46.7237      46.7237 
  474000    93.196349   -11772.435   -10851.525    735.28392     102002.7      46.7237      46.7237      46.7237 
  475000    89.070221   -11756.294   -10876.157    406.46783     102002.7      46.7237      46.7237      46.7237 
  476000    89.183065   -11747.043   -10865.791    284.83835     102002.7      46.7237      46.7237      46.7237 
  477000    90.353197   -11754.415     -10861.6    587.21036     102002.7      46.7237      46.7237      46.7237 
  478000    91.593499   -11737.135   -10832.065     641.5119     102002.7      46.7237      46.7237      46.7237 
  479000    90.118149   -11761.427   -10870.935    532.76006     102002.7      46.7237      46.7237      46.7237 
  480000    93.045801   -11756.207   -10836.786    527.49419     102002.7      46.7237      46.7237      46.7237 
  481000    91.514445   -11760.288   -10855.998    559.16664     102002.7      46.7237      46.7237      46.7237 
  482000    91.026327   -11758.451   -10858.985    584.05276     102002.7      46.7237      46.7237      46.7237 
  483000    90.360265   -11753.161   -10860.277    762.03744     102002.7      46.7237      46.7237      46.7237 
  484000    90.044818   -11767.175   -10877.408    754.29001     102002.7      46.7237      46.7237      46.7237 
  485000     89.62013    -11750.85   -10865.279    423.07354     102002.7      46.7237      46.7237      46.7237 
  486000    93.552584   -11763.547   -10839.118    906.31183     102002.7      46.7237      46.7237      46.7237 
  487000    90.354627   -11761.481   -10868.652    684.33753     102002.7      46.7237      46.7237      46.7237 
  488000    91.745639   -11725.927   -10819.353     872.6616     102002.7      46.7237      46.7237      46.7237 
  489000    91.818176   -11770.975   -10863.685    633.90945     102002.7      46.7237      46.7237      46.7237 
  490000    91.266947   -11768.856   -10867.012    693.16499     102002.7      46.7237      46.7237      46.7237 
  491000     93.19401   -11755.785   -10834.899    571.34684     102002.7      46.7237      46.7237      46.7237 
  492000    91.869612   -11754.916   -10847.117    714.79543     102002.7      46.7237      46.7237      46.7237 
  493000    91.364633   -11771.039    -10868.23    588.93074     102002.7      46.7237      46.7237      46.7237 
  494000    88.939707   -11767.241   -10888.394    574.99597     102002.7      46.7237      46.7237      46.7237 
  495000    88.987859   -11766.676   -10887.352    818.54406     102002.7      46.7237      46.7237      46.7237 
  496000    91.758279   -11748.476   -10841.777    576.13968     102002.7      46.7237      46.7237      46.7237 
  497000    90.036537    -11768.75   -10879.065    569.32437     102002.7      46.7237      46.7237      46.7237 
  498000    90.157486   -11767.058   -10876.177     230.3291     102002.7      46.7237      46.7237      46.7237 
  499000     91.79209   -11753.035   -10846.002    685.13927     102002.7      46.7237      46.7237      46.7237 
  500000    91.441454   -11754.209   -10850.641    484.45735     102002.7      46.7237      46.7237      46.7237 
  500500    89.225762   -11753.925   -10872.251    585.26452     102002.7      46.7237      46.7237      46.7237 
Loop time of 1942.77 on 16 procs for 500000 steps with 3316 atoms

Performance: 22.236 ns/day, 1.079 hours/ns, 257.365 timesteps/s
99.8% CPU use with 16 MPI tasks x no OpenMP threads

MPI task timing breakdown:
Section |  min time  |  avg time  |  max time  |%varavg| %total
---------------------------------------------------------------
Pair    | 953.14     | 1212.9     | 1556.7     | 536.6 | 62.43
Bond    | 141.93     | 174.76     | 199.14     | 141.7 |  9.00
Neigh   | 14.902     | 14.926     | 14.95      |   0.4 |  0.77
Comm    | 155.39     | 522.76     | 809.53     | 875.6 | 26.91
Output  | 0.021955   | 0.022654   | 0.025938   |   0.6 |  0.00
Modify  | 9.4192     | 10.485     | 12.56      |  31.5 |  0.54
Other   |            | 6.926      |            |       |  0.36

Nlocal:    207.25 ave 239 max 170 min
Histogram: 1 1 2 2 0 2 3 2 0 3
Nghost:    4165.81 ave 4206 max 4131 min
Histogram: 3 1 2 1 3 0 2 0 2 2
Neighs:    11463.5 ave 17570 max 5344 min
Histogram: 1 2 3 2 1 1 1 0 2 3

Total # of neighbors = 183416
Ave neighs/atom = 55.3124
Ave special neighs/atom = 3.47407
Neighbor list builds = 4086
Dangerous builds = 0
Neighbor list info ...
  update every 1 steps, delay 10 steps, check yes
  max neighbors/atom: 2000, page size: 100000
  master list distance cutoff = 16
  ghost atom cutoff = 16
  binsize = 8, bins = 6 6 6
  3 neighbor lists, perpetual/occasional/extra = 3 0 0
  (1) pair buck6d/coul/gauss/dsf, perpetual, skip from (3)
      attributes: half, newton on
      pair build: skip
      stencil: none
      bin: none
  (2) pair lj/cut, perpetual, skip from (3)
      attributes: half, newton on
      pair build: skip
      stencil: none
      bin: none
  (3) neighbor class addition, perpetual
      attributes: half, newton on
      pair build: half/bin/newton
      stencil: half/bin/3d/newton
      bin: standard
Setting up Verlet run ...
  Unit style    : real
  Current step  : 500500
  Time step     : 1
WARNING: Inconsistent image flags (../domain.cpp:786)
Per MPI rank memory allocation (min/avg/max) = 22.8 | 23.17 | 23.45 Mbytes
Step Time TotEng KinEng PotEng E_mol E_pair Temp Pxx Pyy Pzz Pxy Pxz Pyz Cella Cellb Cellc CellAlpha CellBeta CellGamma Volume Press 
  500500       500000   -10872.251    881.67414   -11753.925    4127.2904   -15881.216    89.225762    376.95809     777.8587    600.97677   -142.58335    168.02968    141.55222      46.7237      46.7237      46.7237           90           90           90     102002.7    585.26452 
  501000       500500   -10886.178    888.90035   -11775.079    4105.8649   -15880.944    89.957058       365.63    67.806028    1059.0726   -23.779838    49.930232   -36.430979      46.7237      46.7237      46.7237           90           90           90     102002.7    497.50287 
  502000       501500   -10855.707    917.44646   -11773.153    4119.8201   -15892.973    92.845935    1034.3587      342.578    550.10564    296.07616    -21.92369    48.622586      46.7237      46.7237      46.7237           90           90           90     102002.7    642.34744 
  503000       502500   -10876.865    897.76102   -11774.626    4132.2718   -15906.897    90.853761    871.02887    427.17199    857.18528   -274.78096    1.0879503    89.289789      46.7237      46.7237      46.7237           90           90           90     102002.7    718.46204 
  504000       503500   -10871.284    892.21111   -11763.495    4098.4254    -15861.92    90.292108    375.04976    690.61243    767.57572   -242.34389     69.93717    19.606484      46.7237      46.7237      46.7237           90           90           90     102002.7     611.0793 
  505000       504500   -10827.836    908.34709   -11736.183    4125.9956   -15862.179    91.925075    872.69026    975.20668    1068.1225    1.2377326   -66.480812    5.6553621      46.7237      46.7237      46.7237           90           90           90     102002.7    972.00647 
  506000       505500   -10870.468    886.68719   -11757.155     4118.902   -15876.057    89.733085    391.87202    519.96099    306.06558     109.4367    214.18336   -15.634443      46.7237      46.7237      46.7237           90           90           90     102002.7    405.96619 
  507000       506500   -10884.149    885.51353   -11769.663    4124.5595   -15894.222    89.614311    479.16388    581.24467    335.32757   -167.79678    364.27094     139.2836      46.7237      46.7237      46.7237           90           90           90     102002.7    465.24537 
  508000       507500   -10860.198    903.45338   -11763.651    4108.3711   -15872.022     91.42983     576.9594    460.18402    501.81805    164.12227    104.97193   -85.023749      46.7237      46.7237      46.7237           90           90           90     102002.7    512.98715 
  509000       508500   -10842.219    903.40466   -11745.624     4125.965   -15871.589    91.424899    735.31061    445.27531    763.93658   -158.61522    -61.49209   -20.732939      46.7237      46.7237      46.7237           90           90           90     102002.7    648.17417 
  510000       509500   -10875.828    895.26991   -11771.097    4104.1459   -15875.243     90.60166    587.67542    727.34952    1171.9252    33.030996   -127.31409    -95.19471      46.7237      46.7237      46.7237           90           90           90     102002.7    828.98337 
  511000       510500   -10875.214    886.54086   -11761.755    4126.4536   -15888.208    89.718277    735.87761    339.88869     732.0781     151.0627    105.81627   -115.36064      46.7237      46.7237      46.7237           90           90           90     102002.7     602.6148 
  512000       511500   -10827.755    919.85853   -11747.613    4125.8109   -15873.424    93.090037    376.55307    949.27364    986.60499    7.7564447   -82.343982    94.860005      46.7237      46.7237      46.7237           90           90           90     102002.7    770.81057 
  513000       512500   -10858.941    906.87051   -11765.812    4119.0496   -15884.861    91.775645    340.29977    833.20318    826.35962    104.50148    322.40041    -128.2906      46.7237      46.7237      46.7237           90           90           90     102002.7    666.62086 
  514000       513500   -10864.079     889.3815    -11753.46    4128.8496    -15882.31     90.00575    935.48021    377.67264     628.4427     110.6194    235.95457   -135.42247      46.7237      46.7237      46.7237           90           90           90     102002.7    647.19852 
  515000       514500   -10860.333    896.14017   -11756.473    4112.1612   -15868.635     90.68973    888.78744    507.31036    668.04503   -110.50532   -216.64947   -77.969947      46.7237      46.7237      46.7237           90           90           90     102002.7    688.04761 
  516000       515500   -10859.076     902.2164   -11761.292    4103.4674    -15864.76    91.304648    611.96014    652.08736    460.12774    -55.28596   -113.34266   -35.774068      46.7237      46.7237      46.7237           90           90           90     102002.7    574.72508 
  517000       516500   -10875.746    888.97324   -11764.719    4120.3222   -15885.041    89.964434    712.79381    306.86857    821.09359    38.004208   -50.561012    -165.6405      46.7237      46.7237      46.7237           90           90           90     102002.7    613.58532 
  518000       517500   -10868.217    894.48099   -11762.698    4110.9488   -15873.647    90.521821      602.204    931.77787    1065.4086   -119.89182    127.06309    112.97372      46.7237      46.7237      46.7237           90           90           90     102002.7    866.46348 
  519000       518500   -10843.617    901.03619   -11744.653    4128.6768    -15873.33     91.18521    700.36765    333.16289      602.196   -169.11234   -212.46161   -121.76909      46.7237      46.7237      46.7237           90           90           90     102002.7    545.24218 
  520000       519500   -10844.046    909.84278   -11753.889    4127.3782   -15881.267    92.076439    173.79464    945.10109    572.04326    73.137572   -62.901388    36.442135      46.7237      46.7237      46.7237           90           90           90     102002.7    563.64633 
  521000       520500   -10880.294    900.77212   -11781.066    4100.0435    -15881.11    91.158485    614.71351    951.81597    591.19298    84.497044   0.72151301    159.77627      46.7237      46.7237      46.7237           90           90           90     102002.7    719.24082 
  522000       521500   -10861.338    888.10873   -11749.447    4138.4378   -15887.885    89.876945    438.29842    950.71636    416.64519    46.759276   -102.86099   -98.547975      46.7237      46.7237      46.7237           90           90           90     102002.7    601.88666 
  523000       522500   -10821.178    920.72355   -11741.901    4131.7327   -15873.634    93.177578    884.13781    1197.7773     1146.368   -34.462255    119.14936   -128.13409      46.7237      46.7237      46.7237           90           90           90     102002.7    1076.0944 
  524000       523500   -10858.353    912.97675    -11771.33    4122.3995   -15893.729    92.393599    269.70236    557.75366    763.23661    109.90439   -112.63365    48.798048      46.7237      46.7237      46.7237           90           90           90     102002.7    530.23088 
  525000       524500   -10889.003    890.01962   -11779.023    4105.1175    -15884.14    90.070328    359.49391    652.86292    1002.4904    46.599882    3.7374632    -3.143798      46.7237      46.7237      46.7237           90           90           90     102002.7    671.61573 
  526000       525500   -10861.589    890.05388   -11751.643    4131.9258   -15883.568    90.073796    1137.6851    1047.2894     1318.548    56.094885    45.055854    174.06239      46.7237      46.7237      46.7237           90           90           90     102002.7    1167.8409 
  527000       526500    -10860.78    899.54784   -11760.328    4110.5502   -15870.878    91.034588    778.25393    1063.9732     1027.363    127.61401    109.44872    40.390291      46.7237      46.7237      46.7237           90           90           90     102002.7    956.53004 
  528000       527500   -10881.715    888.22531    -11769.94    4104.1967   -15874.137    89.888744     529.4361    411.76583    782.60149    104.31111    7.5331736    38.463749      46.7237      46.7237      46.7237           90           90           90     102002.7    574.60114 
  529000       528500    -10891.78    863.99893   -11755.779    4110.2259   -15866.005    87.437024    585.88154    381.88038    671.19996    56.818241   -1.5111273   -101.87474      46.7237      46.7237      46.7237           90           90           90     102002.7    546.32063 
  530000       529500   -10843.128    893.93989   -11737.068    4146.1134   -15883.181    90.467061    1120.4678    790.20581    637.96752   -137.77723    24.276645    -186.4347      46.7237      46.7237      46.7237           90           90           90     102002.7    849.54705 
  531000       530500   -10873.303    889.26906   -11762.572    4124.4264   -15886.998    89.994371    393.88141    461.07479    357.94082    205.65433    65.685488    275.43083      46.7237      46.7237      46.7237           90           90           90     102002.7    404.29901 
  532000       531500   -10863.645    892.35267   -11755.997    4122.7741   -15878.772    90.306433    603.16554    462.48489    844.71329   -112.49416   -192.55643   -62.043242      46.7237      46.7237      46.7237           90           90           90     102002.7     636.7879 
  533000       532500   -10836.102    914.78115   -11750.883    4122.5637   -15873.447    92.576205    619.66782    757.69577    178.43491   -1.4500506    28.217776   -12.872263      46.7237      46.7237      46.7237           90           90           90     102002.7     518.5995 
  534000       533500   -10832.105    924.22257   -11756.327    4125.6633    -15881.99     93.53168    569.62784    789.42216    439.28419     201.6107    13.008167    131.02629      46.7237      46.7237      46.7237           90           90           90     102002.7    599.44473 
  535000       534500   -10865.255    902.52584   -11767.781    4118.8118   -15886.592    91.335963    783.27905     931.4887    393.25372    117.80695   -208.07036    12.983392      46.7237      46.7237      46.7237           90           90           90     102002.7    702.67382 
  536000       535500   -10873.786    898.20716   -11771.993    4121.5463   -15893.539    90.898911    1030.2377    695.87985    518.23206   -147.12633    92.612025    86.485243      46.7237      46.7237      46.7237           90           90           90     102002.7    748.11656 
  537000       536500   -10855.819    884.31654   -11740.135    4144.0968   -15884.232    89.493174    537.58179    979.04066     1018.128     198.5452    218.06909    108.39597      46.7237      46.7237      46.7237           90           90           90     102002.7    844.91683 
  538000       537500   -10896.908    869.34238    -11766.25    4121.0859   -15887.336    87.977784    1141.2508    598.42655    642.60999   -214.55127    117.91505   -92.711713      46.7237      46.7237      46.7237           90           90           90     102002.7    794.09579 
  539000       538500   -10873.741    900.01655   -11773.757    4128.9332    -15902.69    91.082021    666.25897    693.28873    533.97338   -167.89964    425.12939   -186.59939      46.7237      46.7237      46.7237           90           90           90     102002.7    631.17369 
  540000       539500   -10886.815    896.92436   -11783.739     4106.841    -15890.58     90.76909    513.38924    674.72442    953.79754    65.792669   -23.332163  -0.76960968      46.7237      46.7237      46.7237           90           90           90     102002.7     713.9704 
  541000       540500   -10867.465    904.15768   -11771.623    4107.0224   -15878.645    91.501105    807.90351     428.7419    902.48185   -32.284613    146.65983   -148.54002      46.7237      46.7237      46.7237           90           90           90     102002.7    713.04242 
  542000       541500   -10886.498    895.78032   -11782.278    4107.6733   -15889.952    90.653314    593.39328    773.20938    573.96524    68.229221   -144.43269    183.95622      46.7237      46.7237      46.7237           90           90           90     102002.7    646.85596 
  543000       542500   -10850.657    908.63085   -11759.287     4114.322   -15873.609    91.953792     697.7757    245.45639    895.75681    -189.1874    173.41689    119.08426      46.7237      46.7237      46.7237           90           90           90     102002.7     612.9963 
  544000       543500   -10860.988    899.08233    -11760.07    4101.1764   -15861.246    90.987478    416.07329    749.72344    795.29032    66.469146   -206.17408   0.15462418      46.7237      46.7237      46.7237           90           90           90     102002.7    653.69568 
  545000       544500   -10824.202    912.38781   -11736.589    4135.6439   -15872.233    92.333998    419.40864     854.7954    495.02147   -376.67602    125.64529   -109.12331      46.7237      46.7237      46.7237           90           90           90     102002.7    589.74184 
  546000       545500   -10854.761    901.89309   -11756.654    4133.2973   -15889.952    91.271929    441.20212    469.23697    815.34806    -176.3021   -29.703691   -43.817071      46.7237      46.7237      46.7237           90           90           90     102002.7    575.26238 
  547000       546500   -10908.561    887.03254   -11795.594    4106.2229   -15901.816    89.768034    346.40228    224.38978    788.42743   -13.140011    11.060532    -73.72282      46.7237      46.7237      46.7237           90           90           90     102002.7    453.07316 
  548000       547500   -10862.289    891.96318   -11754.252    4123.9858   -15878.238    90.267018    1203.1075    774.30262    984.31004    60.241437    224.70928   -181.68157      46.7237      46.7237      46.7237           90           90           90     102002.7    987.24004 
  549000       548500   -10856.301    897.23707   -11753.538    4143.5038   -15897.042    90.800737    841.66933    719.53998    1031.6551    43.199438    27.329106     -92.0304      46.7237      46.7237      46.7237           90           90           90     102002.7    864.28814 
  550000       549500   -10860.788    896.41793   -11757.206    4111.4463   -15868.652     90.71784    316.94869      764.696    492.71981   -113.69816   -3.6534702    75.497577      46.7237      46.7237      46.7237           90           90           90     102002.7    524.78816 
  551000       550500   -10867.096    882.27064   -11749.367    4132.7269   -15882.094    89.286128    263.62576    136.56958    773.54195   -307.75679    336.21256    16.088073      46.7237      46.7237      46.7237           90           90           90     102002.7    391.24576 
  552000       551500   -10837.256    914.99922   -11752.256    4125.5699   -15877.826    92.598273    774.85343    640.12707    827.05785    345.32635    192.22631    163.91417      46.7237      46.7237      46.7237           90           90           90     102002.7    747.34612 
  553000       552500    -10858.57    893.31127   -11751.882    4129.7299   -15881.611    90.403445     498.9311    459.17735    971.97953   -68.262165   -99.576226    286.18908      46.7237      46.7237      46.7237           90           90           90     102002.7    643.36266 
  554000       553500   -10870.817    913.69864   -11784.515       4104.5   -15889.015    92.466654    563.70467     491.1565    873.06772    239.65631     84.46736   -161.19223      46.7237      46.7237      46.7237           90           90           90     102002.7    642.64297 
  555000       554500   -10868.039    886.29724   -11754.337    4152.2912   -15906.628    89.693622    394.58764    643.81791    694.77569   -97.589204   -65.544175    12.744447      46.7237      46.7237      46.7237           90           90           90     102002.7    577.72708 
[...]
  936000       935500    -10839.17    911.37435   -11750.545    4142.0152    -15892.56    92.231435    761.79165    901.18895    999.74715    56.450428   -79.055618    98.321054      46.7237      46.7237      46.7237           90           90           90     102002.7    887.57591 
  937000       936500    -10863.54    907.15125   -11770.692    4109.9464   -15880.638    91.804056    701.71888    711.84854    801.55655   -121.01905   -172.54718    114.78979      46.7237      46.7237      46.7237           90           90           90     102002.7    738.37466 
  938000       937500   -10874.432    900.89591   -11775.328    4133.8165   -15909.144    91.171014    336.93896    772.72997    787.65112   -41.726691    260.23442   -152.56318      46.7237      46.7237      46.7237           90           90           90     102002.7    632.44002 
  939000       938500   -10840.549    903.97926   -11744.528    4148.0315   -15892.559     91.48305     734.9728    668.27068    719.08309   -217.23162     27.33276   -97.664478      46.7237      46.7237      46.7237           90           90           90     102002.7    707.44219 
  940000       939500   -10865.908    897.55393   -11763.461    4131.0321   -15894.494    90.832803    532.85377    612.83014    903.47841    74.799302    35.333119   -204.58063      46.7237      46.7237      46.7237           90           90           90     102002.7    683.05411 
  941000       940500   -10875.304    897.66766   -11772.971    4132.8261   -15905.797    90.844313    288.09536    568.22865    715.49806   -294.35432    98.857684    4.1248889      46.7237      46.7237      46.7237           90           90           90     102002.7    523.94069 
  942000       941500   -10864.339    881.32985   -11745.669    4140.7263   -15886.395    89.190921    653.26901    517.51062    640.73661    359.26778   -25.553889    148.98567      46.7237      46.7237      46.7237           90           90           90     102002.7    603.83875 
  943000       942500   -10848.283     911.3882   -11759.671    4138.5521   -15898.223    92.232837   -50.324488    340.15282     730.0005   -86.661782    1.9236543    36.444256      46.7237      46.7237      46.7237           90           90           90     102002.7    339.94295 
  944000       943500   -10844.646    911.07844   -11755.725    4140.2768   -15896.002    92.201489    355.67423     732.1849     749.9962    39.422922   -147.23104   -191.97476      46.7237      46.7237      46.7237           90           90           90     102002.7    612.61845 
  945000       944500   -10862.847    904.36098   -11767.208    4145.5944   -15912.803    91.521679    316.75569    356.01577    929.35844   -162.97919    169.85938   -107.01602      46.7237      46.7237      46.7237           90           90           90     102002.7     534.0433 
  946000       945500     -10883.8    894.69136   -11778.492    4129.0906   -15907.582     90.54311    311.76779    632.72435    660.75247   -243.15763    116.48564    60.921576      46.7237      46.7237      46.7237           90           90           90     102002.7    535.08154 
  947000       946500   -10850.845    895.36725   -11746.212    4124.9939   -15871.206     90.61151    417.11661    938.59697    830.22312    270.74799   -119.46098    130.60544      46.7237      46.7237      46.7237           90           90           90     102002.7    728.64556 
  948000       947500   -10854.427    891.54892   -11745.976    4139.8187   -15885.795    90.225095    496.86897    284.65613    632.92424    327.11806   -135.19685    274.18194      46.7237      46.7237      46.7237           90           90           90     102002.7    471.48312 
  949000       948500   -10897.046    870.72779   -11767.773    4128.8436   -15896.617    88.117988    688.49124    755.14827    872.68346   -40.268742   -397.31575    203.42886      46.7237      46.7237      46.7237           90           90           90     102002.7    772.10766 
  950000       949500    -10867.92    900.01131   -11767.932    4126.2567   -15894.188    91.081492    738.52199    496.78707    863.94665    221.62379    292.85359   -74.171099      46.7237      46.7237      46.7237           90           90           90     102002.7     699.7519 
  951000       950500   -10864.536     882.6235   -11747.159    4135.0108    -15882.17    89.321838    301.18319    1158.7206    844.08418   -94.603925   -29.185001   -56.234968      46.7237      46.7237      46.7237           90           90           90     102002.7    767.99598 
  952000       951500   -10854.123    903.64334   -11757.766    4131.8736    -15889.64    91.449054     399.2022    583.94934    606.25909   -60.408913    -291.5731    169.90654      46.7237      46.7237      46.7237           90           90           90     102002.7    529.80354 
  953000       952500   -10837.879    899.55226   -11737.431    4139.4447   -15876.875    91.035035    614.14175    979.93152    267.85604   -10.737709   -27.247236     351.1457      46.7237      46.7237      46.7237           90           90           90     102002.7     620.6431 
  954000       953500   -10876.422     886.6162   -11763.038    4134.1884   -15897.227    89.725901    826.66423    350.58006    794.75921    17.539273   -199.75337    193.54562      46.7237      46.7237      46.7237           90           90           90     102002.7     657.3345 
  955000       954500   -10852.012    915.19617   -11767.208    4132.1284   -15899.336    92.618205     119.5261     793.9033    436.46729   -75.849338   -98.476179    32.772829      46.7237      46.7237      46.7237           90           90           90     102002.7    449.96556 
  956000       955500   -10855.518    892.52991   -11748.048    4138.1149   -15886.163     90.32437    920.33188     401.4088    904.44741    -270.9045   -127.47572   -67.777085      46.7237      46.7237      46.7237           90           90           90     102002.7     742.0627 
  957000       956500   -10825.311    927.33783   -11752.648    4127.5731   -15880.221    93.846945    950.74349    440.07699     988.7441    10.407345     68.24012    81.383644      46.7237      46.7237      46.7237           90           90           90     102002.7    793.18819 
  958000       957500   -10866.641    890.65625   -11757.297    4129.3571   -15886.654    90.134756    717.09028    542.50134    918.75698    167.46228   -125.22598   -40.256003      46.7237      46.7237      46.7237           90           90           90     102002.7     726.1162 
  959000       958500   -10845.543    921.05995   -11766.603     4126.405   -15893.008    93.211622    807.50852    257.23111     919.0303    325.90217   -111.87095   -80.194337      46.7237      46.7237      46.7237           90           90           90     102002.7    661.25664 
  960000       959500   -10847.657    919.87724   -11767.534    4120.7011   -15888.235    93.091931    1011.3504    486.91502    788.55499    46.391131    176.16124    225.96327      46.7237      46.7237      46.7237           90           90           90     102002.7    762.27346 
  961000       960500   -10848.846    912.88108   -11761.727    4133.8368   -15895.564    92.383917    430.70702    622.15017    659.88492    212.74812    -53.13884   -88.284571      46.7237      46.7237      46.7237           90           90           90     102002.7    570.91404 
  962000       961500   -10859.709    886.45581   -11746.165    4148.7812   -15894.946     89.70967     415.4095   -34.096828    182.65813   -72.694115   -120.66948   -28.878104      46.7237      46.7237      46.7237           90           90           90     102002.7    187.99027 
  963000       962500   -10835.868    916.11469   -11751.983    4143.2646   -15895.248    92.711159    455.25392     460.9768    259.13101    195.22163   -84.119104   -48.045848      46.7237      46.7237      46.7237           90           90           90     102002.7    391.78724 
  964000       963500   -10879.486    883.00521   -11762.491    4134.0789    -15896.57    89.360467      877.044    401.25326    1169.4882   -205.26333     268.9997    112.85351      46.7237      46.7237      46.7237           90           90           90     102002.7    815.92847 
  965000       964500   -10865.811    898.28016   -11764.091    4122.5289    -15886.62    90.906298    691.44827    521.49994     303.7579    197.46506   -84.054763   -47.767335      46.7237      46.7237      46.7237           90           90           90     102002.7     505.5687 
  966000       965500   -10898.583    873.24028   -11771.823    4131.0412   -15902.865    88.372253    166.05846    628.32659    911.29801    52.029929   -5.6202798    126.16638      46.7237      46.7237      46.7237           90           90           90     102002.7    568.56102 
  967000       966500   -10839.132    908.88546   -11748.018    4145.0181   -15893.036    91.979558    274.22148    823.41451    989.51386    82.646984   -305.29348   -18.416159      46.7237      46.7237      46.7237           90           90           90     102002.7    695.71662 
  968000       967500   -10886.345    872.32809   -11758.673     4125.223   -15883.896    88.279939    223.07769    780.26317    735.70199   -108.02456   -84.452713    -95.24427      46.7237      46.7237      46.7237           90           90           90     102002.7    579.68095 
  969000       968500    -10858.53    902.03782   -11760.567    4136.5192   -15897.087    91.286574    847.20006    487.64279    790.89097   -141.25999    192.09853    1.5844294      46.7237      46.7237      46.7237           90           90           90     102002.7    708.57794 
  970000       969500   -10869.404    880.90283   -11750.307    4133.5397   -15883.846    89.147705    973.46779    1088.7719    1105.5204    -171.5576   -17.428801    70.677519      46.7237      46.7237      46.7237           90           90           90     102002.7      1055.92 
  971000       970500   -10880.142    896.31502   -11776.457    4113.6201   -15890.077    90.707426    324.23436     764.5771    949.75118    36.807555   -26.166989   -121.88625      46.7237      46.7237      46.7237           90           90           90     102002.7    679.52088 
  972000       971500   -10863.055    899.01818   -11762.073    4117.3591   -15879.432    90.980986     494.4723    570.22554    496.57132    110.76219   -33.359954    -190.8238      46.7237      46.7237      46.7237           90           90           90     102002.7    520.42306 
  973000       972500   -10868.662    904.21025   -11772.872    4132.0717   -15904.944    91.506425    432.86688    623.77356    824.69122    83.631027   -52.874055    171.73568      46.7237      46.7237      46.7237           90           90           90     102002.7    627.11055 
  974000       973500    -10880.27    874.21418   -11754.484    4138.6038   -15893.088    88.470812    411.63011    650.41915    941.38268   -91.353306    114.03722   -18.565375      46.7237      46.7237      46.7237           90           90           90     102002.7    667.81065 
  975000       974500   -10846.524    899.09713   -11745.622    4151.0513   -15896.673    90.988976    1196.0794    620.77711    431.92016   -106.84044    165.33152   -191.69803      46.7237      46.7237      46.7237           90           90           90     102002.7    749.59221 
  976000       975500   -10866.448    888.77217    -11755.22    4127.5046   -15882.725    89.944086   -31.559068    557.77017    604.40857    338.46988    102.83552    -330.7946      46.7237      46.7237      46.7237           90           90           90     102002.7    376.87322 
  977000       976500   -10862.871    884.94229   -11747.813    4150.6313   -15898.444    89.556501     454.4985     864.8557    893.59269   -422.92617   -6.0851088    151.36858      46.7237      46.7237      46.7237           90           90           90     102002.7    737.64896 
  978000       977500   -10847.601    905.97484   -11753.576    4132.4612   -15886.037    91.685002    856.31766    1117.3695    479.05329   -43.320207    123.85365     101.1602      46.7237      46.7237      46.7237           90           90           90     102002.7    817.58014 
  979000       978500   -10869.351      884.353   -11753.704    4132.3052   -15886.009    89.496865    942.64943    983.80037    715.56648    37.404086    15.865118    -28.67472      46.7237      46.7237      46.7237           90           90           90     102002.7     880.6721 
  980000       979500   -10897.949    872.53127   -11770.481    4126.9587   -15897.439      88.3005    514.17891    680.40993    795.86249    13.844284    108.85247   -211.74975      46.7237      46.7237      46.7237           90           90           90     102002.7    663.48378 
  981000       980500   -10897.537    873.84611   -11771.383    4128.9342   -15900.317    88.433562    312.44188    564.95846    26.001325   -50.111209    245.04799   -67.266819      46.7237      46.7237      46.7237           90           90           90     102002.7    301.13389 
  982000       981500   -10869.441    891.48241   -11760.923    4135.4386   -15896.362    90.218363     716.5883     651.4432    466.96647   -37.651704    105.33289    50.224679      46.7237      46.7237      46.7237           90           90           90     102002.7    611.66599 
  983000       982500   -10863.376    896.31657   -11759.693     4131.265   -15890.958    90.707583    418.14795    691.53705    615.85837   -25.661549   -10.094831    140.26375      46.7237      46.7237      46.7237           90           90           90     102002.7    575.18112 
  984000       983500   -10875.933    903.56221   -11779.495    4116.8516   -15896.347    91.440843    247.75474    524.66839    479.55395   -128.59452   -313.12125   -86.566283      46.7237      46.7237      46.7237           90           90           90     102002.7    417.32569 
  985000       984500   -10880.425     897.6059   -11778.031    4107.3873   -15885.418    90.838063    323.98091    769.54699    961.02317   -88.949345   -271.16383   -222.66122      46.7237      46.7237      46.7237           90           90           90     102002.7    684.85036 
  986000       985500    -10877.88    896.35032    -11774.23     4113.213   -15887.443    90.710998    443.11816    654.04421    883.91742    -46.17727    179.27103    30.549269      46.7237      46.7237      46.7237           90           90           90     102002.7    660.35993 
  987000       986500   -10843.496    912.98059   -11756.476    4129.8549   -15886.331    92.393988    936.38261    703.35102    1144.0909   -161.47244   -14.171129   -120.54547      46.7237      46.7237      46.7237           90           90           90     102002.7    927.94152 
  988000       987500   -10859.652    883.31832    -11742.97    4123.1853   -15866.155    89.392155    704.49165    1031.2918    221.95369    35.370799   -55.437068   -53.233155      46.7237      46.7237      46.7237           90           90           90     102002.7    652.57906 
  989000       988500   -10837.925     918.4054    -11756.33    4137.3492   -15893.679     92.94298     695.2952    523.73523    742.44539    80.272719    102.54296   -98.363735      46.7237      46.7237      46.7237           90           90           90     102002.7    653.82527 
  990000       989500   -10845.686    923.23811   -11768.924    4138.6961    -15907.62    93.432053    486.00487    385.53417    373.83977   -321.80645   -32.557424    3.2918308      46.7237      46.7237      46.7237           90           90           90     102002.7    415.12627 
  991000       990500   -10906.085    868.28102   -11774.366    4118.4476   -15892.813    87.870373    223.72426    706.65871    625.52472    -219.0338   -219.99256   -212.83039      46.7237      46.7237      46.7237           90           90           90     102002.7     518.6359 
  992000       991500   -10863.407    905.38511   -11768.792    4121.2995   -15890.092    91.625321    865.21377    289.72903    820.53446    144.21994    113.15054   -135.57776      46.7237      46.7237      46.7237           90           90           90     102002.7    658.49242 
  993000       992500   -10861.814    906.99556    -11768.81    4118.1808   -15886.991      91.7883    561.33473     791.8843    913.86297     167.5396   -30.874445   -69.789082      46.7237      46.7237      46.7237           90           90           90     102002.7      755.694 
  994000       993500   -10870.026    915.77544   -11785.802    4115.3137   -15901.116    92.676828    300.83591    806.95684    673.85598   -58.684142   -10.650237   -86.561689      46.7237      46.7237      46.7237           90           90           90     102002.7    593.88291 
  995000       994500   -10845.843    906.00993   -11751.853    4137.1562   -15889.009    91.688554    171.35016    878.33903    641.35266    135.26346    139.06878   -64.019732      46.7237      46.7237      46.7237           90           90           90     102002.7    563.68062 
  996000       995500   -10870.542     891.1909   -11761.733    4125.7599   -15887.492    90.188862    262.93629    307.34286    734.98427   -31.641408    13.052595    246.21516      46.7237      46.7237      46.7237           90           90           90     102002.7     435.0878 
  997000       996500   -10848.568    899.87308   -11748.441    4137.6578   -15886.099    91.067502    138.27019    874.11295    570.52384   -98.727094   -203.28299    58.071709      46.7237      46.7237      46.7237           90           90           90     102002.7    527.63566 
  998000       997500   -10873.329    875.80292   -11749.132    4136.1038   -15885.236    88.631592     787.5985     684.7751    601.27266    272.36867   -29.100423    -205.4726      46.7237      46.7237      46.7237           90           90           90     102002.7    691.21542 
  999000       998500   -10858.802    885.70931   -11744.511    4135.5308   -15880.042    89.634123    660.47284    1014.4848    830.31438   -95.084669    149.15638   -129.14963      46.7237      46.7237      46.7237           90           90           90     102002.7    835.09067 
 1000000       999500   -10882.772    894.90601   -11777.678    4135.6147   -15913.292    90.564833    660.50536    692.91987    356.05638   -246.44988    133.41968   -84.843384      46.7237      46.7237      46.7237           90           90           90     102002.7     569.8272 
 1000500      1000000   -10864.708    914.84608   -11779.554     4126.842   -15906.396    92.582776    977.32652    386.59135    707.16245    113.64961     24.27524    182.93935      46.7237      46.7237      46.7237           90           90           90     102002.7     690.3601 
Loop time of 2426.84 on 16 procs for 500000 steps with 3316 atoms

Performance: 17.801 ns/day, 1.348 hours/ns, 206.030 timesteps/s
99.8% CPU use with 16 MPI tasks x no OpenMP threads

MPI task timing breakdown:
Section |  min time  |  avg time  |  max time  |%varavg| %total
---------------------------------------------------------------
Pair    | 1110.4     | 1538.6     | 1995.6     | 719.4 | 63.40
Bond    | 134.36     | 184.06     | 225.19     | 230.8 |  7.58
Neigh   | 15.189     | 15.214     | 15.241     |   0.5 |  0.63
Comm    | 159.62     | 656.3      | 1129.2     |1209.2 | 27.04
Output  | 0.13603    | 0.1426     | 0.14318    |   0.4 |  0.01
Modify  | 24.161     | 25.466     | 27.98      |  26.9 |  1.05
Other   |            | 7.012      |            |       |  0.29

Nlocal:    207.25 ave 245 max 175 min
Histogram: 1 2 0 3 2 4 2 0 1 1
Nghost:    4176.19 ave 4204 max 4144 min
Histogram: 1 1 1 2 3 3 1 0 2 2
Neighs:    11460.7 ave 17154 max 5753 min
Histogram: 1 4 1 1 1 0 2 3 1 2

Total # of neighbors = 183371
Ave neighs/atom = 55.2989
Ave special neighs/atom = 3.47407
Neighbor list builds = 4082
Dangerous builds = 0
Total wall time: 1:12:54
