LAMMPS (30 Mar 2018)
Reading data file ...
  orthogonal box = (0 0 0) to (46.7237 46.7237 46.7237)
  2 by 2 by 4 MPI processor grid
  reading atoms ...
  3160 atoms
  scanning bonds ...
  5 = max bonds/atom
  scanning angles ...
  10 = max angles/atom
  scanning dihedrals ...
  32 = max dihedrals/atom
  scanning impropers ...
  3 = max impropers/atom
  reading bonds ...
  2064 bonds
  reading angles ...
  3696 angles
  reading dihedrals ...
  6240 dihedrals
  reading impropers ...
  1008 impropers
Finding 1-2 1-3 1-4 neighbors ...
  special bond factors lj:   0          0          0         
  special bond factors coul: 0          0          0         
  5 = max # of 1-2 neighbors
  8 = max # of 1-3 neighbors
  20 = max # of 1-4 neighbors
  19 = max # of special neighbors
Finding 1-2 1-3 1-4 neighbors ...
  special bond factors lj:   0          0          1         
  special bond factors coul: 1          1          1         
  5 = max # of 1-2 neighbors
  8 = max # of 1-3 neighbors
  19 = max # of special neighbors
WARNING: Using 'neigh_modify every 1 delay 0 check yes' setting during minimization (../min.cpp:168)
Neighbor list info ...
  update every 1 steps, delay 0 steps, check yes
  max neighbors/atom: 2000, page size: 100000
  master list distance cutoff = 16
  ghost atom cutoff = 16
  binsize = 8, bins = 6 6 6
  3 neighbor lists, perpetual/occasional/extra = 3 0 0
  (1) pair buck6d/coul/gauss/dsf, perpetual, skip from (3)
      attributes: half, newton on
      pair build: skip
      stencil: none
      bin: none
  (2) pair lj/cut, perpetual, skip from (3)
      attributes: half, newton on
      pair build: skip
      stencil: none
      bin: none
  (3) neighbor class addition, perpetual
      attributes: half, newton on
      pair build: half/bin/newton
      stencil: half/bin/3d/newton
      bin: standard
Setting up cg style minimization ...
  Unit style    : real
  Current step  : 0
WARNING: Inconsistent image flags (../domain.cpp:786)
Per MPI rank memory allocation (min/avg/max) = 23.01 | 23.47 | 23.91 Mbytes
Step Temp E_pair E_mol TotEng Press 
       0            0   -15423.301    6482.8914   -8940.4095    5746.1856 
     500            0   -15768.296    3763.0755   -12005.221   -2107.6252 
Loop time of 4.33299 on 16 procs for 500 steps with 3160 atoms

99.9% CPU use with 16 MPI tasks x no OpenMP threads

Minimization stats:
  Stopping criterion = max force evaluations
  Energy initial, next-to-last, final = 
        -8940.40945362      -12005.137723     -12005.2208844
  Force two-norm initial, final = 2574.74 13.1327
  Force max component initial, final = 152.034 2.09939
  Final line search alpha, max atom move = 0.00570804 0.0119834
  Iterations, force evaluations = 500 1000

MPI task timing breakdown:
Section |  min time  |  avg time  |  max time  |%varavg| %total
---------------------------------------------------------------
Pair    | 2.3408     | 2.9312     | 3.5626     |  18.3 | 67.65
Bond    | 0.32444    | 0.35971    | 0.41       |   4.5 |  8.30
Neigh   | 0.03619    | 0.036263   | 0.036347   |   0.0 |  0.84
Comm    | 0.33235    | 0.96139    | 1.5887     |  32.0 | 22.19
Output  | 0          | 0          | 0          |   0.0 |  0.00
Modify  | 0          | 0          | 0          |   0.0 |  0.00
Other   |            | 0.0444     |            |       |  1.02

Nlocal:    197.5 ave 223 max 167 min
Histogram: 1 0 1 4 1 4 1 0 2 2
Nghost:    3951.06 ave 3983 max 3918 min
Histogram: 1 2 1 1 4 1 1 3 1 1
Neighs:    11480 ave 16351 max 5976 min
Histogram: 1 0 2 4 0 2 3 1 1 2

Total # of neighbors = 183680
Ave neighs/atom = 58.1266
Ave special neighs/atom = 3.64557
Neighbor list builds = 11
Dangerous builds = 0
Neighbor list info ...
  update every 1 steps, delay 10 steps, check yes
  max neighbors/atom: 2000, page size: 100000
  master list distance cutoff = 16
  ghost atom cutoff = 16
  binsize = 8, bins = 6 6 6
  3 neighbor lists, perpetual/occasional/extra = 3 0 0
  (1) pair buck6d/coul/gauss/dsf, perpetual, skip from (3)
      attributes: half, newton on
      pair build: skip
      stencil: none
      bin: none
  (2) pair lj/cut, perpetual, skip from (3)
      attributes: half, newton on
      pair build: skip
      stencil: none
      bin: none
  (3) neighbor class addition, perpetual
      attributes: half, newton on
      pair build: half/bin/newton
      stencil: half/bin/3d/newton
      bin: standard
Setting up Verlet run ...
  Unit style    : real
  Current step  : 500
  Time step     : 1
WARNING: Inconsistent image flags (../domain.cpp:786)
Per MPI rank memory allocation (min/avg/max) = 22.66 | 22.73 | 22.79 Mbytes
Step Temp PotEng TotEng Press Volume Lx Ly Lz 
     500           91   -12005.221    -11148.33   -1723.6117     102002.7      46.7237      46.7237      46.7237 
    1000    77.087449   -11298.135    -10572.25   -615.89512     102002.7      46.7237      46.7237      46.7237 
    2000    94.496906   -11170.716   -10280.898    -781.7638     102002.7      46.7237      46.7237      46.7237 
    3000    89.948496   -11205.518   -10358.529   -700.38677     102002.7      46.7237      46.7237      46.7237 
    4000    93.474844   -11171.959   -10291.764   -509.26839     102002.7      46.7237      46.7237      46.7237 
    5000    91.279359    -11179.87   -10320.349   -548.88738     102002.7      46.7237      46.7237      46.7237 
    6000    92.962275   -11191.444   -10316.076   -483.12422     102002.7      46.7237      46.7237      46.7237 
    7000    92.002867   -11198.235   -10331.901   -673.05161     102002.7      46.7237      46.7237      46.7237 
    8000    91.779752    -11197.79   -10333.557    -796.4692     102002.7      46.7237      46.7237      46.7237 
    9000    93.370283   -11195.757   -10316.547   -642.76868     102002.7      46.7237      46.7237      46.7237 
   10000    90.132965   -11204.935   -10356.209   -806.50748     102002.7      46.7237      46.7237      46.7237 
   11000    91.251257   -11173.628   -10314.372   -578.72021     102002.7      46.7237      46.7237      46.7237 
   12000    90.636884   -11209.696   -10356.225   -913.90212     102002.7      46.7237      46.7237      46.7237 
   13000    91.197719   -11176.115   -10317.363   -837.41732     102002.7      46.7237      46.7237      46.7237 
   14000    92.936214   -11191.633   -10316.511   -475.58534     102002.7      46.7237      46.7237      46.7237 
   15000    88.963256   -11209.024   -10371.313   -780.95695     102002.7      46.7237      46.7237      46.7237 
   16000    90.510172   -11228.868    -10376.59    -912.7273     102002.7      46.7237      46.7237      46.7237 
   17000    92.483068   -11232.578   -10361.722   -632.97172     102002.7      46.7237      46.7237      46.7237 
   18000    88.911757   -11211.684   -10374.458   -642.35677     102002.7      46.7237      46.7237      46.7237 
   19000    90.246493   -11213.588   -10363.793   -469.33876     102002.7      46.7237      46.7237      46.7237 
   20000    88.627781   -11223.492   -10388.939   -620.45731     102002.7      46.7237      46.7237      46.7237 
   21000    90.805913   -11201.446   -10346.383    -582.1781     102002.7      46.7237      46.7237      46.7237 
   22000    91.262051   -11202.386   -10343.028   -696.07984     102002.7      46.7237      46.7237      46.7237 
   23000    91.504181    -11207.08   -10345.442   -729.98722     102002.7      46.7237      46.7237      46.7237 
   24000    92.727092   -11196.243    -10323.09   -666.01268     102002.7      46.7237      46.7237      46.7237 
   25000    91.642068   -11187.071   -10324.134   -645.92217     102002.7      46.7237      46.7237      46.7237 
   26000    91.037973   -11199.717   -10342.469   -750.39614     102002.7      46.7237      46.7237      46.7237 
   27000    94.947356   -11203.577   -10309.517   -684.76655     102002.7      46.7237      46.7237      46.7237 
   28000    90.748675   -11221.482   -10366.958   -652.75254     102002.7      46.7237      46.7237      46.7237 
   29000     92.05665   -11218.439   -10351.599   -939.13079     102002.7      46.7237      46.7237      46.7237 
   30000    91.847494   -11199.109   -10334.238   -475.03109     102002.7      46.7237      46.7237      46.7237 
   31000    90.193133   -11193.153    -10343.86    -651.2075     102002.7      46.7237      46.7237      46.7237 
   32000    92.830019   -11197.131   -10323.008   -472.88147     102002.7      46.7237      46.7237      46.7237 
   33000    93.342518     -11228.1   -10349.151   -659.52287     102002.7      46.7237      46.7237      46.7237 
   34000    89.265521   -11188.365   -10347.807   -668.44383     102002.7      46.7237      46.7237      46.7237 
   35000     89.36866   -11216.165   -10374.636    -841.1073     102002.7      46.7237      46.7237      46.7237 
   36000    92.439488   -11213.544   -10343.099   -661.41593     102002.7      46.7237      46.7237      46.7237 
   37000    92.976282   -11224.022   -10348.522   -539.04347     102002.7      46.7237      46.7237      46.7237 
   38000    89.931712   -11208.856   -10362.024   -710.21384     102002.7      46.7237      46.7237      46.7237 
   39000    89.669811    -11205.36   -10360.995   -849.99627     102002.7      46.7237      46.7237      46.7237 
   40000    91.567296    -11212.35   -10350.117   -974.14927     102002.7      46.7237      46.7237      46.7237 
   41000    90.769958   -11218.555    -10363.83   -880.15065     102002.7      46.7237      46.7237      46.7237 
   42000    90.255483   -11217.265   -10367.386   -864.59261     102002.7      46.7237      46.7237      46.7237 
   43000    89.699943   -11204.332   -10359.684   -731.07608     102002.7      46.7237      46.7237      46.7237 
   44000    90.430638   -11212.425   -10360.896   -591.34031     102002.7      46.7237      46.7237      46.7237 
   45000     88.90771   -11208.257   -10371.069   -721.23668     102002.7      46.7237      46.7237      46.7237 
   46000    89.924385   -11204.491   -10357.729   -750.40344     102002.7      46.7237      46.7237      46.7237 
   47000    91.145306   -11224.086   -10365.828   -615.64625     102002.7      46.7237      46.7237      46.7237 
   48000      89.2602   -11216.433   -10375.926   -610.53112     102002.7      46.7237      46.7237      46.7237 
   49000    88.271216   -11217.402   -10386.207   -781.00465     102002.7      46.7237      46.7237      46.7237 
   50000    90.256442   -11201.653   -10351.764   -706.14473     102002.7      46.7237      46.7237      46.7237 
   51000    91.759876   -11207.569   -10343.523   -963.29906     102002.7      46.7237      46.7237      46.7237 
   52000    90.135819   -11190.899   -10342.146   -724.28883     102002.7      46.7237      46.7237      46.7237 
   53000    90.545469   -11216.372   -10363.762   -732.85692     102002.7      46.7237      46.7237      46.7237 
   54000    89.666418   -11193.358   -10349.025   -872.49643     102002.7      46.7237      46.7237      46.7237 
   55000    92.483335   -11219.154   -10348.296   -707.97338     102002.7      46.7237      46.7237      46.7237 
   56000    94.280292   -11181.547   -10293.768   -825.39623     102002.7      46.7237      46.7237      46.7237 
   57000    92.235659   -11209.709   -10341.183   -732.56104     102002.7      46.7237      46.7237      46.7237 
   58000    93.286361   -11183.482   -10305.062   -585.59097     102002.7      46.7237      46.7237      46.7237 
   59000    90.352838    -11185.86   -10335.064   -683.46551     102002.7      46.7237      46.7237      46.7237 
   60000    90.445649   -11207.422   -10355.751   -516.93787     102002.7      46.7237      46.7237      46.7237 
   61000    91.405421   -11197.357   -10336.649   -610.04105     102002.7      46.7237      46.7237      46.7237 
   62000    89.470149   -11222.351   -10379.866   -511.16872     102002.7      46.7237      46.7237      46.7237 
   63000    91.400616   -11217.061   -10356.399    -689.9548     102002.7      46.7237      46.7237      46.7237 
   64000    93.213442   -11195.716   -10317.983   -867.89873     102002.7      46.7237      46.7237      46.7237 
   65000    91.311611   -11215.009   -10355.184   -929.90371     102002.7      46.7237      46.7237      46.7237 
   66000    89.694048   -11216.898   -10372.305   -760.28005     102002.7      46.7237      46.7237      46.7237 
   67000     88.91285   -11187.195   -10349.958   -649.65209     102002.7      46.7237      46.7237      46.7237 
   68000    94.142477   -11224.091   -10337.609   -876.66644     102002.7      46.7237      46.7237      46.7237 
   69000    89.429915   -11213.122   -10371.016   -669.47053     102002.7      46.7237      46.7237      46.7237 
   70000    90.573508   -11216.162   -10363.287   -641.15991     102002.7      46.7237      46.7237      46.7237 
   71000    90.756119   -11203.014    -10348.42   -809.49336     102002.7      46.7237      46.7237      46.7237 
   72000    89.807165   -11205.317   -10359.658   -668.05791     102002.7      46.7237      46.7237      46.7237 
   73000    90.957877   -11192.432   -10335.938   -799.78794     102002.7      46.7237      46.7237      46.7237 
   74000    90.231913   -11174.348    -10324.69   -555.72836     102002.7      46.7237      46.7237      46.7237 
   75000    90.362388   -11187.682   -10336.796   -821.35086     102002.7      46.7237      46.7237      46.7237 
   76000    92.262886   -11207.684   -10338.901   -694.82997     102002.7      46.7237      46.7237      46.7237 
   77000     91.85284   -11212.673   -10347.752    -790.6887     102002.7      46.7237      46.7237      46.7237 
   78000    92.362335   -11196.731   -10327.013   -1023.2984     102002.7      46.7237      46.7237      46.7237 
   79000      91.4702   -11211.855   -10350.537   -942.84049     102002.7      46.7237      46.7237      46.7237 
   80000    90.380945   -11199.917   -10348.856   -775.50351     102002.7      46.7237      46.7237      46.7237 
   81000    91.509332   -11202.019   -10340.332   -859.35646     102002.7      46.7237      46.7237      46.7237 
   82000     88.02691   -11201.272   -10372.377    -850.4755     102002.7      46.7237      46.7237      46.7237 
   83000    90.653753   -11188.329   -10334.699   -741.98684     102002.7      46.7237      46.7237      46.7237 
   84000    90.938435   -11200.615   -10344.305   -724.46084     102002.7      46.7237      46.7237      46.7237 
   85000    90.751628   -11181.002    -10326.45   -587.13125     102002.7      46.7237      46.7237      46.7237 
   86000    92.339946   -11213.173   -10343.665   -732.41467     102002.7      46.7237      46.7237      46.7237 
   87000    90.830288   -11198.225   -10342.933   -786.27707     102002.7      46.7237      46.7237      46.7237 
   88000    91.078324   -11201.654   -10344.026   -887.52261     102002.7      46.7237      46.7237      46.7237 
   89000     90.87468   -11207.977   -10352.267   -1083.2461     102002.7      46.7237      46.7237      46.7237 
   90000    91.029943   -11221.472     -10364.3   -765.77033     102002.7      46.7237      46.7237      46.7237 
   91000    90.491939   -11177.549   -10325.442    -806.0918     102002.7      46.7237      46.7237      46.7237 
   92000    90.683754   -11176.871   -10322.959   -1030.4635     102002.7      46.7237      46.7237      46.7237 
   93000    92.516144    -11201.72   -10330.553   -781.56854     102002.7      46.7237      46.7237      46.7237 
   94000    88.839629   -11204.523   -10367.976   -897.95344     102002.7      46.7237      46.7237      46.7237 
   95000    91.629628   -11203.669    -10340.85   -927.68982     102002.7      46.7237      46.7237      46.7237 
   96000    92.869844   -11210.532   -10336.034   -866.70855     102002.7      46.7237      46.7237      46.7237 
   97000    92.428864   -11193.984   -10323.638   -730.24476     102002.7      46.7237      46.7237      46.7237 
   98000    89.004269   -11194.277   -10356.179   -629.80084     102002.7      46.7237      46.7237      46.7237 
   99000    91.074516    -11191.68   -10334.088   -1012.6876     102002.7      46.7237      46.7237      46.7237 
  100000    90.930078   -11186.633   -10330.401   -767.56979     102002.7      46.7237      46.7237      46.7237 
  101000    91.105633   -11207.475    -10349.59   -877.12629     102002.7      46.7237      46.7237      46.7237 
  102000    91.923667   -11190.456   -10324.867   -747.48337     102002.7      46.7237      46.7237      46.7237 
  103000    90.618687   -11208.151   -10354.851   -813.62138     102002.7      46.7237      46.7237      46.7237 
  104000    90.498192   -11199.806    -10347.64   -887.42785     102002.7      46.7237      46.7237      46.7237 
  105000    92.525928    -11211.53   -10340.271   -707.81795     102002.7      46.7237      46.7237      46.7237 
  106000    90.036166   -11176.474   -10328.659    -607.0835     102002.7      46.7237      46.7237      46.7237 
  107000     90.89783   -11206.523   -10350.595   -750.48226     102002.7      46.7237      46.7237      46.7237 
  108000    90.261047   -11203.802   -10353.869   -721.20189     102002.7      46.7237      46.7237      46.7237 
  109000    90.963657   -11196.884   -10340.336   -594.98987     102002.7      46.7237      46.7237      46.7237 
  110000    91.282944   -11203.316   -10343.761   -432.66943     102002.7      46.7237      46.7237      46.7237 
  111000    92.833449   -11215.321   -10341.166   -667.41179     102002.7      46.7237      46.7237      46.7237 
  112000    90.651388    -11192.24   -10338.632   -846.69549     102002.7      46.7237      46.7237      46.7237 
  113000    90.260074   -11214.141   -10364.218    -700.2881     102002.7      46.7237      46.7237      46.7237 
  114000    89.543388   -11209.379   -10366.205   -844.05186     102002.7      46.7237      46.7237      46.7237 
  115000    90.942308     -11226.9   -10370.553   -809.10842     102002.7      46.7237      46.7237      46.7237 
  116000    91.178793   -11215.106   -10356.532   -591.13592     102002.7      46.7237      46.7237      46.7237 
  117000    92.493465   -11226.389   -10355.435   -639.72694     102002.7      46.7237      46.7237      46.7237 
  118000    91.028839   -11213.021   -10355.859   -846.10134     102002.7      46.7237      46.7237      46.7237 
  119000    90.148606   -11200.552   -10351.678   -728.80591     102002.7      46.7237      46.7237      46.7237 
  120000    89.050098   -11215.669   -10377.139   -772.62642     102002.7      46.7237      46.7237      46.7237 
  121000    93.101577   -11207.187   -10330.507   -764.10081     102002.7      46.7237      46.7237      46.7237 
  122000    92.481323    -11209.01   -10338.171   -866.41501     102002.7      46.7237      46.7237      46.7237 
  123000    89.296672     -11185.8   -10344.949   -909.04766     102002.7      46.7237      46.7237      46.7237 
  124000    90.676808   -11220.651   -10366.804    -851.2933     102002.7      46.7237      46.7237      46.7237 
  125000    92.783543   -11204.991   -10331.306    -780.4765     102002.7      46.7237      46.7237      46.7237 
  126000    91.456496    -11224.22   -10363.031   -943.72534     102002.7      46.7237      46.7237      46.7237 
  127000    90.062277   -11201.796   -10353.735    -786.7232     102002.7      46.7237      46.7237      46.7237 
  128000    93.137967    -11198.93   -10321.908   -933.64101     102002.7      46.7237      46.7237      46.7237 
  129000    92.629403   -11226.419   -10354.186   -830.86548     102002.7      46.7237      46.7237      46.7237 
  130000    90.596649   -11196.647   -10343.554   -793.84481     102002.7      46.7237      46.7237      46.7237 
  131000    90.519834   -11181.241   -10328.872   -1050.9158     102002.7      46.7237      46.7237      46.7237 
  132000    90.856262   -11190.457    -10334.92   -642.86191     102002.7      46.7237      46.7237      46.7237 
  133000     89.75816   -11209.509   -10364.312   -698.95349     102002.7      46.7237      46.7237      46.7237 
  134000    92.066006   -11200.862   -10333.934   -789.69112     102002.7      46.7237      46.7237      46.7237 
  135000    90.203093   -11214.426    -10365.04   -561.48755     102002.7      46.7237      46.7237      46.7237 
  136000    91.896608   -11200.449   -10335.116   -858.00283     102002.7      46.7237      46.7237      46.7237 
  137000    90.790459   -11229.069   -10374.151   -995.81502     102002.7      46.7237      46.7237      46.7237 
  138000    90.992824   -11211.642   -10354.819   -789.47546     102002.7      46.7237      46.7237      46.7237 
  139000    91.142514   -11214.348   -10356.116   -1072.7974     102002.7      46.7237      46.7237      46.7237 
  140000    91.903092   -11203.668   -10338.273   -731.30402     102002.7      46.7237      46.7237      46.7237 
  141000    90.454938   -11209.934   -10358.176    -850.3901     102002.7      46.7237      46.7237      46.7237 
  142000    88.352847   -11218.692   -10386.728    -983.5189     102002.7      46.7237      46.7237      46.7237 
  143000    90.847066   -11215.684   -10360.234   -550.89791     102002.7      46.7237      46.7237      46.7237 
  144000    92.869403   -11203.668   -10329.174   -721.07412     102002.7      46.7237      46.7237      46.7237 
  145000    90.415229    -11229.41   -10378.026   -762.23056     102002.7      46.7237      46.7237      46.7237 
  146000    90.825656   -11182.336   -10327.088   -566.66762     102002.7      46.7237      46.7237      46.7237 
  147000    90.137943   -11212.627   -10363.854   -727.95604     102002.7      46.7237      46.7237      46.7237 
  148000    93.793749   -11229.911   -10346.713   -675.86524     102002.7      46.7237      46.7237      46.7237 
  149000    92.023992   -11192.747   -10326.214   -831.55461     102002.7      46.7237      46.7237      46.7237 
  150000    90.517824    -11220.98    -10368.63   -969.60911     102002.7      46.7237      46.7237      46.7237 
  151000    90.415786    -11205.39   -10354.001   -520.66559     102002.7      46.7237      46.7237      46.7237 
  152000    93.799989   -11187.851   -10304.595   -392.22274     102002.7      46.7237      46.7237      46.7237 
  153000    90.055245   -11189.134   -10341.139   -913.65721     102002.7      46.7237      46.7237      46.7237 
  154000    92.508553   -11221.381   -10350.286   -707.72099     102002.7      46.7237      46.7237      46.7237 
  155000    92.213831   -11227.987   -10359.667   -702.88148     102002.7      46.7237      46.7237      46.7237 
  156000    90.291455   -11190.207   -10339.989   -829.28322     102002.7      46.7237      46.7237      46.7237 
  157000    89.269778   -11230.718    -10390.12   -880.57107     102002.7      46.7237      46.7237      46.7237 
  158000    92.392019   -11198.338   -10328.339   -809.91589     102002.7      46.7237      46.7237      46.7237 
  159000    89.638234   -11199.605   -10355.537   -635.91472     102002.7      46.7237      46.7237      46.7237 
  160000    91.993579   -11207.796   -10341.549   -382.38903     102002.7      46.7237      46.7237      46.7237 
  161000    90.449162   -11212.385   -10360.682   -750.82739     102002.7      46.7237      46.7237      46.7237 
  162000    90.822475   -11219.777   -10364.558   -676.16896     102002.7      46.7237      46.7237      46.7237 
  163000    92.054255   -11219.661   -10352.844   -720.78755     102002.7      46.7237      46.7237      46.7237 
  164000    89.466172   -11196.566   -10354.119   -643.33634     102002.7      46.7237      46.7237      46.7237 
  165000     92.65503   -11218.583   -10346.108   -702.88672     102002.7      46.7237      46.7237      46.7237 
  166000    89.999718   -11226.753   -10379.282   -687.45378     102002.7      46.7237      46.7237      46.7237 
  167000    90.792576   -11194.107   -10339.169   -784.71076     102002.7      46.7237      46.7237      46.7237 
  168000    89.682404   -11222.868   -10378.384   -567.65503     102002.7      46.7237      46.7237      46.7237 
  169000    90.764834    -11214.61   -10359.934   -887.30208     102002.7      46.7237      46.7237      46.7237 
  170000    90.405057   -11208.833   -10357.545   -781.87993     102002.7      46.7237      46.7237      46.7237 
  171000    90.007974   -11220.951   -10373.402   -792.69722     102002.7      46.7237      46.7237      46.7237 
  172000    91.530688   -11193.966   -10332.078   -859.83052     102002.7      46.7237      46.7237      46.7237 
  173000    90.770436   -11230.127   -10375.398   -749.43917     102002.7      46.7237      46.7237      46.7237 
  174000    90.940928   -11214.487   -10358.153   -870.85231     102002.7      46.7237      46.7237      46.7237 
  175000    90.203603   -11192.421    -10343.03    -861.7992     102002.7      46.7237      46.7237      46.7237 
  176000    90.613104   -11219.741   -10366.494   -741.91664     102002.7      46.7237      46.7237      46.7237 
  177000    89.729272   -11213.368   -10368.443   -839.66834     102002.7      46.7237      46.7237      46.7237 
  178000    90.207825    -11218.39   -10368.959   -725.46722     102002.7      46.7237      46.7237      46.7237 
  179000    90.005343   -11197.962   -10350.437   -861.09762     102002.7      46.7237      46.7237      46.7237 
  180000    90.616316   -11214.023   -10360.745   -938.30852     102002.7      46.7237      46.7237      46.7237 
  181000    89.195671   -11202.918   -10363.018    -723.7667     102002.7      46.7237      46.7237      46.7237 
  182000    91.441984   -11186.161   -10325.109   -614.14365     102002.7      46.7237      46.7237      46.7237 
  183000    91.554623   -11212.617   -10350.504   -619.83134     102002.7      46.7237      46.7237      46.7237 
  184000    89.873001   -11188.842   -10342.564   -413.14634     102002.7      46.7237      46.7237      46.7237 
  185000    89.850975   -11197.167   -10351.096   -903.75161     102002.7      46.7237      46.7237      46.7237 
  186000    93.205609   -11204.809    -10327.15   -754.92593     102002.7      46.7237      46.7237      46.7237 
  187000    90.139203   -11221.618   -10372.833   -719.49905     102002.7      46.7237      46.7237      46.7237 
  188000    92.197842   -11230.211   -10362.042   -701.36966     102002.7      46.7237      46.7237      46.7237 
  189000    91.168304   -11202.038   -10343.562   -1017.3883     102002.7      46.7237      46.7237      46.7237 
  190000    92.663647   -11202.343   -10329.787   -855.66311     102002.7      46.7237      46.7237      46.7237 
  191000    90.797386   -11215.484   -10360.501   -666.72886     102002.7      46.7237      46.7237      46.7237 
  192000    91.732803   -11199.734   -10335.943   -730.72639     102002.7      46.7237      46.7237      46.7237 
  193000     91.41041   -11193.329   -10332.574   -645.32431     102002.7      46.7237      46.7237      46.7237 
  194000    91.153698   -11204.213   -10345.875   -935.27365     102002.7      46.7237      46.7237      46.7237 
  195000    89.082649   -11205.914   -10367.078    -723.1807     102002.7      46.7237      46.7237      46.7237 
  196000    91.366247   -11234.069    -10373.73   -766.97908     102002.7      46.7237      46.7237      46.7237 
  197000    91.418289   -11193.213   -10332.384   -849.79533     102002.7      46.7237      46.7237      46.7237 
  198000    89.403385   -11212.192   -10370.336   -712.42081     102002.7      46.7237      46.7237      46.7237 
  199000    90.023321   -11198.466   -10350.772   -597.64186     102002.7      46.7237      46.7237      46.7237 
  200000    90.849757   -11199.586   -10344.111   -762.04073     102002.7      46.7237      46.7237      46.7237 
  201000    92.104542   -11212.523   -10345.231   -807.04461     102002.7      46.7237      46.7237      46.7237 
  202000    91.177644    -11181.82   -10323.257    -577.7807     102002.7      46.7237      46.7237      46.7237 
  203000    91.832072    -11212.11   -10347.384   -671.92585     102002.7      46.7237      46.7237      46.7237 
  204000    93.963878   -11207.307   -10322.507   -822.55412     102002.7      46.7237      46.7237      46.7237 
  205000    91.441803    -11193.66   -10332.609   -663.60662     102002.7      46.7237      46.7237      46.7237 
  206000    91.626051   -11200.431   -10337.645   -633.88168     102002.7      46.7237      46.7237      46.7237 
  207000     90.06425   -11189.335   -10341.256   -613.34988     102002.7      46.7237      46.7237      46.7237 
  208000    90.771159   -11188.631   -10333.895   -610.70684     102002.7      46.7237      46.7237      46.7237 
  209000     91.04003   -11206.554   -10349.286   -759.42707     102002.7      46.7237      46.7237      46.7237 
  210000    91.483498   -11200.283    -10338.84   -855.97693     102002.7      46.7237      46.7237      46.7237 
  211000    90.750377   -11210.777   -10356.237   -1082.6748     102002.7      46.7237      46.7237      46.7237 
  212000    90.732539   -11203.339   -10348.967   -912.59106     102002.7      46.7237      46.7237      46.7237 
  213000    93.068899   -11202.429   -10326.057   -880.86899     102002.7      46.7237      46.7237      46.7237 
  214000    92.363258   -11212.792   -10343.064   -839.89722     102002.7      46.7237      46.7237      46.7237 
  215000    93.808871    -11200.47   -10317.131   -1080.0298     102002.7      46.7237      46.7237      46.7237 
  216000    92.565311   -11206.802   -10335.172   -920.80124     102002.7      46.7237      46.7237      46.7237 
  217000    91.197878   -11195.069   -10336.315    -730.1564     102002.7      46.7237      46.7237      46.7237 
  218000    90.037356   -11178.571   -10330.745   -743.07599     102002.7      46.7237      46.7237      46.7237 
  219000    90.149281   -11232.124   -10383.244   -931.49045     102002.7      46.7237      46.7237      46.7237 
  220000    92.598767   -11222.037   -10350.091   -700.53504     102002.7      46.7237      46.7237      46.7237 
  221000    91.124706   -11212.536   -10354.471   -875.59934     102002.7      46.7237      46.7237      46.7237 
  222000    90.908028   -11204.551   -10348.527   -693.01312     102002.7      46.7237      46.7237      46.7237 
  223000    92.674122   -11208.877   -10336.222   -726.71346     102002.7      46.7237      46.7237      46.7237 
  224000    89.471709   -11216.369   -10373.869   -881.07094     102002.7      46.7237      46.7237      46.7237 
  225000    92.307212   -11210.317   -10341.117    -684.1553     102002.7      46.7237      46.7237      46.7237 
  226000    91.210414    -11203.65   -10344.778   -772.55708     102002.7      46.7237      46.7237      46.7237 
  227000    89.953233   -11204.261   -10357.227   -738.36364     102002.7      46.7237      46.7237      46.7237 
  228000    90.628445       -11208   -10354.608   -787.22965     102002.7      46.7237      46.7237      46.7237 
  229000    90.187633   -11212.443   -10363.202   -945.88361     102002.7      46.7237      46.7237      46.7237 
  230000    91.504745   -11202.046   -10340.403   -540.43464     102002.7      46.7237      46.7237      46.7237 
  231000     92.82772   -11225.088   -10350.987   -833.52278     102002.7      46.7237      46.7237      46.7237 
  232000    91.212678   -11197.865   -10338.971   -825.94621     102002.7      46.7237      46.7237      46.7237 
  233000    90.016797   -11198.419   -10350.786   -892.10314     102002.7      46.7237      46.7237      46.7237 
  234000    90.540627   -11201.762   -10349.197   -842.66344     102002.7      46.7237      46.7237      46.7237 
  235000    93.961659   -11188.076   -10303.297   -587.03698     102002.7      46.7237      46.7237      46.7237 
  236000    92.261369   -11212.827   -10344.059   -704.17487     102002.7      46.7237      46.7237      46.7237 
  237000    89.970166   -11196.307   -10349.114   -634.26055     102002.7      46.7237      46.7237      46.7237 
  238000    90.715679   -11201.382   -10347.169   -890.66572     102002.7      46.7237      46.7237      46.7237 
  239000     88.46885   -11208.643   -10375.586   -610.05954     102002.7      46.7237      46.7237      46.7237 
  240000    90.187887   -11204.611   -10355.368   -634.49387     102002.7      46.7237      46.7237      46.7237 
  241000    91.071317   -11188.896   -10331.334   -765.07103     102002.7      46.7237      46.7237      46.7237 
  242000    93.527022    -11200.71   -10320.024   -604.91191     102002.7      46.7237      46.7237      46.7237 
  243000    90.472508   -11213.781   -10361.858   -848.22751     102002.7      46.7237      46.7237      46.7237 
  244000    91.191824   -11200.045   -10341.348   -610.88829     102002.7      46.7237      46.7237      46.7237 
  245000    90.749788   -11218.644   -10364.109   -730.72721     102002.7      46.7237      46.7237      46.7237 
  246000    88.754459   -11196.779   -10361.033   -750.73652     102002.7      46.7237      46.7237      46.7237 
  247000    90.072976   -11196.259   -10348.098    -631.7101     102002.7      46.7237      46.7237      46.7237 
  248000    90.567714    -11230.67    -10377.85   -1069.5662     102002.7      46.7237      46.7237      46.7237 
  249000    92.455576   -11191.164   -10320.568   -800.03549     102002.7      46.7237      46.7237      46.7237 
  250000    90.082045   -11190.869   -10342.622   -1028.3133     102002.7      46.7237      46.7237      46.7237 
  251000    93.655267   -11211.507   -10329.613    -981.4763     102002.7      46.7237      46.7237      46.7237 
  252000    92.467905   -11213.544   -10342.831   -721.60117     102002.7      46.7237      46.7237      46.7237 
  253000    89.426724   -11184.722   -10342.646   -934.66405     102002.7      46.7237      46.7237      46.7237 
  254000     89.93127   -11198.724   -10351.897   -512.83427     102002.7      46.7237      46.7237      46.7237 
  255000    90.003601   -11213.052   -10365.544    -622.0636     102002.7      46.7237      46.7237      46.7237 
  256000    91.313698   -11195.075    -10335.23   -678.69597     102002.7      46.7237      46.7237      46.7237 
  257000    87.280295   -11195.978   -10374.114   -616.03791     102002.7      46.7237      46.7237      46.7237 
  258000    90.402542   -11212.259   -10360.994   -804.65354     102002.7      46.7237      46.7237      46.7237 
  259000    90.936746   -11207.914   -10351.619   -710.51462     102002.7      46.7237      46.7237      46.7237 
  260000    89.485313   -11200.905   -10358.278   -669.60645     102002.7      46.7237      46.7237      46.7237 
  261000    91.376545   -11202.679   -10342.243   -882.64702     102002.7      46.7237      46.7237      46.7237 
  262000    92.007427   -11200.077     -10333.7   -1034.2786     102002.7      46.7237      46.7237      46.7237 
  263000    91.637378    -11203.86   -10340.968     -949.862     102002.7      46.7237      46.7237      46.7237 
  264000    92.981019    -11195.45   -10319.905    -919.5349     102002.7      46.7237      46.7237      46.7237 
  265000    91.163024   -11204.852   -10346.427   -755.38249     102002.7      46.7237      46.7237      46.7237 
  266000    91.032044   -11234.713    -10377.52    -896.4886     102002.7      46.7237      46.7237      46.7237 
  267000    91.074036   -11207.203   -10349.615   -758.79829     102002.7      46.7237      46.7237      46.7237 
  268000    90.360908   -11218.294   -10367.421   -706.49842     102002.7      46.7237      46.7237      46.7237 
  269000    92.452062   -11198.136   -10327.572   -452.21116     102002.7      46.7237      46.7237      46.7237 
  270000     90.52308   -11221.504   -10369.104   -634.33515     102002.7      46.7237      46.7237      46.7237 
  271000      91.3271   -11195.518   -10335.547   -625.17955     102002.7      46.7237      46.7237      46.7237 
  272000    91.615597   -11206.292   -10343.605   -670.55951     102002.7      46.7237      46.7237      46.7237 
  273000     90.72152   -11232.043   -10377.775   -756.06473     102002.7      46.7237      46.7237      46.7237 
  274000    90.540865   -11207.398   -10354.831   -565.75966     102002.7      46.7237      46.7237      46.7237 
  275000     90.78282   -11180.995   -10326.149   -586.85484     102002.7      46.7237      46.7237      46.7237 
  276000      89.5242   -11197.969   -10354.975   -892.67429     102002.7      46.7237      46.7237      46.7237 
  277000    89.415466   -11224.183   -10382.213    -839.4904     102002.7      46.7237      46.7237      46.7237 
  278000    90.323627   -11184.188   -10333.667    -853.1315     102002.7      46.7237      46.7237      46.7237 
  279000    92.751741   -11195.246    -10321.86   -832.27239     102002.7      46.7237      46.7237      46.7237 
  280000    94.044625   -11217.997   -10332.437   -914.20713     102002.7      46.7237      46.7237      46.7237 
  281000     91.04091   -11227.078   -10369.803   -963.12532     102002.7      46.7237      46.7237      46.7237 
  282000    87.910642   -11206.861   -10379.061   -767.42082     102002.7      46.7237      46.7237      46.7237 
  283000    90.465727   -11213.122   -10361.262   -501.41298     102002.7      46.7237      46.7237      46.7237 
  284000    92.027338   -11204.227   -10337.662   -758.37995     102002.7      46.7237      46.7237      46.7237 
  285000    93.147628   -11211.276   -10334.163   -475.15527     102002.7      46.7237      46.7237      46.7237 
  286000    89.766086    -11213.89   -10368.618   -673.30849     102002.7      46.7237      46.7237      46.7237 
  287000    91.344083   -11200.985   -10340.854   -504.04213     102002.7      46.7237      46.7237      46.7237 
  288000    92.046526   -11188.969   -10322.224   -719.22584     102002.7      46.7237      46.7237      46.7237 
  289000     91.20727   -11192.739   -10333.897    -731.8658     102002.7      46.7237      46.7237      46.7237 
  290000    92.637373   -11200.745   -10328.436   -951.70142     102002.7      46.7237      46.7237      46.7237 
  291000    90.506722   -11219.143   -10366.898   -596.08036     102002.7      46.7237      46.7237      46.7237 
  292000    89.015579   -11191.419   -10353.215   -697.94312     102002.7      46.7237      46.7237      46.7237 
  293000    90.321745   -11192.522   -10342.018   -772.82914     102002.7      46.7237      46.7237      46.7237 
  294000    92.755282   -11205.724   -10332.305   -889.06605     102002.7      46.7237      46.7237      46.7237 
  295000      90.9626   -11218.038     -10361.5   -1012.6732     102002.7      46.7237      46.7237      46.7237 
  296000    91.239199   -11224.697   -10365.554   -854.00707     102002.7      46.7237      46.7237      46.7237 
  297000    90.375108   -11201.407   -10350.401   -726.80394     102002.7      46.7237      46.7237      46.7237 
  298000    91.116944   -11211.948   -10353.956   -617.03018     102002.7      46.7237      46.7237      46.7237 
  299000    92.136538   -11197.598   -10330.005   -579.34794     102002.7      46.7237      46.7237      46.7237 
  300000    90.546857   -11208.715   -10356.092   -645.51924     102002.7      46.7237      46.7237      46.7237 
  301000     92.22459   -11214.668   -10346.246   -840.44502     102002.7      46.7237      46.7237      46.7237 
  302000     90.61534   -11193.443   -10340.175   -613.34568     102002.7      46.7237      46.7237      46.7237 
  303000      90.3838   -11222.935   -10371.847   -943.73706     102002.7      46.7237      46.7237      46.7237 
  304000    91.473956   -11203.949   -10342.596    -835.3833     102002.7      46.7237      46.7237      46.7237 
  305000    93.872619   -11196.279   -10312.339   -729.78097     102002.7      46.7237      46.7237      46.7237 
  306000    91.289365   -11205.057   -10345.441   -963.83332     102002.7      46.7237      46.7237      46.7237 
  307000    91.688721    -11215.85   -10352.474   -646.99043     102002.7      46.7237      46.7237      46.7237 
  308000     92.62878   -11201.215   -10328.987   -679.92717     102002.7      46.7237      46.7237      46.7237 
  309000    89.850047   -11224.898   -10378.836   -1086.1108     102002.7      46.7237      46.7237      46.7237 
  310000    89.249559   -11199.249   -10358.841   -680.85351     102002.7      46.7237      46.7237      46.7237 
  311000     92.61407   -11217.182   -10345.093   -879.07799     102002.7      46.7237      46.7237      46.7237 
  312000    89.984253       -11215   -10367.674   -789.71845     102002.7      46.7237      46.7237      46.7237 
  313000    90.244223   -11180.575   -10330.801   -419.06514     102002.7      46.7237      46.7237      46.7237 
  314000    89.978181   -11197.763   -10350.494    -751.8831     102002.7      46.7237      46.7237      46.7237 
  315000    89.650657   -11202.465    -10358.28   -854.42818     102002.7      46.7237      46.7237      46.7237 
  316000    91.801757   -11212.954   -10348.514   -641.69175     102002.7      46.7237      46.7237      46.7237 
  317000    90.773115   -11182.552   -10327.798   -881.93924     102002.7      46.7237      46.7237      46.7237 
  318000    89.345897   -11208.177   -10366.862   -704.85833     102002.7      46.7237      46.7237      46.7237 
  319000    88.265987   -11186.692   -10355.546   -627.49165     102002.7      46.7237      46.7237      46.7237 
  320000    92.486643   -11215.616   -10344.727   -769.61232     102002.7      46.7237      46.7237      46.7237 
  321000     91.08268   -11205.122   -10347.453   -564.55246     102002.7      46.7237      46.7237      46.7237 
  322000    92.168981   -11194.872   -10326.974   -738.84508     102002.7      46.7237      46.7237      46.7237 
  323000    91.928561   -11214.579   -10348.945   -796.05213     102002.7      46.7237      46.7237      46.7237 
  324000    90.507998   -11202.459   -10350.201   -465.54121     102002.7      46.7237      46.7237      46.7237 
  325000    92.764858   -11199.675   -10326.166     -658.445     102002.7      46.7237      46.7237      46.7237 
  326000    92.526491   -11201.649   -10330.384   -576.68874     102002.7      46.7237      46.7237      46.7237 
  327000    91.256919   -11203.071   -10343.762   -476.15866     102002.7      46.7237      46.7237      46.7237 
  328000    89.689166   -11227.728   -10383.181   -723.15829     102002.7      46.7237      46.7237      46.7237 
  329000    91.257361   -11217.122   -10357.808   -528.18694     102002.7      46.7237      46.7237      46.7237 
  330000    91.755171   -11205.343   -10341.341   -592.59042     102002.7      46.7237      46.7237      46.7237 
  331000    88.247596   -11205.642   -10374.669   -709.32794     102002.7      46.7237      46.7237      46.7237 
  332000    92.543496    -11213.71   -10342.285   -817.82077     102002.7      46.7237      46.7237      46.7237 
  333000    89.313118   -11198.764   -10357.758   -1024.7214     102002.7      46.7237      46.7237      46.7237 
  334000    90.107686    -11183.97   -10335.482   -696.96328     102002.7      46.7237      46.7237      46.7237 
  335000    91.142423     -11219.2   -10360.969   -640.23822     102002.7      46.7237      46.7237      46.7237 
  336000    89.805919   -11221.414   -10375.767   -915.14496     102002.7      46.7237      46.7237      46.7237 
  337000    90.770243   -11185.975   -10331.248   -517.65563     102002.7      46.7237      46.7237      46.7237 
  338000    90.988174   -11194.068   -10337.289   -473.01466     102002.7      46.7237      46.7237      46.7237 
  339000    90.191772    -11199.85   -10350.571   -817.52528     102002.7      46.7237      46.7237      46.7237 
  340000    90.512931   -11211.515   -10359.211    -834.9717     102002.7      46.7237      46.7237      46.7237 
  341000    90.440447   -11212.878   -10361.257   -519.18024     102002.7      46.7237      46.7237      46.7237 
  342000    96.011826   -11185.859   -10281.775   -797.87247     102002.7      46.7237      46.7237      46.7237 
  343000     91.54069   -11205.828   -10343.846   -812.39768     102002.7      46.7237      46.7237      46.7237 
  344000    92.047279       -11221   -10354.248   -855.96419     102002.7      46.7237      46.7237      46.7237 
  345000    93.001582   -11204.617   -10328.879   -756.61618     102002.7      46.7237      46.7237      46.7237 
  346000    90.521358   -11191.041   -10338.657   -555.57102     102002.7      46.7237      46.7237      46.7237 
  347000    91.059414   -11214.326   -10356.876   -744.61551     102002.7      46.7237      46.7237      46.7237 
  348000    89.837979   -11212.075   -10366.127    -712.3906     102002.7      46.7237      46.7237      46.7237 
  349000    89.462051   -11206.282   -10363.873   -764.46374     102002.7      46.7237      46.7237      46.7237 
  350000    90.407909   -11201.622   -10350.307   -984.99762     102002.7      46.7237      46.7237      46.7237 
  351000    91.117669   -11182.064   -10324.066   -767.95729     102002.7      46.7237      46.7237      46.7237 
  352000    90.208181   -11213.307   -10363.873   -823.57647     102002.7      46.7237      46.7237      46.7237 
  353000    90.750783   -11216.732   -10362.188   -926.10044     102002.7      46.7237      46.7237      46.7237 
  354000     90.39162    -11205.44   -10354.278   -895.06348     102002.7      46.7237      46.7237      46.7237 
  355000    89.811182   -11205.914   -10360.218   -689.72361     102002.7      46.7237      46.7237      46.7237 
  356000    91.196113   -11222.881   -10364.144   -576.84974     102002.7      46.7237      46.7237      46.7237 
  357000    91.364985   -11197.453   -10337.126   -606.61683     102002.7      46.7237      46.7237      46.7237 
  358000    91.203473   -11173.601   -10314.794   -750.92886     102002.7      46.7237      46.7237      46.7237 
  359000    90.406033   -11193.566   -10342.268   -830.23788     102002.7      46.7237      46.7237      46.7237 
  360000     93.24854   -11209.189   -10331.126   -863.33767     102002.7      46.7237      46.7237      46.7237 
  361000    90.298289   -11217.247   -10366.964   -1032.8841     102002.7      46.7237      46.7237      46.7237 
  362000    89.940771   -11198.363   -10351.446   -722.58624     102002.7      46.7237      46.7237      46.7237 
  363000    89.295118   -11209.916   -10369.079   -727.33414     102002.7      46.7237      46.7237      46.7237 
  364000    90.641571   -11214.928   -10361.413   -553.70825     102002.7      46.7237      46.7237      46.7237 
  365000    89.585551    -11182.55   -10338.978   -464.04119     102002.7      46.7237      46.7237      46.7237 
  366000    90.201933     -11230.1   -10380.724   -632.61326     102002.7      46.7237      46.7237      46.7237 
  367000    89.848465   -11212.431   -10366.383   -736.78517     102002.7      46.7237      46.7237      46.7237 
  368000    92.703305   -11210.611   -10337.681   -526.97109     102002.7      46.7237      46.7237      46.7237 
  369000    91.537694   -11188.172   -10326.218    -933.7696     102002.7      46.7237      46.7237      46.7237 
  370000     91.88248   -11230.002   -10364.802   -500.66446     102002.7      46.7237      46.7237      46.7237 
  371000     89.69039   -11209.848    -10365.29   -746.95609     102002.7      46.7237      46.7237      46.7237 
  372000    89.820157   -11211.184   -10365.403   -897.37357     102002.7      46.7237      46.7237      46.7237 
  373000    93.203275   -11197.182   -10319.545   -635.29639     102002.7      46.7237      46.7237      46.7237 
  374000    91.284761   -11200.141   -10340.569   -878.98043     102002.7      46.7237      46.7237      46.7237 
  375000     88.50311   -11210.337   -10376.958   -872.88883     102002.7      46.7237      46.7237      46.7237 
  376000    91.230921    -11215.35   -10356.285   -814.33365     102002.7      46.7237      46.7237      46.7237 
  377000    91.596652   -11227.654   -10365.145   -789.11314     102002.7      46.7237      46.7237      46.7237 
  378000    90.757537   -11193.699   -10339.092    -683.5544     102002.7      46.7237      46.7237      46.7237 
  379000    92.502527   -11208.914   -10337.875   -1032.4947     102002.7      46.7237      46.7237      46.7237 
  380000     88.97434   -11203.824   -10366.008   -981.13469     102002.7      46.7237      46.7237      46.7237 
  381000    94.216902   -11229.552   -10342.369    -995.8692     102002.7      46.7237      46.7237      46.7237 
  382000    89.697996   -11204.721   -10360.091   -585.89654     102002.7      46.7237      46.7237      46.7237 
  383000    90.757856   -11211.295   -10356.684   -483.51081     102002.7      46.7237      46.7237      46.7237 
  384000    91.494588   -11208.018   -10346.471   -613.70065     102002.7      46.7237      46.7237      46.7237 
  385000    89.629328   -11217.664   -10373.681   -725.75659     102002.7      46.7237      46.7237      46.7237 
  386000    89.511203   -11194.672   -10351.801   -947.37331     102002.7      46.7237      46.7237      46.7237 
  387000    90.828401   -11220.819   -10365.544   -643.84912     102002.7      46.7237      46.7237      46.7237 
  388000    90.842549    -11193.16   -10337.753   -703.57107     102002.7      46.7237      46.7237      46.7237 
  389000    91.462045   -11206.191    -10344.95   -845.11863     102002.7      46.7237      46.7237      46.7237 
  390000    90.140815   -11209.474   -10360.674   -640.08409     102002.7      46.7237      46.7237      46.7237 
  391000    93.126828   -11195.086   -10318.169     -627.043     102002.7      46.7237      46.7237      46.7237 
  392000    90.164049   -11207.588   -10358.569   -694.61353     102002.7      46.7237      46.7237      46.7237 
  393000    91.499678   -11218.395   -10356.799   -797.20334     102002.7      46.7237      46.7237      46.7237 
  394000    92.691796   -11199.152   -10326.331   -617.41399     102002.7      46.7237      46.7237      46.7237 
  395000    95.032599   -11211.448   -10316.585   -792.62578     102002.7      46.7237      46.7237      46.7237 
  396000    90.797292   -11200.303   -10345.321   -769.79832     102002.7      46.7237      46.7237      46.7237 
  397000    88.864034   -11203.664   -10366.886   -640.71649     102002.7      46.7237      46.7237      46.7237 
  398000    90.359706   -11185.191    -10334.33    -998.6023     102002.7      46.7237      46.7237      46.7237 
  399000    92.063851   -11206.467   -10339.559   -485.95037     102002.7      46.7237      46.7237      46.7237 
  400000    88.706388   -11194.146   -10358.853   -679.68296     102002.7      46.7237      46.7237      46.7237 
  401000    89.975193   -11218.528   -10371.288   -797.44491     102002.7      46.7237      46.7237      46.7237 
  402000    90.660832   -11206.184   -10352.488     -716.609     102002.7      46.7237      46.7237      46.7237 
  403000     89.22555   -11208.209   -10368.028   -713.23191     102002.7      46.7237      46.7237      46.7237 
  404000    90.623832    -11215.29   -10361.942   -1102.9358     102002.7      46.7237      46.7237      46.7237 
  405000    89.666643   -11204.913   -10360.578   -903.21111     102002.7      46.7237      46.7237      46.7237 
  406000    91.340975    -11196.78   -10336.679   -655.69762     102002.7      46.7237      46.7237      46.7237 
  407000    90.544864   -11221.559   -10368.954   -785.76161     102002.7      46.7237      46.7237      46.7237 
  408000    92.198512   -11188.238   -10320.062   -625.78962     102002.7      46.7237      46.7237      46.7237 
  409000    86.754381   -11188.443   -10371.531   -724.20658     102002.7      46.7237      46.7237      46.7237 
  410000    90.160093   -11180.516   -10331.535   -1189.6956     102002.7      46.7237      46.7237      46.7237 
  411000    92.791665     -11211.7   -10337.939   -826.27703     102002.7      46.7237      46.7237      46.7237 
  412000    91.331253   -11194.696   -10334.686   -831.43299     102002.7      46.7237      46.7237      46.7237 
  413000     90.16141   -11190.722   -10341.728   -853.91848     102002.7      46.7237      46.7237      46.7237 
  414000    91.568205    -11208.11   -10345.869   -640.89298     102002.7      46.7237      46.7237      46.7237 
  415000     91.85903   -11194.244   -10329.265   -745.43706     102002.7      46.7237      46.7237      46.7237 
  416000    91.123808   -11213.725   -10355.668   -770.08738     102002.7      46.7237      46.7237      46.7237 
  417000    91.106101       -11211    -10353.11   -856.27867     102002.7      46.7237      46.7237      46.7237 
  418000    91.160982   -11197.353   -10338.946   -785.34746     102002.7      46.7237      46.7237      46.7237 
  419000    91.203902   -11205.601    -10346.79   -882.82674     102002.7      46.7237      46.7237      46.7237 
  420000     92.00834   -11215.052   -10348.666   -842.36315     102002.7      46.7237      46.7237      46.7237 
  421000    92.963383   -11210.171   -10334.792   -661.28424     102002.7      46.7237      46.7237      46.7237 
  422000    92.592288   -11220.185   -10348.301   -884.49196     102002.7      46.7237      46.7237      46.7237 
  423000    90.082357    -11185.34    -10337.09    -1036.704     102002.7      46.7237      46.7237      46.7237 
  424000    91.004687   -11219.247   -10362.313   -688.80438     102002.7      46.7237      46.7237      46.7237 
  425000    93.161723   -11203.961   -10326.715   -1098.9597     102002.7      46.7237      46.7237      46.7237 
  426000    90.978394   -11208.253   -10351.566   -297.10527     102002.7      46.7237      46.7237      46.7237 
  427000    91.237009   -11223.553   -10364.431   -823.18166     102002.7      46.7237      46.7237      46.7237 
  428000    91.415637   -11196.364   -10335.559   -795.66494     102002.7      46.7237      46.7237      46.7237 
  429000     90.54196   -11195.673   -10343.096   -771.63477     102002.7      46.7237      46.7237      46.7237 
  430000    90.758046   -11185.401   -10330.789   -653.74123     102002.7      46.7237      46.7237      46.7237 
  431000    90.104785    -11205.54    -10357.08   -643.88925     102002.7      46.7237      46.7237      46.7237 
  432000    89.920672   -11187.314   -10340.587   -777.58925     102002.7      46.7237      46.7237      46.7237 
  433000    89.377858   -11203.937   -10362.321   -870.22279     102002.7      46.7237      46.7237      46.7237 
  434000      92.3476   -11197.704   -10328.124   -777.28719     102002.7      46.7237      46.7237      46.7237 
  435000    93.382637   -11175.279   -10295.952   -919.84757     102002.7      46.7237      46.7237      46.7237 
  436000    90.720732   -11194.709   -10340.448   -770.41408     102002.7      46.7237      46.7237      46.7237 
  437000    89.872878   -11192.029   -10345.752   -1014.4357     102002.7      46.7237      46.7237      46.7237 
  438000    91.726285   -11218.343   -10354.613    -1091.054     102002.7      46.7237      46.7237      46.7237 
  439000     91.98956   -11206.128   -10339.919    -955.7808     102002.7      46.7237      46.7237      46.7237 
  440000    91.887365   -11195.379   -10330.132   -1136.7589     102002.7      46.7237      46.7237      46.7237 
  441000    91.422875   -11199.576   -10338.703   -499.55396     102002.7      46.7237      46.7237      46.7237 
  442000    91.554995   -11192.191   -10330.075   -915.91729     102002.7      46.7237      46.7237      46.7237 
  443000    92.155654   -11192.007   -10324.235   -761.87484     102002.7      46.7237      46.7237      46.7237 
  444000    91.631995   -11199.084   -10336.242   -579.35785     102002.7      46.7237      46.7237      46.7237 
  445000    87.292039   -11220.017   -10398.042   -828.87438     102002.7      46.7237      46.7237      46.7237 
  446000    92.435272   -11197.414   -10327.008   -592.31392     102002.7      46.7237      46.7237      46.7237 
  447000    90.292879   -11215.844   -10365.612   -516.27819     102002.7      46.7237      46.7237      46.7237 
  448000    91.093864   -11187.246   -10329.471   -793.72536     102002.7      46.7237      46.7237      46.7237 
  449000    90.796421    -11191.93   -10336.956   -748.20854     102002.7      46.7237      46.7237      46.7237 
  450000    91.854056   -11195.621   -10330.688    -740.6513     102002.7      46.7237      46.7237      46.7237 
  451000    88.955139   -11186.346   -10348.711   -900.63261     102002.7      46.7237      46.7237      46.7237 
  452000    92.091307   -11204.715   -10337.549   -868.70435     102002.7      46.7237      46.7237      46.7237 
  453000    91.969519   -11208.832   -10342.812   -642.61857     102002.7      46.7237      46.7237      46.7237 
  454000    90.837128   -11200.642   -10345.285    -789.5678     102002.7      46.7237      46.7237      46.7237 
  455000    91.426937   -11196.118   -10335.208   -664.80133     102002.7      46.7237      46.7237      46.7237 
  456000    93.728057   -11207.552   -10324.973   -561.74925     102002.7      46.7237      46.7237      46.7237 
  457000    92.243958   -11230.956   -10362.352   -946.29788     102002.7      46.7237      46.7237      46.7237 
  458000    90.512106   -11191.456   -10339.159   -745.33014     102002.7      46.7237      46.7237      46.7237 
  459000    90.917627   -11220.642   -10364.528    -724.1889     102002.7      46.7237      46.7237      46.7237 
  460000    88.673334    -11194.66   -10359.678   -780.25195     102002.7      46.7237      46.7237      46.7237 
  461000    91.354318   -11202.479   -10342.252   -769.37082     102002.7      46.7237      46.7237      46.7237 
  462000    91.899008   -11181.494   -10316.138   -757.68422     102002.7      46.7237      46.7237      46.7237 
  463000    91.939457   -11194.658   -10328.921   -759.25589     102002.7      46.7237      46.7237      46.7237 
  464000     89.89334   -11203.377   -10356.907   -731.07028     102002.7      46.7237      46.7237      46.7237 
  465000    90.556757   -11204.053   -10351.337   -794.60295     102002.7      46.7237      46.7237      46.7237 
  466000    90.357194   -11223.754   -10372.916   -722.80929     102002.7      46.7237      46.7237      46.7237 
  467000    92.456628   -11191.649   -10321.043   -727.07926     102002.7      46.7237      46.7237      46.7237 
  468000    91.252877   -11202.078   -10342.806   -849.84067     102002.7      46.7237      46.7237      46.7237 
  469000     91.25164   -11181.743   -10322.483   -863.95022     102002.7      46.7237      46.7237      46.7237 
  470000    92.040437   -11219.471   -10352.783   -628.62726     102002.7      46.7237      46.7237      46.7237 
  471000    91.976647   -11193.145   -10327.058   -735.21113     102002.7      46.7237      46.7237      46.7237 
  472000    91.507031   -11194.212   -10332.547   -1019.9206     102002.7      46.7237      46.7237      46.7237 
  473000    92.543605   -11210.798   -10339.372   -806.79859     102002.7      46.7237      46.7237      46.7237 
  474000    89.340842   -11212.941   -10371.673   -762.82777     102002.7      46.7237      46.7237      46.7237 
  475000    91.012434   -11202.665   -10345.657   -735.94631     102002.7      46.7237      46.7237      46.7237 
  476000     92.15569   -11205.195   -10337.422   -792.44008     102002.7      46.7237      46.7237      46.7237 
  477000     90.30534   -11208.293   -10357.944   -1051.5706     102002.7      46.7237      46.7237      46.7237 
  478000    90.902766   -11195.769   -10339.794   -1120.3935     102002.7      46.7237      46.7237      46.7237 
  479000    90.455855   -11218.536   -10366.769   -936.40947     102002.7      46.7237      46.7237      46.7237 
  480000    89.421514   -11183.822   -10341.796   -1273.1783     102002.7      46.7237      46.7237      46.7237 
  481000    88.921113   -11194.796   -10357.481   -1146.6719     102002.7      46.7237      46.7237      46.7237 
  482000    90.686942   -11205.082   -10351.139   -924.30497     102002.7      46.7237      46.7237      46.7237 
  483000    88.760091   -11214.091   -10378.292   -1036.2451     102002.7      46.7237      46.7237      46.7237 
  484000    91.912561   -11224.156   -10358.673    -1008.522     102002.7      46.7237      46.7237      46.7237 
  485000    90.558974   -11192.777   -10340.039   -913.51269     102002.7      46.7237      46.7237      46.7237 
  486000    92.876918   -11213.439   -10338.875   -771.82977     102002.7      46.7237      46.7237      46.7237 
  487000    89.649422   -11191.575   -10347.402   -868.16593     102002.7      46.7237      46.7237      46.7237 
  488000     90.02555   -11177.165    -10329.45   -815.16926     102002.7      46.7237      46.7237      46.7237 
  489000    90.299049   -11221.562   -10371.271   -648.13898     102002.7      46.7237      46.7237      46.7237 
  490000    91.931398   -11212.832   -10347.171   -835.55071     102002.7      46.7237      46.7237      46.7237 
  491000    92.239315   -11203.011   -10334.451   -614.78076     102002.7      46.7237      46.7237      46.7237 
  492000    90.673193   -11209.433    -10355.62   -674.58898     102002.7      46.7237      46.7237      46.7237 
  493000    91.970677   -11219.447   -10353.416   -866.00691     102002.7      46.7237      46.7237      46.7237 
  494000    91.842257   -11202.614   -10337.792    -820.2152     102002.7      46.7237      46.7237      46.7237 
  495000     90.92501   -11207.289   -10351.105   -570.21686     102002.7      46.7237      46.7237      46.7237 
  496000    90.582203   -11213.142   -10360.186   -609.05742     102002.7      46.7237      46.7237      46.7237 
  497000     91.91163   -11215.664   -10350.189   -589.14025     102002.7      46.7237      46.7237      46.7237 
  498000    90.345853   -11226.638   -10375.907   -838.91521     102002.7      46.7237      46.7237      46.7237 
  499000     89.95797    -11200.64   -10353.562   -888.60013     102002.7      46.7237      46.7237      46.7237 
  500000    90.617524   -11192.908    -10339.62   -1010.4143     102002.7      46.7237      46.7237      46.7237 
  500500    91.629803   -11192.255   -10329.434   -861.05228     102002.7      46.7237      46.7237      46.7237 
Loop time of 1966.59 on 16 procs for 500000 steps with 3160 atoms

Performance: 21.967 ns/day, 1.093 hours/ns, 254.247 timesteps/s
99.8% CPU use with 16 MPI tasks x no OpenMP threads

MPI task timing breakdown:
Section |  min time  |  avg time  |  max time  |%varavg| %total
---------------------------------------------------------------
Pair    | 808.18     | 1142.5     | 1538.5     | 715.5 | 58.10
Bond    | 118.87     | 174.68     | 222.8      | 238.2 |  8.88
Neigh   | 14.819     | 14.86      | 14.903     |   0.6 |  0.76
Comm    | 173.78     | 616.36     | 997.71     |1090.0 | 31.34
Output  | 0.02123    | 0.021969   | 0.025702   |   0.7 |  0.00
Modify  | 9.2017     | 11.212     | 13.334     |  44.8 |  0.57
Other   |            | 6.957      |            |       |  0.35

Nlocal:    197.5 ave 231 max 170 min
Histogram: 2 3 1 0 4 1 2 1 1 1
Nghost:    3997.75 ave 4027 max 3968 min
Histogram: 1 2 1 3 3 0 0 2 2 2
Neighs:    11463.3 ave 17273 max 6906 min
Histogram: 2 4 1 1 0 2 3 1 0 2

Total # of neighbors = 183413
Ave neighs/atom = 58.0421
Ave special neighs/atom = 3.64557
Neighbor list builds = 4221
Dangerous builds = 0
Neighbor list info ...
  update every 1 steps, delay 10 steps, check yes
  max neighbors/atom: 2000, page size: 100000
  master list distance cutoff = 16
  ghost atom cutoff = 16
  binsize = 8, bins = 6 6 6
  3 neighbor lists, perpetual/occasional/extra = 3 0 0
  (1) pair buck6d/coul/gauss/dsf, perpetual, skip from (3)
      attributes: half, newton on
      pair build: skip
      stencil: none
      bin: none
  (2) pair lj/cut, perpetual, skip from (3)
      attributes: half, newton on
      pair build: skip
      stencil: none
      bin: none
  (3) neighbor class addition, perpetual
      attributes: half, newton on
      pair build: half/bin/newton
      stencil: half/bin/3d/newton
      bin: standard
Setting up Verlet run ...
  Unit style    : real
  Current step  : 500500
  Time step     : 1
WARNING: Inconsistent image flags (../domain.cpp:786)
Per MPI rank memory allocation (min/avg/max) = 22.78 | 23.17 | 23.43 Mbytes
Step Time TotEng KinEng PotEng E_mol E_pair Temp Pxx Pyy Pzz Pxy Pxz Pyz Cella Cellb Cellc CellAlpha CellBeta CellGamma Volume Press 
  500500       500000   -10329.434    862.82095   -11192.255    4182.0087   -15374.263    91.629803    -1145.306   -990.53431   -447.31652     65.15604   -337.59673     37.47207      46.7237      46.7237      46.7237           90           90           90     102002.7   -861.05228 
  501000       500500    -10394.29    835.55884   -11229.848     4187.722   -15417.571    88.734624   -740.95473    -558.2354   -432.67164    -137.7686    -100.3115    185.19351      46.7237      46.7237      46.7237           90           90           90     102002.7   -577.28726 
  502000       501500   -10343.539    850.76223   -11194.301    4188.0691    -15382.37    90.349192   -1134.5801   -1453.0828   -357.76549    159.83299   -112.41673    195.50742      46.7237      46.7237      46.7237           90           90           90     102002.7   -981.80945 
  503000       502500   -10372.467    851.55982   -11224.026     4165.893   -15389.919    90.433895   -1239.1054    -801.2343   -463.92529    -167.2194   -14.722493   -100.32622      46.7237      46.7237      46.7237           90           90           90     102002.7   -834.75499 
  504000       503500   -10341.977     855.4079   -11197.385    4192.2922   -15389.677    90.842552   -621.63414   -943.56396   -495.94473    59.474323   -20.335072   -74.004844      46.7237      46.7237      46.7237           90           90           90     102002.7   -687.04761 
  505000       504500   -10348.511    860.35954   -11208.871    4185.2356   -15394.106    91.368407   -565.02475   -996.20948   -603.15428    -75.17409   -147.24203   -90.786191      46.7237      46.7237      46.7237           90           90           90     102002.7   -721.46284 
  506000       505500   -10360.937    859.56471   -11220.501    4186.9472   -15407.449    91.283997   -807.96672   -749.62309   -665.98403    122.34998    -46.58003   -160.27439      46.7237      46.7237      46.7237           90           90           90     102002.7   -741.19128 
  507000       506500   -10324.278    873.82991   -11198.108     4197.143   -15395.251    92.798932   -699.56198   -709.33376   -839.91928  -0.65559867   -163.66709     178.7174      46.7237      46.7237      46.7237           90           90           90     102002.7   -749.60501 
  508000       507500   -10352.098    860.18476   -11212.283    4183.7025   -15395.986    91.349845   -1029.8175   -623.14134    -291.8037   -47.247982    62.133536    29.213484      46.7237      46.7237      46.7237           90           90           90     102002.7   -648.25417 
  509000       508500   -10338.568    851.41809   -11189.986    4199.4242    -15389.41    90.418843   -626.76847    -793.3054   -1149.0149   -5.5843122    86.258344    3.5852574      46.7237      46.7237      46.7237           90           90           90     102002.7   -856.36293 
  510000       509500       -10332    865.00033   -11197.001    4196.9484   -15393.949    91.861249   -1131.8256   -1062.8421   -868.65898   -265.15397    29.078607    28.034884      46.7237      46.7237      46.7237           90           90           90     102002.7   -1021.1089 
  511000       510500   -10351.171    857.77132   -11208.943    4203.8233   -15412.766    91.093543   -1106.8393   -924.47738   -1287.6722     19.73027    72.340655     230.5333      46.7237      46.7237      46.7237           90           90           90     102002.7   -1106.3296 
  512000       511500   -10339.042    871.14548   -11210.188    4182.3756   -15392.564    92.513851    -560.7147   -953.86046   -758.81893    -34.77615    21.616737   -140.48518      46.7237      46.7237      46.7237           90           90           90     102002.7   -757.79803 
  513000       512500   -10320.693    869.61275   -11190.306    4199.0662   -15389.372    92.351078   -741.02588   -690.46963   -1237.1474   -187.92975    -142.4652    112.39679      46.7237      46.7237      46.7237           90           90           90     102002.7   -889.54763 
  514000       513500     -10349.5    856.40622   -11205.906    4179.1312   -15385.037    90.948572   -999.36751   -940.50049    -461.5813   -39.541339    79.838587     302.4016      46.7237      46.7237      46.7237           90           90           90     102002.7    -800.4831 
  515000       514500   -10342.463     840.8843   -11183.348    4206.3922    -15389.74    89.300176   -644.96527   -715.27687   -1061.1052    151.17979   -114.02142    223.40058      46.7237      46.7237      46.7237           90           90           90     102002.7   -807.11578 
  516000       515500   -10344.945    858.39952   -11203.344     4186.386    -15389.73    91.160257   -819.23122   -1211.1387   -291.24851    56.755583    32.966723   -193.07173      46.7237      46.7237      46.7237           90           90           90     102002.7   -773.87281 
  517000       516500    -10352.33    868.12541   -11220.455    4178.0893   -15398.544    92.193126   -943.21823   -969.99682   -845.96253     70.68618    -101.2371    -105.7168      46.7237      46.7237      46.7237           90           90           90     102002.7   -919.72586 
  518000       517500   -10323.573    857.86969   -11181.443     4175.818   -15357.261     91.10399   -367.28288   -665.16351   -370.20887   -256.55477    99.231711    118.65917      46.7237      46.7237      46.7237           90           90           90     102002.7   -467.55176 
  519000       518500   -10360.553    846.19042   -11206.743    4182.4895   -15389.233    89.863675    -646.2453   -1142.7542   -353.38566   -167.07096   -136.48968   -12.544078      46.7237      46.7237      46.7237           90           90           90     102002.7   -714.12839 
  520000       519500   -10321.462     873.2153   -11194.678    4195.0941   -15389.772    92.733662   -1196.0714   -1041.6483   -677.16599    16.530463    208.83452   -104.08699      46.7237      46.7237      46.7237           90           90           90     102002.7   -971.62857 
  521000       520500   -10370.012    864.73881   -11234.751    4169.7697    -15404.52    91.833476   -796.21265   -954.43567   -717.92193   -121.07364   -104.45281     9.295486      46.7237      46.7237      46.7237           90           90           90     102002.7   -822.85675 
  522000       521500   -10326.314    862.87037   -11189.185    4198.2842   -15387.469    91.635051   -1047.4118   -749.45044   -581.26053   -239.20109   -209.38397   -48.103291      46.7237      46.7237      46.7237           90           90           90     102002.7    -792.7076 
  523000       522500   -10337.191    871.27077   -11208.462    4179.9084    -15388.37    92.527156    -863.3222   -814.18369     -765.559    -242.5909    203.96448   -20.303879      46.7237      46.7237      46.7237           90           90           90     102002.7   -814.35496 
  524000       523500   -10339.096    833.34884   -11172.445    4197.3668   -15369.812    88.499926   -753.11983   -854.21841   -274.28222    112.76408    -26.64534   -269.93832      46.7237      46.7237      46.7237           90           90           90     102002.7   -627.20682 
  525000       524500   -10345.738    853.36203     -11199.1    4178.0311   -15377.131    90.625285   -916.29273   -893.61562   -701.62635    -69.93158   -198.72127   -79.452168      46.7237      46.7237      46.7237           90           90           90     102002.7   -837.17823 
  526000       525500   -10368.175    861.62404   -11229.799    4176.9094   -15406.708    91.502694   -1051.5824   -1017.6763   -518.49284    123.42159    -14.26712   -22.758266      46.7237      46.7237      46.7237           90           90           90     102002.7   -862.58384 
  527000       526500   -10360.446    864.46246   -11224.908    4166.3826   -15391.291    91.804129   -761.08249   -457.21721   -286.14411   -24.904183    71.844103   -55.222467      46.7237      46.7237      46.7237           90           90           90     102002.7   -501.48127 
  528000       527500    -10368.44    836.43086   -11204.871     4200.916   -15405.787    88.827231   -746.14087   -837.98368   -794.56676   -130.53622    68.222137       82.379      46.7237      46.7237      46.7237           90           90           90     102002.7    -792.8971 
  529000       528500   -10337.417    855.21697   -11192.634    4177.6871   -15370.321    90.822277   -730.37341   -645.08527   -603.46334        146.5    66.602178   -98.092812      46.7237      46.7237      46.7237           90           90           90     102002.7   -659.64067 
  530000       529500   -10342.393    856.09477   -11198.488    4172.4184   -15370.907    90.915497   -968.20868   -574.12223   -476.23527    82.421064    27.124247   -109.66321      46.7237      46.7237      46.7237           90           90           90     102002.7    -672.8554 
  531000       530500   -10343.732    873.80505   -11217.537    4182.2698   -15399.807    92.796292   -927.58326   -1199.5728    -841.2965   -23.891869   -39.977942   -97.502815      46.7237      46.7237      46.7237           90           90           90     102002.7   -989.48418 
  532000       531500   -10335.874    867.80308   -11203.677    4173.4393   -15377.116    92.158895   -741.78936    -1133.712    -579.5014   -15.826597    87.380472   -294.25199      46.7237      46.7237      46.7237           90           90           90     102002.7   -818.33425 
  533000       532500   -10337.196    856.11654   -11193.312    4187.8353   -15381.148    90.917809   -1149.7244   -526.78977   -682.53474   -41.674217    110.44837    28.662164      46.7237      46.7237      46.7237           90           90           90     102002.7   -786.34964 
  534000       533500   -10336.343    874.40373   -11210.746    4175.5399   -15386.286    92.859871   -707.76824   -912.60349   -559.09265    99.286404    -6.032302   -115.31816      46.7237      46.7237      46.7237           90           90           90     102002.7   -726.48813 
  535000       534500   -10340.052    859.91409   -11199.966    4192.6006   -15392.566      91.3211    -672.0305   -1049.7859   -418.17109     65.65565    -119.6239    52.065794      46.7237      46.7237      46.7237           90           90           90     102002.7   -713.32916 
  536000       535500    -10363.71    851.20575   -11214.916      4190.52   -15405.436    90.396293   -430.24834    -782.8153   -929.32616    -298.2322   -22.383367    212.96166      46.7237      46.7237      46.7237           90           90           90     102002.7   -714.12993 
  537000       536500   -10342.369    872.11545   -11214.484    4185.0531   -15399.537     92.61686    -1062.721   -705.43867   -430.56081   -206.13082   -96.239037   -179.26822      46.7237      46.7237      46.7237           90           90           90     102002.7   -732.90683 
  538000       537500   -10334.093    862.09396   -11196.186    4185.6855   -15381.872    91.552599   -1080.3091   -704.46221   -1199.9771    16.915297   -32.937759    53.549746      46.7237      46.7237      46.7237           90           90           90     102002.7   -994.91612 
  539000       538500   -10361.441    837.31012   -11198.751    4188.5823   -15387.333    88.920606   -949.83614   -760.06165   -862.02927    36.980411   -174.71227     191.6836      46.7237      46.7237      46.7237           90           90           90     102002.7   -857.30902 
  540000       539500     -10352.2     852.6215   -11204.822    4178.8435   -15383.665    90.546643   -781.96104   -764.91757   -874.51458    30.398136    55.368908     -60.6424      46.7237      46.7237      46.7237           90           90           90     102002.7   -807.13106 
  541000       540500   -10335.019    850.68139   -11185.701    4196.9166   -15382.617    90.340607   -760.08684   -917.26639   -833.83324   -59.546228   -270.59226    111.14269      46.7237      46.7237      46.7237           90           90           90     102002.7   -837.06216 
  542000       541500   -10397.086    823.95308    -11221.04    4193.3142   -15414.354    87.502115   -940.91981   -1010.2256   -894.85269   -41.989772    -129.1763    175.01961      46.7237      46.7237      46.7237           90           90           90     102002.7   -948.66603 
  543000       542500   -10348.176    850.95201   -11199.128    4197.3331   -15396.461    90.369347   -1304.7039   -979.88745   -610.57299    180.56197    69.864828   -27.822332      46.7237      46.7237      46.7237           90           90           90     102002.7   -965.05477 
  544000       543500   -10354.204    854.76317   -11208.967    4187.2696   -15396.237    90.774083   -683.27127   -788.50974   -867.36652    3.4416836   -97.833857     9.955086      46.7237      46.7237      46.7237           90           90           90     102002.7   -779.71585 
  545000       544500   -10359.777    846.77086   -11206.548    4180.5845   -15387.133    89.925317   -419.10518   -863.71273   -563.48811    53.056051   -155.32214    29.284228      46.7237      46.7237      46.7237           90           90           90     102002.7   -615.43534 
  546000       545500   -10331.613    858.34632    -11189.96    4181.0121   -15370.972    91.154607   -596.60372   -891.52436   -594.58455   -45.566349     188.0786    63.686267      46.7237      46.7237      46.7237           90           90           90     102002.7   -694.23754 
  547000       546500   -10342.513    854.20131   -11196.714    4187.4771   -15384.191    90.714415   -751.34679   -994.84499   -768.42328   -16.558669    -71.65573    183.95894      46.7237      46.7237      46.7237           90           90           90     102002.7   -838.20502 
  548000       547500   -10351.996    854.32828   -11206.324    4182.3128   -15388.637    90.727899   -634.37597   -650.13863   -635.06572   -24.997168   -64.594598   -91.318909      46.7237      46.7237      46.7237           90           90           90     102002.7   -639.86011 
  549000       548500   -10354.139    854.17082    -11208.31    4193.1228   -15401.432    90.711177   -739.93391   -907.40666   -792.26451   -45.270913    121.85319    38.648678      46.7237      46.7237      46.7237           90           90           90     102002.7   -813.20169 
  550000       549500   -10324.598    871.53197    -11196.13    4201.9299    -15398.06    92.554896   -724.76012    -660.1167   -770.77279   -99.297772    182.45239   -193.81603      46.7237      46.7237      46.7237           90           90           90     102002.7   -718.54987 
  551000       550500   -10302.972    885.07581   -11188.048    4216.1711   -15404.219    93.993223   -755.75646   -643.73487     -694.557    -2.178991    263.75986    212.79872      46.7237      46.7237      46.7237           90           90           90     102002.7   -698.01611 
  552000       551500    -10340.79    865.25156   -11206.041    4184.8133   -15390.855    91.887929    -639.4391   -762.85845    -967.1508    75.182094   -79.294069   -20.279216      46.7237      46.7237      46.7237           90           90           90     102002.7   -789.81612 
  553000       552500   -10360.194    835.45249   -11195.647    4188.7403   -15384.387    88.723329   -1080.3296    -646.5169   -694.55197    120.56205   -83.289019    -32.73239      46.7237      46.7237      46.7237           90           90           90     102002.7   -807.13281 
  554000       553500   -10330.494    871.26698   -11201.761    4189.7565   -15391.517    92.526754   -799.01739   -999.56339   -788.29906   -22.823582    -24.21832    -92.88961      46.7237      46.7237      46.7237           90           90           90     102002.7   -862.29328 
  555000       554500   -10339.793    850.02368   -11189.817    4191.1753   -15380.992    90.270759   -1080.1713   -731.21865   -607.82511    62.450174    22.266027    121.74863      46.7237      46.7237      46.7237           90           90           90     102002.7   -806.40502 
[...]
  936000       935500   -10334.833    873.36648   -11208.199    4194.5079   -15402.707    92.749717   -716.89321     -1024.78   -768.53748    -114.9188    106.37526    71.749819      46.7237      46.7237      46.7237           90           90           90     102002.7   -836.73691 
  937000       936500     -10341.8    869.12977   -11210.929    4190.5723   -15401.502    92.299787   -1047.6972   -639.49109   -873.58011    21.030851    22.162613    278.44346      46.7237      46.7237      46.7237           90           90           90     102002.7   -853.58945 
  938000       937500   -10373.037    843.94278    -11216.98    4164.3416   -15381.321     89.62498   -1173.2475   -459.73333   -476.46058   -106.82879    85.254731     24.39446      46.7237      46.7237      46.7237           90           90           90     102002.7   -703.14713 
  939000       938500   -10357.014    861.34031   -11218.354    4183.1215   -15401.476    91.472563    -1112.542   -1144.7223   -608.63723    57.403368   -109.42939   -72.398677      46.7237      46.7237      46.7237           90           90           90     102002.7   -955.30049 
  940000       939500   -10363.342    844.46095   -11207.803    4187.0339   -15394.836    89.680009    -899.0145   -989.88983   -874.47604    141.67272    31.713171    86.404946      46.7237      46.7237      46.7237           90           90           90     102002.7   -921.12679 
  941000       940500   -10383.569    821.07688   -11204.646     4177.188   -15381.834    87.196669   -1210.7332   -1071.3593   -987.93579    -70.00654   -58.316717    90.646773      46.7237      46.7237      46.7237           90           90           90     102002.7   -1090.0094 
  942000       941500   -10341.427    859.92019   -11201.347    4180.9768   -15382.324    91.321749    -1069.019   -1106.2733   -798.30231   -186.24927    115.15458    49.860858      46.7237      46.7237      46.7237           90           90           90     102002.7    -991.1982 
  943000       942500   -10353.828    834.49095   -11188.319    4196.8416   -15385.161    88.621215   -1185.7666   -996.14694   -1083.0465    89.068055    249.75764    208.68468      46.7237      46.7237      46.7237           90           90           90     102002.7     -1088.32 
  944000       943500   -10366.991    850.39982    -11217.39    4183.1713   -15400.562    90.310705   -802.76562   -1056.6922   -1088.7244   -8.0616554    150.70829    66.640153      46.7237      46.7237      46.7237           90           90           90     102002.7    -982.7274 
  945000       944500    -10346.11    855.19792   -11201.308    4181.0947   -15382.402    90.820253   -1247.0777   -978.46862   -827.67312   -50.499334   -50.211296    54.685582      46.7237      46.7237      46.7237           90           90           90     102002.7   -1017.7398 
  946000       945500   -10360.556    854.45502   -11215.012    4200.7885     -15415.8    90.741359   -911.31879   -978.58252   -607.13594   -232.39137    124.60489    74.511561      46.7237      46.7237      46.7237           90           90           90     102002.7   -832.34575 
  947000       946500   -10374.216    854.03407    -11228.25    4161.5384   -15389.788    90.696655   -773.61583   -667.73727   -424.02114     123.9553   -26.277633   -74.935136      46.7237      46.7237      46.7237           90           90           90     102002.7   -621.79141 
  948000       947500   -10348.958    860.97011   -11209.928     4197.507   -15407.435    91.433248   -995.83981   -1178.6213   -614.20958    7.6035291   -28.100215   -102.67945      46.7237      46.7237      46.7237           90           90           90     102002.7   -929.55688 
  949000       948500   -10370.938    838.62177    -11209.56    4177.3316   -15386.891      89.0599   -1136.5301   -642.93891   -604.03899   -45.678581    44.390482    25.265041      46.7237      46.7237      46.7237           90           90           90     102002.7   -794.50267 
  950000       949500   -10368.635    849.48456   -11218.119    4173.9931   -15392.112    90.213506   -1008.7825   -828.21523   -697.66397   -69.670534    -48.12951    47.470057      46.7237      46.7237      46.7237           90           90           90     102002.7   -844.88725 
  951000       950500   -10365.631    845.73659   -11211.368    4181.7302   -15393.098    89.815479   -657.96989   -941.52965   -382.34947    -35.72791    146.43968    12.479839      46.7237      46.7237      46.7237           90           90           90     102002.7   -660.61634 
  952000       951500   -10372.014    850.91559    -11222.93    4165.3088   -15388.238    90.365479   -329.98623   -975.67847   -546.78506   -21.600286   -94.301132    10.524814      46.7237      46.7237      46.7237           90           90           90     102002.7   -617.48325 
  953000       952500   -10366.909    844.52452   -11211.434    4195.8242   -15407.258     89.68676    -863.9513   -561.39802   -488.13594   -91.792018    2.5049537   -153.46411      46.7237      46.7237      46.7237           90           90           90     102002.7   -637.82842 
  954000       953500   -10341.834     862.6508   -11204.485    4173.8301   -15378.315    91.611734   -422.94435   -584.69251   -972.95965    51.460128    60.706478     -85.3647      46.7237      46.7237      46.7237           90           90           90     102002.7   -660.19883 
  955000       954500   -10356.346    862.07526   -11218.421    4179.5169   -15397.938    91.550612   -958.75931   -1002.7509   -816.19893    242.37981   -15.403904   -26.767446      46.7237      46.7237      46.7237           90           90           90     102002.7   -925.90305 
  956000       955500   -10349.546    858.90771   -11208.453     4180.473   -15388.926    91.214225   -1204.2907   -919.05781   -966.33091    184.55183    243.16318   -206.44794      46.7237      46.7237      46.7237           90           90           90     102002.7   -1029.8932 
  957000       956500   -10359.219     854.9683   -11214.187    4189.1859   -15403.373    90.795868   -830.81239   -932.03624   -577.33649    30.925536   -125.75156   -112.00131      46.7237      46.7237      46.7237           90           90           90     102002.7   -780.06171 
  958000       957500   -10376.948    849.87562   -11226.823    4155.3673    -15382.19    90.255036   -880.16195   -880.45408   -940.03246    1.1953847    111.71773   -166.49116      46.7237      46.7237      46.7237           90           90           90     102002.7   -900.21616 
  959000       958500   -10330.051     853.3745   -11183.426    4189.3184   -15372.744     90.62661   -927.46762   -922.27646   -895.96311     81.07717    132.93217   -288.10307      46.7237      46.7237      46.7237           90           90           90     102002.7   -915.23573 
  960000       959500   -10392.375    834.09988   -11226.475    4167.6948    -15394.17    88.579685   -933.35919   -793.47986   -907.18084   -105.03616    170.75181   -160.41432      46.7237      46.7237      46.7237           90           90           90     102002.7   -878.00663 
  961000       960500   -10368.534    847.77152   -11216.305    4178.2303   -15394.535    90.031585   -663.98191   -987.29512   -716.12866   -166.80183   -149.45883   -39.170489      46.7237      46.7237      46.7237           90           90           90     102002.7   -789.13523 
  962000       961500   -10350.125    867.11706   -11217.242     4178.549   -15395.791    92.086041   -884.55328   -771.26294   -688.51566   -66.815531    70.873577    -132.9625      46.7237      46.7237      46.7237           90           90           90     102002.7   -781.44396 
  963000       962500   -10325.039    878.43878   -11203.477    4165.1235   -15368.601    93.288384   -1050.3198   -869.72501   -889.53271     109.4001    369.19302    -26.16536      46.7237      46.7237      46.7237           90           90           90     102002.7   -936.52585 
  964000       963500   -10343.284    861.05246   -11204.337    4178.0167   -15382.353    91.441994   -518.40448   -829.87339   -1021.5437   -8.3223659    -4.023764    35.371012      46.7237      46.7237      46.7237           90           90           90     102002.7   -789.94052 
  965000       964500   -10307.275    862.97929   -11170.254    4192.0145   -15362.269    91.646619    -831.6187   -624.03475    -818.5802      141.524     42.50784    -6.980774      46.7237      46.7237      46.7237           90           90           90     102002.7   -758.07788 
  966000       965500   -10350.485     853.1401   -11203.625    4175.9842    -15379.61    90.601717   -613.64692   -547.41572   -684.51132    67.486229   -61.801552    31.336057      46.7237      46.7237      46.7237           90           90           90     102002.7   -615.19132 
  967000       966500   -10346.826    841.37097   -11188.197    4179.8329    -15368.03    89.351859   -513.31581   -984.47126   -1037.9426    177.81224   -161.60062    119.70517      46.7237      46.7237      46.7237           90           90           90     102002.7   -845.24321 
  968000       967500   -10332.662    860.50333   -11193.165    4182.7946    -15375.96    91.383677   -481.41198   -749.57501   -723.02434   -42.480595    33.441634    106.68011      46.7237      46.7237      46.7237           90           90           90     102002.7   -651.33711 
  969000       968500   -10351.907    863.55282    -11215.46    4178.2634   -15393.724    91.707527   -867.84154   -1221.1106   -875.16039   -164.12164    132.80777   -119.92483      46.7237      46.7237      46.7237           90           90           90     102002.7   -988.03752 
  970000       969500   -10380.337     834.9531    -11215.29    4163.5514   -15378.842    88.670296   -730.67695   -440.80572   -672.00839    -91.95574    215.54108    62.808053      46.7237      46.7237      46.7237           90           90           90     102002.7   -614.49702 
  971000       970500   -10332.957    848.88426   -11181.841    4181.2161   -15363.057    90.149755   -865.89705   -762.20403   -643.70794   -62.632866    76.690955    43.587656      46.7237      46.7237      46.7237           90           90           90     102002.7   -757.26967 
  972000       971500   -10282.689    883.85993   -11166.549    4212.4795   -15379.028      93.8641   -553.77548   -992.32522   -858.94013    -76.81754   -29.461858   -82.605778      46.7237      46.7237      46.7237           90           90           90     102002.7   -801.68028 
  973000       972500   -10342.259    852.24097     -11194.5    4183.2398    -15377.74    90.506231   -483.58846   -627.85634   -781.06653    198.24678   -113.61066    36.401832      46.7237      46.7237      46.7237           90           90           90     102002.7   -630.83711 
  974000       973500   -10319.829    856.87377   -11176.703    4192.4437   -15369.146    90.998225   -1003.5156   -736.82837   -1094.0942    127.08238    173.19787   -102.01709      46.7237      46.7237      46.7237           90           90           90     102002.7   -944.81274 
  975000       974500   -10364.854     846.8623   -11211.716    4176.3273   -15388.043    89.935028   -518.56105   -885.64404   -794.69512     206.5242   -45.489606    64.744148      46.7237      46.7237      46.7237           90           90           90     102002.7   -732.96674 
  976000       975500   -10362.155    840.08834   -11202.244    4203.6257   -15405.869    89.215647   -565.11009   -1035.6703   -942.66115     -143.037    18.246354    192.00723      46.7237      46.7237      46.7237           90           90           90     102002.7   -847.81386 
  977000       976500   -10357.966    842.00124   -11199.967    4179.0402   -15379.007    89.418793   -514.65738   -1291.2791   -197.36058    96.595091    238.30743    34.870513      46.7237      46.7237      46.7237           90           90           90     102002.7    -667.7657 
  978000       977500   -10290.521    875.67595   -11166.197    4190.3938   -15356.591    92.994978    -422.1603   -490.04621   -350.30156   -71.780031    101.66786   -167.94928      46.7237      46.7237      46.7237           90           90           90     102002.7   -420.83602 
  979000       978500    -10363.21    848.84402   -11212.054    4182.2639   -15394.318    90.145482   -996.99267   -780.54683   -820.34845    74.142497   -16.714913    64.877415      46.7237      46.7237      46.7237           90           90           90     102002.7   -865.96265 
  980000       979500   -10331.236    854.49577   -11185.732    4202.1043   -15387.836    90.745686   -550.19883   -892.16826   -601.87923    137.74122     -156.597    164.41466      46.7237      46.7237      46.7237           90           90           90     102002.7   -681.41544 
  981000       980500    -10342.59    860.35455   -11202.944     4198.317   -15401.261    91.367876   -822.39087   -1191.9944   -449.33855   -75.011069    18.481998    122.16992      46.7237      46.7237      46.7237           90           90           90     102002.7   -821.24127 
  982000       981500   -10341.586    866.52607   -11208.112    4201.9439   -15410.056     92.02328   -484.77173   -1102.5985   -443.74527    136.87245    20.990114    57.817951      46.7237      46.7237      46.7237           90           90           90     102002.7   -677.03851 
  983000       982500   -10350.142    854.42432   -11204.567    4180.3982   -15384.965    90.738099    -754.5689   -568.80245   -471.83915   -16.154005    -17.81987   -92.207513      46.7237      46.7237      46.7237           90           90           90     102002.7    -598.4035 
  984000       983500   -10353.173    854.58847   -11207.762     4177.535   -15385.297    90.755531   -470.72028   -351.71912   -703.10176   -83.434791   -141.96908   -79.737954      46.7237      46.7237      46.7237           90           90           90     102002.7   -508.51372 
  985000       984500   -10337.752    853.31673   -11191.068    4196.3723   -15387.441    90.620475   -613.75952   -1023.3286   -45.734725    54.453211   -107.97079   -62.513955      46.7237      46.7237      46.7237           90           90           90     102002.7   -560.94094 
  986000       985500   -10350.991     847.1593   -11198.151    4186.5069   -15384.658    89.966568   -385.91937   -472.15133   -518.03479   -15.225805   -20.918801   -56.223677      46.7237      46.7237      46.7237           90           90           90     102002.7   -458.70183 
  987000       986500    -10362.17    851.37366   -11213.544    4193.7721   -15407.316    90.414125   -326.43205   -719.95911    -669.3931    227.33514     118.3622    49.471175      46.7237      46.7237      46.7237           90           90           90     102002.7   -571.92809 
  988000       987500   -10339.727     851.0148   -11190.741    4192.2104   -15382.952    90.376014   -207.61308   -1285.0332   -660.32948    161.31891    331.20988    209.02651      46.7237      46.7237      46.7237           90           90           90     102002.7   -717.65859 
  989000       988500   -10362.227    871.84297    -11234.07    4171.1641   -15405.234    92.587923    -1013.979    -1097.932   -900.55102    138.86389    -85.09162    109.12759      46.7237      46.7237      46.7237           90           90           90     102002.7    -1004.154 
  990000       989500   -10365.219    853.21003   -11218.429    4192.0993   -15410.528    90.609144   -556.02088   -709.06228    -719.2495     194.4071    21.842947   -140.73301      46.7237      46.7237      46.7237           90           90           90     102002.7   -661.44422 
  991000       990500    -10351.76    862.06284   -11213.823     4178.323   -15392.146    91.549293   -751.51548   -589.00225   -494.30583   -26.065521   -236.71659   -109.22926      46.7237      46.7237      46.7237           90           90           90     102002.7   -611.60785 
  992000       991500   -10350.871    869.10701   -11219.978    4177.4585   -15397.436     92.29737   -1002.2856   -994.61418   -812.56191    82.719043   -2.3101692    78.324218      46.7237      46.7237      46.7237           90           90           90     102002.7   -936.48724 
  993000       992500   -10363.618    851.23127   -11214.849     4181.334   -15396.183    90.399003   -481.56895   -514.27659   -800.03874    52.167097    86.283182     99.82865      46.7237      46.7237      46.7237           90           90           90     102002.7   -598.62809 
  994000       993500   -10331.976    870.60001   -11202.576    4191.6964   -15394.272    92.455923   -819.01748   -508.03879   -710.24352   -10.293557   -79.359445      56.6432      46.7237      46.7237      46.7237           90           90           90     102002.7   -679.09993 
  995000       994500   -10352.928     864.4417    -11217.37    4188.1448   -15405.515    91.801923   -1000.1682   -639.47107    -576.9694    -162.3005   -131.81685     79.44907      46.7237      46.7237      46.7237           90           90           90     102002.7   -738.86955 
  996000       995500   -10360.752    874.23068   -11234.982     4171.565   -15406.547    92.841493   -736.18471   -1052.4671   -1014.0015    58.544313   -193.65039   -162.80732      46.7237      46.7237      46.7237           90           90           90     102002.7   -934.21776 
  997000       996500   -10362.119    844.15652   -11206.276    4195.0973   -15401.373    89.647679   -671.03494   -396.19011   -627.10285   -258.70586    54.773053    116.39225      46.7237      46.7237      46.7237           90           90           90     102002.7   -564.77597 
  998000       997500   -10346.119    856.91712   -11203.036    4195.3549   -15398.391    91.002828   -1130.9324   -729.60314   -921.10613   -61.789705    87.625181   -54.989121      46.7237      46.7237      46.7237           90           90           90     102002.7   -927.21391 
  999000       998500   -10330.805    861.91008   -11192.715    4205.4205   -15398.136    91.533071   -565.60042   -431.19962   -669.54283   -112.90839    18.913338   -21.189901      46.7237      46.7237      46.7237           90           90           90     102002.7   -555.44762 
 1000000       999500   -10347.563    856.58212   -11204.145    4171.4124   -15375.558    90.967253   -824.45783   -983.90695   -477.79101   -135.42297   -35.903803    17.126011      46.7237      46.7237      46.7237           90           90           90     102002.7   -762.05193 
 1000500      1000000   -10331.795    868.84421   -11200.639    4198.3924   -15399.032    92.269461   -661.30034   -527.55355   -852.85468   -35.277425    69.891551    28.897281      46.7237      46.7237      46.7237           90           90           90     102002.7   -680.56952 
Loop time of 2366.94 on 16 procs for 500000 steps with 3160 atoms

Performance: 18.251 ns/day, 1.315 hours/ns, 211.243 timesteps/s
99.8% CPU use with 16 MPI tasks x no OpenMP threads

MPI task timing breakdown:
Section |  min time  |  avg time  |  max time  |%varavg| %total
---------------------------------------------------------------
Pair    | 1034.1     | 1441.4     | 1850.5     | 691.6 | 60.90
Bond    | 136.37     | 183.99     | 226.3      | 208.0 |  7.77
Neigh   | 14.743     | 14.772     | 14.806     |   0.5 |  0.62
Comm    | 251.71     | 694.29     | 1150.5     |1095.6 | 29.33
Output  | 0.13196    | 0.13927    | 0.13988    |   0.5 |  0.01
Modify  | 23.919     | 25.431     | 26.969     |  22.2 |  1.07
Other   |            | 6.945      |            |       |  0.29

Nlocal:    197.5 ave 231 max 164 min
Histogram: 3 0 0 4 1 2 2 1 1 2
Nghost:    3998.12 ave 4047 max 3955 min
Histogram: 2 0 1 3 2 4 2 0 1 1
Neighs:    11465.7 ave 18088 max 5807 min
Histogram: 2 4 0 2 0 1 2 2 1 2

Total # of neighbors = 183451
Ave neighs/atom = 58.0541
Ave special neighs/atom = 3.64557
Neighbor list builds = 4201
Dangerous builds = 0
Total wall time: 1:12:18
