LAMMPS (30 Mar 2018)
Reading data file ...
  orthogonal box = (0 0 0) to (46.7237 46.7237 46.7237)
  2 by 2 by 4 MPI processor grid
  reading atoms ...
  2035 atoms
  scanning bonds ...
  5 = max bonds/atom
  scanning angles ...
  10 = max angles/atom
  scanning dihedrals ...
  32 = max dihedrals/atom
  scanning impropers ...
  3 = max impropers/atom
  reading bonds ...
  2064 bonds
  reading angles ...
  3696 angles
  reading dihedrals ...
  6240 dihedrals
  reading impropers ...
  1008 impropers
Finding 1-2 1-3 1-4 neighbors ...
  special bond factors lj:   0          0          0         
  special bond factors coul: 0          0          0         
  5 = max # of 1-2 neighbors
  8 = max # of 1-3 neighbors
  20 = max # of 1-4 neighbors
  19 = max # of special neighbors
Finding 1-2 1-3 1-4 neighbors ...
  special bond factors lj:   0          0          1         
  special bond factors coul: 1          1          1         
  5 = max # of 1-2 neighbors
  8 = max # of 1-3 neighbors
  19 = max # of special neighbors
WARNING: Using 'neigh_modify every 1 delay 0 check yes' setting during minimization (../min.cpp:168)
Neighbor list info ...
  update every 1 steps, delay 0 steps, check yes
  max neighbors/atom: 2000, page size: 100000
  master list distance cutoff = 16
  ghost atom cutoff = 16
  binsize = 8, bins = 6 6 6
  3 neighbor lists, perpetual/occasional/extra = 3 0 0
  (1) pair buck6d/coul/gauss/dsf, perpetual, skip from (3)
      attributes: half, newton on
      pair build: skip
      stencil: none
      bin: none
  (2) pair lj/cut, perpetual, skip from (3)
      attributes: half, newton on
      pair build: skip
      stencil: none
      bin: none
  (3) neighbor class addition, perpetual
      attributes: half, newton on
      pair build: half/bin/newton
      stencil: half/bin/3d/newton
      bin: standard
Setting up cg style minimization ...
  Unit style    : real
  Current step  : 0
WARNING: Inconsistent image flags (../domain.cpp:786)
Per MPI rank memory allocation (min/avg/max) = 22.91 | 23.37 | 23.81 Mbytes
Step Temp E_pair E_mol TotEng Press 
       0            0   -12412.267    6482.8914    -5929.376    6116.7481 
     501            0   -12563.014    3730.4378   -8832.5764   -656.70962 
Loop time of 3.03322 on 16 procs for 501 steps with 2035 atoms

99.9% CPU use with 16 MPI tasks x no OpenMP threads

Minimization stats:
  Stopping criterion = max force evaluations
  Energy initial, next-to-last, final = 
        -5929.37600286     -8832.50952518     -8832.57640918
  Force two-norm initial, final = 2575.22 11.6327
  Force max component initial, final = 151.981 2.52394
  Final line search alpha, max atom move = 0.00376154 0.00949391
  Iterations, force evaluations = 501 1000

MPI task timing breakdown:
Section |  min time  |  avg time  |  max time  |%varavg| %total
---------------------------------------------------------------
Pair    | 1.3362     | 1.8251     | 2.2232     |  21.1 | 60.17
Bond    | 0.26747    | 0.36146    | 0.46064    |   7.9 | 11.92
Neigh   | 0.024188   | 0.024348   | 0.024654   |   0.1 |  0.80
Comm    | 0.38027    | 0.78293    | 1.2989     |  32.6 | 25.81
Output  | 0          | 0          | 0          |   0.0 |  0.00
Modify  | 0          | 0          | 0          |   0.0 |  0.00
Other   |            | 0.03943    |            |       |  1.30

Nlocal:    127.188 ave 152 max 111 min
Histogram: 3 2 1 4 0 3 0 0 1 2
Nghost:    2494.06 ave 2517 max 2466 min
Histogram: 2 1 0 0 4 1 2 2 2 2
Neighs:    11455.6 ave 16254 max 6752 min
Histogram: 1 1 1 4 2 1 1 4 0 1

Total # of neighbors = 183290
Ave neighs/atom = 90.0688
Ave special neighs/atom = 5.66093
Neighbor list builds = 15
Dangerous builds = 0
Neighbor list info ...
  update every 1 steps, delay 10 steps, check yes
  max neighbors/atom: 2000, page size: 100000
  master list distance cutoff = 16
  ghost atom cutoff = 16
  binsize = 8, bins = 6 6 6
  3 neighbor lists, perpetual/occasional/extra = 3 0 0
  (1) pair buck6d/coul/gauss/dsf, perpetual, skip from (3)
      attributes: half, newton on
      pair build: skip
      stencil: none
      bin: none
  (2) pair lj/cut, perpetual, skip from (3)
      attributes: half, newton on
      pair build: skip
      stencil: none
      bin: none
  (3) neighbor class addition, perpetual
      attributes: half, newton on
      pair build: half/bin/newton
      stencil: half/bin/3d/newton
      bin: standard
Setting up Verlet run ...
  Unit style    : real
  Current step  : 501
  Time step     : 1
WARNING: Inconsistent image flags (../domain.cpp:786)
Per MPI rank memory allocation (min/avg/max) = 22.56 | 22.64 | 22.88 Mbytes
Step Temp PotEng TotEng Press Volume Lx Ly Lz 
     501          130   -8832.5764   -8044.3906   -303.48597     102002.7      46.7237      46.7237      46.7237 
    1000    113.56148   -8143.9791   -7455.4595   -540.92722     102002.7      46.7237      46.7237      46.7237 
    2000    139.12198    -8024.302   -7180.8099   -762.97327     102002.7      46.7237      46.7237      46.7237 
    3000    124.73273   -7986.2639   -7230.0133   -1123.8925     102002.7      46.7237      46.7237      46.7237 
    4000    128.03943   -7999.0736   -7222.7747   -609.40068     102002.7      46.7237      46.7237      46.7237 
    5000    133.42853   -8011.5225   -7202.5497    -776.2554     102002.7      46.7237      46.7237      46.7237 
    6000    129.43264   -7983.4531   -7198.7072   -412.27368     102002.7      46.7237      46.7237      46.7237 
    7000    133.33613   -8011.0788   -7202.6662   -374.81199     102002.7      46.7237      46.7237      46.7237 
    8000    132.29902   -7986.8617    -7184.737   -702.48933     102002.7      46.7237      46.7237      46.7237 
    9000    128.23204   -7963.4962   -7186.0295   -279.58276     102002.7      46.7237      46.7237      46.7237 
   10000    127.65841   -7983.8113   -7209.8225   -614.35709     102002.7      46.7237      46.7237      46.7237 
   11000    132.17627   -7984.1479   -7182.7674   -1037.7028     102002.7      46.7237      46.7237      46.7237 
   12000    126.22718   -7988.0259   -7222.7146   -665.42329     102002.7      46.7237      46.7237      46.7237 
   13000    131.33185   -7987.8278    -7191.567   -901.30725     102002.7      46.7237      46.7237      46.7237 
   14000    130.49223   -7971.1189   -7179.9488   -690.58302     102002.7      46.7237      46.7237      46.7237 
   15000    127.46242   -8000.1269   -7227.3263   -571.73531     102002.7      46.7237      46.7237      46.7237 
   16000     127.5722   -8003.7728   -7230.3067   -1050.4629     102002.7      46.7237      46.7237      46.7237 
   17000    129.03331   -7996.5555   -7214.2308   -770.81377     102002.7      46.7237      46.7237      46.7237 
   18000    129.69784   -7981.2322   -7194.8784   -814.83519     102002.7      46.7237      46.7237      46.7237 
   19000    125.18721   -7985.6529   -7226.6468    -805.7138     102002.7      46.7237      46.7237      46.7237 
   20000    134.76616   -7970.3434   -7153.2605   -626.83673     102002.7      46.7237      46.7237      46.7237 
   21000    133.58143   -7985.2088   -7175.3089   -985.21965     102002.7      46.7237      46.7237      46.7237 
   22000    126.99808   -7952.9893   -7183.0041   -947.66092     102002.7      46.7237      46.7237      46.7237 
   23000    127.46124   -7980.7355   -7207.9421   -910.88073     102002.7      46.7237      46.7237      46.7237 
   24000      129.471     -7971.02   -7186.0416   -792.02657     102002.7      46.7237      46.7237      46.7237 
   25000    129.55524   -7971.3901   -7185.9009   -916.35163     102002.7      46.7237      46.7237      46.7237 
   26000     133.7681   -7979.7355   -7168.7038   -707.39385     102002.7      46.7237      46.7237      46.7237 
   27000    128.94713   -7993.8285   -7212.0262    -734.7189     102002.7      46.7237      46.7237      46.7237 
   28000    131.84953   -7993.2641   -7193.8646   -733.65781     102002.7      46.7237      46.7237      46.7237 
   29000    128.76968   -7985.1403   -7204.4139   -871.97286     102002.7      46.7237      46.7237      46.7237 
   30000    128.57166   -7972.0152   -7192.4894   -557.36785     102002.7      46.7237      46.7237      46.7237 
   31000     132.3182   -8003.6686   -7201.4276   -589.16145     102002.7      46.7237      46.7237      46.7237 
   32000    130.36602   -7972.4046   -7181.9997   -712.96209     102002.7      46.7237      46.7237      46.7237 
   33000    131.72465   -7982.0857   -7183.4434   -637.00785     102002.7      46.7237      46.7237      46.7237 
   34000    129.45854   -7997.5884   -7212.6855   -603.06472     102002.7      46.7237      46.7237      46.7237 
   35000    132.14128   -7991.5539   -7190.3856   -611.10761     102002.7      46.7237      46.7237      46.7237 
   36000    132.73429   -7989.7893   -7185.0256   -627.96523     102002.7      46.7237      46.7237      46.7237 
   37000     129.2931   -7967.3815   -7183.4816   -706.84856     102002.7      46.7237      46.7237      46.7237 
   38000    129.94385   -7991.9355   -7204.0901   -604.15453     102002.7      46.7237      46.7237      46.7237 
   39000    132.05736   -7986.5341   -7185.8746   -717.17642     102002.7      46.7237      46.7237      46.7237 
   40000    128.20573   -8001.7626   -7224.4554   -517.62637     102002.7      46.7237      46.7237      46.7237 
   41000    129.32521   -8000.3131   -7216.2185   -832.01513     102002.7      46.7237      46.7237      46.7237 
   42000    131.14525   -7963.2543   -7168.1249   -706.18865     102002.7      46.7237      46.7237      46.7237 
   43000    129.75537   -7959.8556    -7173.153   -670.37931     102002.7      46.7237      46.7237      46.7237 
   44000     127.1559   -7979.8636   -7208.9215   -836.85441     102002.7      46.7237      46.7237      46.7237 
   45000    132.10105   -7972.6913   -7171.7669   -789.55426     102002.7      46.7237      46.7237      46.7237 
   46000    131.06913   -7984.1153   -7189.4474   -759.53357     102002.7      46.7237      46.7237      46.7237 
   47000    127.02616   -7998.0391   -7227.8836   -830.29725     102002.7      46.7237      46.7237      46.7237 
   48000    128.93897   -7990.8726   -7209.1197   -1038.5099     102002.7      46.7237      46.7237      46.7237 
   49000    128.36467   -7995.5949    -7217.324   -1094.2514     102002.7      46.7237      46.7237      46.7237 
   50000    131.45788    -7970.644   -7173.6191   -1013.8583     102002.7      46.7237      46.7237      46.7237 
   51000    131.33388   -7969.5783   -7173.3052   -716.75935     102002.7      46.7237      46.7237      46.7237 
   52000    128.42896   -7990.2459   -7211.5852   -1134.5645     102002.7      46.7237      46.7237      46.7237 
   53000    131.24099   -7977.6473   -7181.9375   -876.35032     102002.7      46.7237      46.7237      46.7237 
   54000     128.7541    -7979.371   -7198.7391   -618.14551     102002.7      46.7237      46.7237      46.7237 
   55000    126.92929   -7994.0248   -7224.4566   -692.14135     102002.7      46.7237      46.7237      46.7237 
   56000    130.05339   -7970.4849   -7181.9754   -930.98583     102002.7      46.7237      46.7237      46.7237 
   57000     134.8521    -7958.898   -7141.2941   -1083.0431     102002.7      46.7237      46.7237      46.7237 
   58000    127.56338   -7988.9001   -7215.4874   -834.52928     102002.7      46.7237      46.7237      46.7237 
   59000    128.75915   -7983.7952   -7203.1326     -763.264     102002.7      46.7237      46.7237      46.7237 
   60000    130.13687   -7977.7336    -7188.718   -720.86566     102002.7      46.7237      46.7237      46.7237 
   61000    126.22432   -7996.6395   -7231.3456    -705.9595     102002.7      46.7237      46.7237      46.7237 
   62000     130.5721   -7965.4247   -7173.7703   -689.67239     102002.7      46.7237      46.7237      46.7237 
   63000    131.27235   -7983.0161   -7187.1161    -712.9566     102002.7      46.7237      46.7237      46.7237 
   64000    131.72343   -8000.7163   -7202.0815   -487.41321     102002.7      46.7237      46.7237      46.7237 
   65000    131.69156   -7972.2401   -7173.7985   -869.32296     102002.7      46.7237      46.7237      46.7237 
   66000    131.48945   -7976.4688   -7179.2525   -711.79324     102002.7      46.7237      46.7237      46.7237 
   67000    124.97982   -7997.4631   -7239.7145   -754.48774     102002.7      46.7237      46.7237      46.7237 
   68000    129.02436   -7978.1319   -7195.8614   -876.80486     102002.7      46.7237      46.7237      46.7237 
   69000    129.06362   -7976.1296    -7193.621   -882.52302     102002.7      46.7237      46.7237      46.7237 
   70000    126.69872   -7974.5483    -7206.378   -291.82488     102002.7      46.7237      46.7237      46.7237 
   71000    132.27054   -7984.4947   -7182.5427   -853.28815     102002.7      46.7237      46.7237      46.7237 
   72000    124.98971   -7960.7565   -7202.9479   -727.42827     102002.7      46.7237      46.7237      46.7237 
   73000    132.83725   -7960.4116   -7155.0236   -829.12212     102002.7      46.7237      46.7237      46.7237 
   74000    129.49282   -7963.0381   -7177.9273   -667.18771     102002.7      46.7237      46.7237      46.7237 
   75000    127.89306   -7962.9625   -7187.5511   -767.43986     102002.7      46.7237      46.7237      46.7237 
   76000    125.74861    -7983.338   -7220.9282   -478.22079     102002.7      46.7237      46.7237      46.7237 
   77000    127.92179   -7973.3797    -7197.794   -482.08877     102002.7      46.7237      46.7237      46.7237 
   78000    128.85831   -8000.5399   -7219.2762   -675.34134     102002.7      46.7237      46.7237      46.7237 
   79000    129.37977   -7977.6648   -7193.2395   -1052.2329     102002.7      46.7237      46.7237      46.7237 
   80000    127.36941   -7974.3265   -7202.0899   -981.79161     102002.7      46.7237      46.7237      46.7237 
   81000    126.86738   -7974.1283   -7204.9355   -769.64467     102002.7      46.7237      46.7237      46.7237 
   82000    128.73953   -7999.9293   -7219.3856   -747.56942     102002.7      46.7237      46.7237      46.7237 
   83000    129.30034   -7985.0521   -7201.1083   -491.42116     102002.7      46.7237      46.7237      46.7237 
   84000    130.53195   -7949.9952   -7158.5842   -713.92005     102002.7      46.7237      46.7237      46.7237 
   85000    132.57779   -7995.8565   -7192.0417   -637.73026     102002.7      46.7237      46.7237      46.7237 
   86000    127.50031   -7978.0962   -7205.0659   -682.59672     102002.7      46.7237      46.7237      46.7237 
   87000    131.33738   -7964.1737   -7167.8794   -769.71033     102002.7      46.7237      46.7237      46.7237 
   88000    127.85303   -7942.5819   -7167.4131   -436.91605     102002.7      46.7237      46.7237      46.7237 
   89000    132.42332   -7989.7507   -7186.8724   -518.59081     102002.7      46.7237      46.7237      46.7237 
   90000    126.46204   -8005.7064   -7238.9712    -858.6738     102002.7      46.7237      46.7237      46.7237 
   91000    131.00328   -7979.3268   -7185.0582   -741.51977     102002.7      46.7237      46.7237      46.7237 
   92000    129.60094   -7989.3491   -7203.5828   -889.76306     102002.7      46.7237      46.7237      46.7237 
   93000     138.1726   -7972.6709    -7134.935   -601.00077     102002.7      46.7237      46.7237      46.7237 
   94000    128.83658   -7981.9806   -7200.8486    -779.8429     102002.7      46.7237      46.7237      46.7237 
   95000     129.5315   -7966.6581   -7181.3128   -413.99722     102002.7      46.7237      46.7237      46.7237 
   96000    135.97514   -7959.5338   -7135.1209     -692.609     102002.7      46.7237      46.7237      46.7237 
   97000    128.79558     -7957.83   -7176.9466   -525.70987     102002.7      46.7237      46.7237      46.7237 
   98000    131.37697   -7986.2331   -7189.6988   -632.58014     102002.7      46.7237      46.7237      46.7237 
   99000     126.6907   -7993.0708   -7224.9492   -533.33774     102002.7      46.7237      46.7237      46.7237 
  100000    129.87645   -7954.6175   -7167.1808   -793.94793     102002.7      46.7237      46.7237      46.7237 
  101000    132.43358   -7964.9966   -7162.0561   -565.82402     102002.7      46.7237      46.7237      46.7237 
  102000    128.70178   -7988.3289   -7208.0142    -785.4609     102002.7      46.7237      46.7237      46.7237 
  103000     126.5067   -7979.6467   -7212.6406   -698.07157     102002.7      46.7237      46.7237      46.7237 
  104000      128.214   -7979.9994   -7202.6421   -632.30297     102002.7      46.7237      46.7237      46.7237 
  105000    128.63545   -7954.5815    -7174.669    -691.3589     102002.7      46.7237      46.7237      46.7237 
  106000    126.83471   -7960.3741   -7191.3793   -712.05273     102002.7      46.7237      46.7237      46.7237 
  107000    128.70062   -7975.9717   -7195.6641   -740.77056     102002.7      46.7237      46.7237      46.7237 
  108000    132.03923   -7960.4569   -7159.9074   -534.63655     102002.7      46.7237      46.7237      46.7237 
  109000    128.36601   -7970.5893   -7192.3104   -834.19397     102002.7      46.7237      46.7237      46.7237 
  110000    133.21176   -7964.4277   -7156.7691   -867.88066     102002.7      46.7237      46.7237      46.7237 
  111000    132.66376   -7984.4636   -7180.1275   -858.52899     102002.7      46.7237      46.7237      46.7237 
  112000    128.65576   -7964.2506   -7184.2149   -589.08082     102002.7      46.7237      46.7237      46.7237 
  113000    132.74847   -7995.3805   -7190.5308   -639.25469     102002.7      46.7237      46.7237      46.7237 
  114000    130.73605    -7950.081   -7157.4326   -828.86233     102002.7      46.7237      46.7237      46.7237 
  115000    129.63018   -7958.8148   -7172.8712   -838.03065     102002.7      46.7237      46.7237      46.7237 
  116000    134.15757   -7966.1419   -7152.7489   -533.48767     102002.7      46.7237      46.7237      46.7237 
  117000    126.05153   -7981.9305   -7217.6842   -829.36758     102002.7      46.7237      46.7237      46.7237 
  118000    129.99129   -7958.8087   -7170.6757   -700.62811     102002.7      46.7237      46.7237      46.7237 
  119000    133.83299   -7990.3149   -7178.8897   -705.14901     102002.7      46.7237      46.7237      46.7237 
  120000    131.22104   -7978.8339    -7183.245   -436.45094     102002.7      46.7237      46.7237      46.7237 
  121000     132.9018   -7969.6733   -7163.8941   -787.02626     102002.7      46.7237      46.7237      46.7237 
  122000    129.67069   -7974.2867   -7188.0974   -836.46729     102002.7      46.7237      46.7237      46.7237 
  123000    128.48713    -7995.605   -7216.5917   -958.49371     102002.7      46.7237      46.7237      46.7237 
  124000    128.71099   -7963.7311   -7183.3606    -1096.071     102002.7      46.7237      46.7237      46.7237 
  125000    128.31328   -7963.3483   -7185.3891   -897.96109     102002.7      46.7237      46.7237      46.7237 
  126000      125.768   -7980.1705   -7217.6432   -697.82342     102002.7      46.7237      46.7237      46.7237 
  127000    129.15801   -7974.0012   -7190.9203   -723.00984     102002.7      46.7237      46.7237      46.7237 
  128000    131.65366   -7957.3728    -7159.161   -726.61423     102002.7      46.7237      46.7237      46.7237 
  129000    125.44399    -7990.549   -7229.9861   -928.39818     102002.7      46.7237      46.7237      46.7237 
  130000    133.51933    -7971.835   -7162.3116   -716.35221     102002.7      46.7237      46.7237      46.7237 
  131000    128.18434   -7982.8624   -7205.6849   -1116.8673     102002.7      46.7237      46.7237      46.7237 
  132000    127.62625   -7967.0216   -7193.2278    -856.5389     102002.7      46.7237      46.7237      46.7237 
  133000    128.67546   -7969.4129   -7189.2577   -556.57911     102002.7      46.7237      46.7237      46.7237 
  134000     129.4538   -7995.5386   -7210.6644   -533.42671     102002.7      46.7237      46.7237      46.7237 
  135000    131.83003    -7956.195   -7156.9137   -673.99745     102002.7      46.7237      46.7237      46.7237 
  136000     130.7451    -7970.793   -7178.0897   -230.39504     102002.7      46.7237      46.7237      46.7237 
  137000    128.47839   -7967.8266   -7188.8663   -380.61662     102002.7      46.7237      46.7237      46.7237 
  138000    129.22449    -7963.766    -7180.282   -507.59109     102002.7      46.7237      46.7237      46.7237 
  139000     131.3395   -8005.2439   -7208.9367   -990.43457     102002.7      46.7237      46.7237      46.7237 
  140000    131.92313   -7975.5772   -7175.7315   -789.39498     102002.7      46.7237      46.7237      46.7237 
  141000    133.09274   -7963.9282   -7156.9912   -728.01517     102002.7      46.7237      46.7237      46.7237 
  142000    129.60417   -7979.2667   -7193.4808   -1123.8487     102002.7      46.7237      46.7237      46.7237 
  143000     130.4077   -8006.0801   -7215.4225   -911.45689     102002.7      46.7237      46.7237      46.7237 
  144000    129.67459   -7967.6159   -7181.4031   -784.79657     102002.7      46.7237      46.7237      46.7237 
  145000    131.97275   -7933.0654   -7132.9188   -900.47072     102002.7      46.7237      46.7237      46.7237 
  146000    131.08151   -7959.2441   -7164.5012   -872.50698     102002.7      46.7237      46.7237      46.7237 
  147000    128.76145   -7981.4567   -7200.7802   -542.81316     102002.7      46.7237      46.7237      46.7237 
  148000    129.55882   -7974.7158   -7189.2049   -574.91362     102002.7      46.7237      46.7237      46.7237 
  149000    128.00504   -7980.0801   -7203.9897   -883.04228     102002.7      46.7237      46.7237      46.7237 
  150000    132.52169   -7980.9162   -7177.4415   -869.04781     102002.7      46.7237      46.7237      46.7237 
  151000    127.03269   -7990.1262   -7219.9311    -827.9112     102002.7      46.7237      46.7237      46.7237 
  152000    132.23812   -7974.9244    -7173.169   -231.09692     102002.7      46.7237      46.7237      46.7237 
  153000    135.48136   -7963.4621    -7142.043   -488.88374     102002.7      46.7237      46.7237      46.7237 
  154000    129.24749   -7982.6332   -7199.0099    -583.5458     102002.7      46.7237      46.7237      46.7237 
  155000    129.00618   -8009.1856   -7227.0253   -441.50146     102002.7      46.7237      46.7237      46.7237 
  156000     128.2836   -7961.7977   -7184.0184   -935.01858     102002.7      46.7237      46.7237      46.7237 
  157000    132.98267   -7949.9298   -7143.6602   -789.95401     102002.7      46.7237      46.7237      46.7237 
  158000    134.75741   -8006.0199     -7188.99   -496.20447     102002.7      46.7237      46.7237      46.7237 
  159000    132.57479    -7980.128   -7176.3314   -880.02057     102002.7      46.7237      46.7237      46.7237 
  160000    130.64209   -7954.9282   -7162.8495   -779.80932     102002.7      46.7237      46.7237      46.7237 
  161000    130.83413   -7995.3702   -7202.1271    -894.4478     102002.7      46.7237      46.7237      46.7237 
  162000    129.49834   -7974.4451   -7189.3008   -651.73349     102002.7      46.7237      46.7237      46.7237 
  163000    129.64825   -7979.0977   -7193.0445   -788.88591     102002.7      46.7237      46.7237      46.7237 
  164000    131.38139   -7964.6815   -7168.1204   -768.78073     102002.7      46.7237      46.7237      46.7237 
  165000     131.5343   -7979.2982   -7181.8099   -526.69789     102002.7      46.7237      46.7237      46.7237 
  166000    124.71856   -7970.2362   -7214.0717   -549.88188     102002.7      46.7237      46.7237      46.7237 
  167000    132.57515   -7991.4912   -7187.6924   -676.03558     102002.7      46.7237      46.7237      46.7237 
  168000    130.92437    -7968.696   -7174.9057   -715.58369     102002.7      46.7237      46.7237      46.7237 
  169000    129.35448   -7983.4486   -7199.1765    -558.0041     102002.7      46.7237      46.7237      46.7237 
  170000    131.92075   -7978.9411   -7179.1099   -849.45728     102002.7      46.7237      46.7237      46.7237 
  171000     132.8557   -7952.0635   -7146.5637    -478.5858     102002.7      46.7237      46.7237      46.7237 
  172000     127.5967   -7964.3483   -7190.7337   -662.99685     102002.7      46.7237      46.7237      46.7237 
  173000    131.97446   -8003.1016   -7202.9448   -895.68656     102002.7      46.7237      46.7237      46.7237 
  174000    133.01596   -7995.4218   -7188.9504   -574.03436     102002.7      46.7237      46.7237      46.7237 
  175000    133.19009   -7991.2528   -7183.7256   -703.76051     102002.7      46.7237      46.7237      46.7237 
  176000    127.85707   -7974.3591   -7199.1658   -535.37754     102002.7      46.7237      46.7237      46.7237 
  177000     126.7077   -7993.6214   -7225.3967   -478.16364     102002.7      46.7237      46.7237      46.7237 
  178000    131.38034   -7964.0528   -7167.4981   -648.68357     102002.7      46.7237      46.7237      46.7237 
  179000    133.54386   -7955.9748   -7146.3027   -573.58301     102002.7      46.7237      46.7237      46.7237 
  180000    133.73504   -7975.8629   -7165.0317   -899.11491     102002.7      46.7237      46.7237      46.7237 
  181000    128.97677   -7966.9606   -7184.9786   -822.79975     102002.7      46.7237      46.7237      46.7237 
  182000    127.24841    -7996.971    -7225.468    -797.2059     102002.7      46.7237      46.7237      46.7237 
  183000    134.05187    -7979.649   -7166.8968   -1230.5706     102002.7      46.7237      46.7237      46.7237 
  184000    125.62097   -7976.1755   -7214.5396     -901.573     102002.7      46.7237      46.7237      46.7237 
  185000     130.1519    -8003.144   -7214.0373   -992.43722     102002.7      46.7237      46.7237      46.7237 
  186000    131.84028    -7977.141   -7177.7977   -561.74989     102002.7      46.7237      46.7237      46.7237 
  187000    129.71455   -7970.2432   -7183.7881   -738.96338     102002.7      46.7237      46.7237      46.7237 
  188000    131.50524   -8001.8034   -7204.4913   -701.25816     102002.7      46.7237      46.7237      46.7237 
  189000    130.87769   -7986.4653   -7192.9581   -567.91238     102002.7      46.7237      46.7237      46.7237 
  190000     130.4657   -7973.8562   -7182.8469   -773.28666     102002.7      46.7237      46.7237      46.7237 
  191000     132.9877    -7966.464   -7160.1638    -490.6558     102002.7      46.7237      46.7237      46.7237 
  192000    133.42175   -8004.9094   -7195.9776   -532.21746     102002.7      46.7237      46.7237      46.7237 
  193000    127.61166   -7957.9189   -7184.2135   -369.31924     102002.7      46.7237      46.7237      46.7237 
  194000    129.29981   -7978.9527   -7195.0122   -486.05781     102002.7      46.7237      46.7237      46.7237 
  195000    127.16003   -7961.0556   -7190.0884    -481.8103     102002.7      46.7237      46.7237      46.7237 
  196000    130.83431   -7967.4922    -7174.248   -746.62782     102002.7      46.7237      46.7237      46.7237 
  197000    129.57125   -7999.5809   -7213.9946   -837.18232     102002.7      46.7237      46.7237      46.7237 
  198000    130.07705   -7997.3771   -7208.7241   -694.90695     102002.7      46.7237      46.7237      46.7237 
  199000     128.3303   -7951.9097   -7173.8472   -665.83093     102002.7      46.7237      46.7237      46.7237 
  200000    135.71541   -7995.4375   -7172.5993   -555.06091     102002.7      46.7237      46.7237      46.7237 
  201000    128.73961   -7971.6521    -7191.108   -732.00641     102002.7      46.7237      46.7237      46.7237 
  202000    131.43019   -7951.1754   -7154.3184   -643.81794     102002.7      46.7237      46.7237      46.7237 
  203000     132.7967   -7969.0608   -7163.9187   -710.33939     102002.7      46.7237      46.7237      46.7237 
  204000      130.218   -7993.0844   -7203.5768   -898.92018     102002.7      46.7237      46.7237      46.7237 
  205000    132.46294   -7977.8439   -7174.7254   -379.98539     102002.7      46.7237      46.7237      46.7237 
  206000    130.45276   -7968.6425   -7177.7116   -668.18579     102002.7      46.7237      46.7237      46.7237 
  207000    134.54241   -7955.3233   -7139.5971   -546.23373     102002.7      46.7237      46.7237      46.7237 
  208000    127.50058   -7978.2217   -7205.1898   -627.50582     102002.7      46.7237      46.7237      46.7237 
  209000    130.44735   -7975.2518   -7184.3537    -730.9154     102002.7      46.7237      46.7237      46.7237 
  210000    130.74845   -7974.0485   -7181.3249   -973.92056     102002.7      46.7237      46.7237      46.7237 
  211000    126.47663   -7967.6231   -7200.7994   -917.79069     102002.7      46.7237      46.7237      46.7237 
  212000    129.56554   -8008.0794   -7222.5277   -685.14156     102002.7      46.7237      46.7237      46.7237 
  213000    128.49676   -7973.3962   -7194.3245   -886.33864     102002.7      46.7237      46.7237      46.7237 
  214000    128.32939   -7972.7526   -7194.6956   -837.54762     102002.7      46.7237      46.7237      46.7237 
  215000    132.95065   -7954.4522   -7148.3767   -915.01638     102002.7      46.7237      46.7237      46.7237 
  216000    131.99077   -7968.8846   -7168.6288   -537.11749     102002.7      46.7237      46.7237      46.7237 
  217000    128.31961   -7961.6104   -7183.6128   -954.86438     102002.7      46.7237      46.7237      46.7237 
  218000    129.77163   -7960.9045   -7174.1033   -521.90891     102002.7      46.7237      46.7237      46.7237 
  219000    134.92409   -7955.8334    -7137.793   -784.99942     102002.7      46.7237      46.7237      46.7237 
  220000    126.49934   -7951.8597   -7184.8983   -984.56878     102002.7      46.7237      46.7237      46.7237 
  221000    128.57331   -7970.4655   -7190.9297    -944.5366     102002.7      46.7237      46.7237      46.7237 
  222000    132.64041   -7968.4411   -7164.2466   -1151.9895     102002.7      46.7237      46.7237      46.7237 
  223000    131.19924   -7977.4213   -7181.9646   -615.04445     102002.7      46.7237      46.7237      46.7237 
  224000    129.97865   -7970.7329   -7182.6766   -779.28086     102002.7      46.7237      46.7237      46.7237 
  225000    126.96017   -7962.2664   -7192.5111   -512.33502     102002.7      46.7237      46.7237      46.7237 
  226000     128.0139   -7986.4456   -7210.3015    -653.5444     102002.7      46.7237      46.7237      46.7237 
  227000    131.99261   -7960.0658   -7159.7989   -1057.9365     102002.7      46.7237      46.7237      46.7237 
  228000    129.52976   -7947.2702   -7161.9354   -818.72983     102002.7      46.7237      46.7237      46.7237 
  229000    135.52003   -7968.3783   -7146.7248   -1015.7913     102002.7      46.7237      46.7237      46.7237 
  230000    127.65129    -7972.931   -7198.9854    -954.6146     102002.7      46.7237      46.7237      46.7237 
  231000    135.89799   -7972.3214   -7148.3763   -897.93672     102002.7      46.7237      46.7237      46.7237 
  232000    127.11513   -7991.9707   -7221.2758   -539.04327     102002.7      46.7237      46.7237      46.7237 
  233000    130.04914   -7959.8421   -7171.3584   -757.44904     102002.7      46.7237      46.7237      46.7237 
  234000     126.0205   -7971.6873   -7207.6291   -722.68347     102002.7      46.7237      46.7237      46.7237 
  235000    128.82958   -7971.6312   -7190.5417   -604.09775     102002.7      46.7237      46.7237      46.7237 
  236000    131.93489   -7940.9193   -7141.0023   -560.87034     102002.7      46.7237      46.7237      46.7237 
  237000    131.06098   -7988.0298   -7193.4113    -489.5235     102002.7      46.7237      46.7237      46.7237 
  238000    129.03201   -7974.9184   -7192.6015   -811.72918     102002.7      46.7237      46.7237      46.7237 
  239000    134.29437   -7937.2715   -7123.0491    -541.2746     102002.7      46.7237      46.7237      46.7237 
  240000    127.11112   -7972.7924   -7202.1219   -919.26967     102002.7      46.7237      46.7237      46.7237 
  241000    128.46449   -8016.1908   -7237.3147   -608.31961     102002.7      46.7237      46.7237      46.7237 
  242000    127.44867   -7966.8098   -7194.0926   -1049.5042     102002.7      46.7237      46.7237      46.7237 
  243000     132.5098   -7988.8924   -7185.4898   -985.09271     102002.7      46.7237      46.7237      46.7237 
  244000     131.2173   -7955.6319   -7160.0656   -886.79841     102002.7      46.7237      46.7237      46.7237 
  245000     127.1137   -7973.1077   -7202.4214   -773.36804     102002.7      46.7237      46.7237      46.7237 
  246000    130.47569    -7977.253   -7186.1831   -875.04971     102002.7      46.7237      46.7237      46.7237 
  247000    124.51167   -7955.8627   -7200.9525   -880.07529     102002.7      46.7237      46.7237      46.7237 
  248000    132.95301   -7969.8739   -7163.7841   -611.34747     102002.7      46.7237      46.7237      46.7237 
  249000     130.9503   -7980.2198   -7186.2724   -817.98723     102002.7      46.7237      46.7237      46.7237 
  250000     129.2754   -7980.4176    -7196.625   -912.44131     102002.7      46.7237      46.7237      46.7237 
  251000    129.57319   -7986.5042   -7200.9061   -699.58913     102002.7      46.7237      46.7237      46.7237 
  252000    125.59521    -8008.067   -7246.5873    -1126.605     102002.7      46.7237      46.7237      46.7237 
  253000     131.6854   -7969.0049   -7170.6006   -908.23292     102002.7      46.7237      46.7237      46.7237 
  254000    124.04096   -7987.6352   -7235.5789   -953.87104     102002.7      46.7237      46.7237      46.7237 
  255000    131.45121   -7950.3743   -7153.3899   -748.54716     102002.7      46.7237      46.7237      46.7237 
  256000    130.51487   -7940.5774   -7149.2699   -628.69778     102002.7      46.7237      46.7237      46.7237 
  257000    126.88369   -7958.2881   -7188.9964   -1052.2651     102002.7      46.7237      46.7237      46.7237 
  258000    127.85201   -7949.2932   -7174.1306   -1022.2461     102002.7      46.7237      46.7237      46.7237 
  259000    128.96153   -7971.1646   -7189.2751   -884.63107     102002.7      46.7237      46.7237      46.7237 
  260000    130.09325   -7991.9539   -7203.2027   -778.29862     102002.7      46.7237      46.7237      46.7237 
  261000    132.03998   -7967.6358   -7167.0817   -910.43062     102002.7      46.7237      46.7237      46.7237 
  262000    128.56641   -7975.2754   -7195.7814   -776.48743     102002.7      46.7237      46.7237      46.7237 
  263000    129.53193   -7978.2867   -7192.9388   -648.01234     102002.7      46.7237      46.7237      46.7237 
  264000    129.20631    -7987.276   -7203.9024   -1019.5609     102002.7      46.7237      46.7237      46.7237 
  265000    132.15746   -7997.2203   -7195.9539     -832.842     102002.7      46.7237      46.7237      46.7237 
  266000    133.00574   -7974.4928   -7168.0833   -739.37803     102002.7      46.7237      46.7237      46.7237 
  267000    128.01298   -8009.7492   -7233.6107   -822.84812     102002.7      46.7237      46.7237      46.7237 
  268000    131.63948   -7981.7389    -7183.613   -593.71407     102002.7      46.7237      46.7237      46.7237 
  269000    128.72731   -7993.0966   -7212.6271   -934.55425     102002.7      46.7237      46.7237      46.7237 
  270000    131.36261   -8000.8099   -7204.3626   -915.82492     102002.7      46.7237      46.7237      46.7237 
  271000    130.46007   -7978.2486   -7187.2734   -901.20309     102002.7      46.7237      46.7237      46.7237 
  272000     134.0643   -7968.6257   -7155.7982   -957.60143     102002.7      46.7237      46.7237      46.7237 
  273000     130.9532   -8016.4502   -7222.4852   -641.42017     102002.7      46.7237      46.7237      46.7237 
  274000    127.94668   -7974.6796    -7198.943   -865.36258     102002.7      46.7237      46.7237      46.7237 
  275000    134.75951   -7993.7792   -7176.7366   -574.81809     102002.7      46.7237      46.7237      46.7237 
  276000    127.75749   -7989.4257   -7214.8362   -688.92761     102002.7      46.7237      46.7237      46.7237 
  277000    135.09998   -7970.8345   -7151.7276    -1117.456     102002.7      46.7237      46.7237      46.7237 
  278000    133.15629   -7980.3815   -7173.0592   -760.78652     102002.7      46.7237      46.7237      46.7237 
  279000    130.99228   -7951.9254   -7157.7234   -829.18835     102002.7      46.7237      46.7237      46.7237 
  280000    129.45613   -7976.1688   -7191.2805   -823.19532     102002.7      46.7237      46.7237      46.7237 
  281000    130.61771   -7969.3976   -7177.4667    -691.0808     102002.7      46.7237      46.7237      46.7237 
  282000      132.726   -7969.4146   -7164.7012   -724.28465     102002.7      46.7237      46.7237      46.7237 
  283000    130.57416    -7984.517   -7192.8501   -1220.5287     102002.7      46.7237      46.7237      46.7237 
  284000    129.70922   -7973.3834   -7186.9606    -440.3562     102002.7      46.7237      46.7237      46.7237 
  285000    132.14905   -7948.4734    -7147.258   -787.46682     102002.7      46.7237      46.7237      46.7237 
  286000    130.55559    -7962.395   -7170.8406    -917.7231     102002.7      46.7237      46.7237      46.7237 
  287000    132.15814   -7986.0958   -7184.8252   -864.40439     102002.7      46.7237      46.7237      46.7237 
  288000    130.39239   -7952.2239   -7161.6591   -975.50645     102002.7      46.7237      46.7237      46.7237 
  289000    130.93986   -7976.0245   -7182.1404   -806.35798     102002.7      46.7237      46.7237      46.7237 
  290000    130.67884   -7960.0886    -7167.787    -979.4391     102002.7      46.7237      46.7237      46.7237 
  291000    128.94649   -7979.2255   -7197.4271   -961.15603     102002.7      46.7237      46.7237      46.7237 
  292000    132.44112   -7951.5258   -7148.5396   -888.13051     102002.7      46.7237      46.7237      46.7237 
  293000    132.27575   -7979.1182   -7177.1345   -740.82783     102002.7      46.7237      46.7237      46.7237 
  294000    128.74777   -7971.9248   -7191.3313   -908.07714     102002.7      46.7237      46.7237      46.7237 
  295000    133.80058   -7956.5641   -7145.3355   -1155.0359     102002.7      46.7237      46.7237      46.7237 
  296000    131.03613   -7951.6879   -7157.2202   -1034.8655     102002.7      46.7237      46.7237      46.7237 
  297000    128.32966   -7970.8161   -7192.7575   -967.59731     102002.7      46.7237      46.7237      46.7237 
  298000    131.46137   -7988.5039   -7191.4579   -745.32758     102002.7      46.7237      46.7237      46.7237 
  299000    132.58175   -7964.7797   -7160.9409   -911.86053     102002.7      46.7237      46.7237      46.7237 
  300000    129.31812   -7985.0712   -7201.0196   -572.70655     102002.7      46.7237      46.7237      46.7237 
  301000    128.93867   -7971.6016   -7189.8506   -697.04185     102002.7      46.7237      46.7237      46.7237 
  302000    127.52684   -7973.8769   -7200.6858   -504.05253     102002.7      46.7237      46.7237      46.7237 
  303000    128.36153   -7984.6481   -7206.3962   -785.35803     102002.7      46.7237      46.7237      46.7237 
  304000    127.37813   -7960.9347   -7188.6453   -624.98071     102002.7      46.7237      46.7237      46.7237 
  305000    129.55095   -7967.7934   -7182.3302   -884.89794     102002.7      46.7237      46.7237      46.7237 
  306000    131.45502   -7984.5683   -7187.5608   -940.37589     102002.7      46.7237      46.7237      46.7237 
  307000    133.08704   -7978.4583   -7171.5559   -534.04845     102002.7      46.7237      46.7237      46.7237 
  308000     133.2992    -7992.022   -7183.8333   -791.32154     102002.7      46.7237      46.7237      46.7237 
  309000    128.23616   -7970.1674   -7192.6758   -707.83003     102002.7      46.7237      46.7237      46.7237 
  310000    129.68965   -7978.1376   -7191.8334    -899.0125     102002.7      46.7237      46.7237      46.7237 
  311000     132.3211   -7970.3291   -7168.0706    -756.6038     102002.7      46.7237      46.7237      46.7237 
  312000    133.91164   -7955.9157   -7144.0137   -740.77119     102002.7      46.7237      46.7237      46.7237 
  313000    129.15371   -7957.9865   -7174.9318    -1030.246     102002.7      46.7237      46.7237      46.7237 
  314000    127.28412   -7985.0495     -7213.33   -1227.0739     102002.7      46.7237      46.7237      46.7237 
  315000    127.39261    -7973.133   -7200.7558   -1037.7721     102002.7      46.7237      46.7237      46.7237 
  316000    129.00251   -7956.0443   -7173.9063    -759.8692     102002.7      46.7237      46.7237      46.7237 
  317000      129.798   -7980.8965   -7193.9355   -917.97758     102002.7      46.7237      46.7237      46.7237 
  318000    128.03974   -7986.2917   -7209.9909   -896.95087     102002.7      46.7237      46.7237      46.7237 
  319000    133.94509   -7978.6662   -7166.5614   -1303.8185     102002.7      46.7237      46.7237      46.7237 
  320000    132.78926   -7959.3229   -7154.2259   -915.31843     102002.7      46.7237      46.7237      46.7237 
  321000    131.98582   -7960.3994   -7160.1737   -983.31064     102002.7      46.7237      46.7237      46.7237 
  322000    128.62127     -7985.23   -7205.4034   -909.65748     102002.7      46.7237      46.7237      46.7237 
  323000    128.35067   -7963.0605   -7184.8745   -919.57777     102002.7      46.7237      46.7237      46.7237 
  324000    133.11213   -7977.4254   -7170.3708   -1027.0032     102002.7      46.7237      46.7237      46.7237 
  325000    130.28485   -7996.7574   -7206.8445   -768.91528     102002.7      46.7237      46.7237      46.7237 
  326000    131.19687   -7979.5867   -7184.1444   -776.13218     102002.7      46.7237      46.7237      46.7237 
  327000    134.52107   -7968.8897   -7153.2928    -1003.892     102002.7      46.7237      46.7237      46.7237 
  328000    130.36976   -7969.1064   -7178.6788    -869.4475     102002.7      46.7237      46.7237      46.7237 
  329000     127.3056   -8008.8887    -7237.039   -464.76863     102002.7      46.7237      46.7237      46.7237 
  330000    130.58557   -7965.4376   -7173.7015   -663.99356     102002.7      46.7237      46.7237      46.7237 
  331000    130.72764   -7969.8467   -7177.2492   -856.92623     102002.7      46.7237      46.7237      46.7237 
  332000    128.82665    -8004.367   -7223.2952   -918.79474     102002.7      46.7237      46.7237      46.7237 
  333000    126.37007   -7972.5307    -7206.353   -640.18998     102002.7      46.7237      46.7237      46.7237 
  334000    130.03898   -7953.9269   -7165.5047   -293.82242     102002.7      46.7237      46.7237      46.7237 
  335000    128.42557   -7957.6896   -7179.0496   -1047.9851     102002.7      46.7237      46.7237      46.7237 
  336000     126.6643   -7982.2596   -7214.2981   -420.88309     102002.7      46.7237      46.7237      46.7237 
  337000    133.10025   -7966.3258   -7159.3434   -734.00492     102002.7      46.7237      46.7237      46.7237 
  338000    125.07397   -7964.8728   -7206.5534   -879.98186     102002.7      46.7237      46.7237      46.7237 
  339000    131.34648   -7964.9054   -7168.5559   -712.39233     102002.7      46.7237      46.7237      46.7237 
  340000    129.50588   -7976.1665   -7190.9766   -616.00919     102002.7      46.7237      46.7237      46.7237 
  341000    133.46643   -7978.6316    -7169.429   -996.97237     102002.7      46.7237      46.7237      46.7237 
  342000    132.00427    -7946.318   -7145.9804   -771.16392     102002.7      46.7237      46.7237      46.7237 
  343000    128.71536   -7992.4617   -7212.0646   -376.23432     102002.7      46.7237      46.7237      46.7237 
  344000    131.75173   -7994.8576   -7196.0512   -580.13437     102002.7      46.7237      46.7237      46.7237 
  345000    129.28534   -7962.8185   -7178.9657   -709.23429     102002.7      46.7237      46.7237      46.7237 
  346000     128.8826   -7996.2606   -7214.8496   -691.65794     102002.7      46.7237      46.7237      46.7237 
  347000    132.57455    -7973.814   -7170.0188   -1038.7788     102002.7      46.7237      46.7237      46.7237 
  348000    134.87943   -7984.7646    -7166.995   -639.20856     102002.7      46.7237      46.7237      46.7237 
  349000    129.68586   -7964.0122   -7177.7311   -502.77731     102002.7      46.7237      46.7237      46.7237 
  350000    131.68755   -7975.5113   -7177.0939   -1131.7237     102002.7      46.7237      46.7237      46.7237 
  351000    132.38803   -7978.7235   -7176.0592    -830.3699     102002.7      46.7237      46.7237      46.7237 
  352000    131.26917   -8012.9706   -7217.0899   -808.19646     102002.7      46.7237      46.7237      46.7237 
  353000     132.1217   -7969.1125   -7168.0629   -660.41609     102002.7      46.7237      46.7237      46.7237 
  354000    133.26942   -7956.2538   -7148.2456   -733.89276     102002.7      46.7237      46.7237      46.7237 
  355000    131.38768   -7983.1142    -7186.515   -659.68245     102002.7      46.7237      46.7237      46.7237 
  356000    131.47394   -8020.7848   -7223.6625   -879.00658     102002.7      46.7237      46.7237      46.7237 
  357000     127.1427   -7966.6195   -7195.7574   -768.52667     102002.7      46.7237      46.7237      46.7237 
  358000    133.03582   -7984.1298   -7177.5379    -652.1952     102002.7      46.7237      46.7237      46.7237 
  359000    128.74938   -7973.5831   -7192.9798    -948.3283     102002.7      46.7237      46.7237      46.7237 
  360000    129.22124   -7992.9226   -7209.4584   -1020.2935     102002.7      46.7237      46.7237      46.7237 
  361000    127.30819   -7980.6035   -7208.7381   -734.76584     102002.7      46.7237      46.7237      46.7237 
  362000    131.94573   -7958.3007    -7158.318   -912.30844     102002.7      46.7237      46.7237      46.7237 
  363000    123.15287    -7993.726   -7247.0542   -925.00588     102002.7      46.7237      46.7237      46.7237 
  364000    129.18126   -7957.6187   -7174.3969   -1040.5493     102002.7      46.7237      46.7237      46.7237 
  365000    129.66023   -7985.3607    -7199.235   -630.44333     102002.7      46.7237      46.7237      46.7237 
  366000    131.83551    -7987.637   -7188.3225   -527.07087     102002.7      46.7237      46.7237      46.7237 
  367000    132.76849   -7991.1483   -7186.1772     -644.848     102002.7      46.7237      46.7237      46.7237 
  368000    137.46714   -7970.9672   -7137.5084   -631.96311     102002.7      46.7237      46.7237      46.7237 
  369000    132.20098   -7985.2951   -7183.7649   -535.89214     102002.7      46.7237      46.7237      46.7237 
  370000    129.29941   -7986.9925   -7203.0544   -698.92737     102002.7      46.7237      46.7237      46.7237 
  371000    129.29831   -7969.5712   -7185.6397    -860.7111     102002.7      46.7237      46.7237      46.7237 
  372000    133.22462   -7955.4883   -7147.7517   -723.57603     102002.7      46.7237      46.7237      46.7237 
  373000    129.29024   -7983.9309   -7200.0484   -811.21144     102002.7      46.7237      46.7237      46.7237 
  374000    127.97815   -7991.9851   -7216.0577   -916.72899     102002.7      46.7237      46.7237      46.7237 
  375000    127.74675   -7949.8422   -7175.3178   -548.01968     102002.7      46.7237      46.7237      46.7237 
  376000    126.36771   -7991.3242   -7225.1608   -1161.0493     102002.7      46.7237      46.7237      46.7237 
  377000     130.8388   -7990.6228   -7197.3514   -809.71055     102002.7      46.7237      46.7237      46.7237 
  378000    129.85585   -7963.2533   -7175.9415     -866.088     102002.7      46.7237      46.7237      46.7237 
  379000    133.31744   -8023.5054   -7215.2061    -651.3247     102002.7      46.7237      46.7237      46.7237 
  380000    130.95888   -7995.7526   -7201.7532   -499.52107     102002.7      46.7237      46.7237      46.7237 
  381000     128.4629   -7967.8314    -7188.965   -803.91829     102002.7      46.7237      46.7237      46.7237 
  382000    130.28257   -7972.3339   -7182.4349   -470.01874     102002.7      46.7237      46.7237      46.7237 
  383000    126.12867   -7981.2612   -7216.5472   -757.33971     102002.7      46.7237      46.7237      46.7237 
  384000    132.10107   -7978.2471   -7177.3226   -873.34244     102002.7      46.7237      46.7237      46.7237 
  385000    130.89427   -7975.9716   -7182.3638   -1021.5001     102002.7      46.7237      46.7237      46.7237 
  386000    130.11893   -7960.8822   -7171.9753   -696.91064     102002.7      46.7237      46.7237      46.7237 
  387000    132.03511   -7967.7541   -7167.2296   -585.05556     102002.7      46.7237      46.7237      46.7237 
  388000    130.70702   -7962.9638   -7170.4913   -624.42357     102002.7      46.7237      46.7237      46.7237 
  389000     127.4086   -7958.6241   -7186.1499   -593.62207     102002.7      46.7237      46.7237      46.7237 
  390000    131.00885   -7984.2762   -7189.9738   -630.98021     102002.7      46.7237      46.7237      46.7237 
  391000    128.70867   -7986.5901   -7206.2336    -513.7948     102002.7      46.7237      46.7237      46.7237 
  392000    130.36144   -7978.1783   -7187.8011    -601.8657     102002.7      46.7237      46.7237      46.7237 
  393000    128.48457   -7974.2518    -7195.254   -657.10124     102002.7      46.7237      46.7237      46.7237 
  394000    131.74709   -7993.4952   -7194.7169   -892.54414     102002.7      46.7237      46.7237      46.7237 
  395000    128.51485   -7986.2378   -7207.0564   -959.37013     102002.7      46.7237      46.7237      46.7237 
  396000    133.59085   -7988.0471   -7178.0901   -629.66516     102002.7      46.7237      46.7237      46.7237 
  397000    129.67284    -7979.992   -7193.7898   -450.33858     102002.7      46.7237      46.7237      46.7237 
  398000    133.45538   -7975.8981   -7166.7624   -441.50096     102002.7      46.7237      46.7237      46.7237 
  399000    135.26878   -7983.0383   -7162.9081   -713.32193     102002.7      46.7237      46.7237      46.7237 
  400000    128.62594   -7962.1041   -7182.2492   -941.92941     102002.7      46.7237      46.7237      46.7237 
  401000    131.22494   -7986.3726     -7190.76   -1011.5856     102002.7      46.7237      46.7237      46.7237 
  402000    129.94346   -7984.2169   -7196.3739   -743.32814     102002.7      46.7237      46.7237      46.7237 
  403000    125.58102    -7960.835   -7199.4413   -932.36728     102002.7      46.7237      46.7237      46.7237 
  404000    132.38192    -7960.737   -7158.1097   -758.39553     102002.7      46.7237      46.7237      46.7237 
  405000    128.73344   -7975.8181   -7195.3114   -752.78034     102002.7      46.7237      46.7237      46.7237 
  406000    128.73293   -7995.2382   -7214.7346   -864.34909     102002.7      46.7237      46.7237      46.7237 
  407000    129.46101   -7965.5325   -7180.6146   -881.98958     102002.7      46.7237      46.7237      46.7237 
  408000    134.08019   -8008.6758    -7195.752   -987.63199     102002.7      46.7237      46.7237      46.7237 
  409000    128.09926   -7971.4827   -7194.8211   -1040.0741     102002.7      46.7237      46.7237      46.7237 
  410000    128.52637   -7990.3845   -7211.1332   -614.46535     102002.7      46.7237      46.7237      46.7237 
  411000    130.09493   -7966.7734   -7178.0121   -534.83208     102002.7      46.7237      46.7237      46.7237 
  412000    127.43511   -7961.9677   -7189.3328   -671.05736     102002.7      46.7237      46.7237      46.7237 
  413000    126.15868   -8003.1385   -7238.2425   -878.92292     102002.7      46.7237      46.7237      46.7237 
  414000    126.85004   -7956.0059   -7186.9182   -548.45844     102002.7      46.7237      46.7237      46.7237 
  415000    127.76418   -7966.2265   -7191.5964   -853.52134     102002.7      46.7237      46.7237      46.7237 
  416000    129.31219   -7994.3353   -7210.3196   -786.80107     102002.7      46.7237      46.7237      46.7237 
  417000    129.85373   -7979.0562   -7191.7572   -582.66716     102002.7      46.7237      46.7237      46.7237 
  418000    129.72023   -7976.1694   -7189.6798   -766.17506     102002.7      46.7237      46.7237      46.7237 
  419000    128.43608   -7983.0215   -7204.3178   -752.14184     102002.7      46.7237      46.7237      46.7237 
  420000    125.24165   -7961.0952   -7201.7591   -860.16679     102002.7      46.7237      46.7237      46.7237 
  421000    129.71741   -7963.0121   -7176.5396   -993.43943     102002.7      46.7237      46.7237      46.7237 
  422000    131.79386   -7983.2361   -7184.1742   -909.19142     102002.7      46.7237      46.7237      46.7237 
  423000    134.28782   -7977.2375   -7163.0548   -826.70512     102002.7      46.7237      46.7237      46.7237 
  424000    129.09249   -7990.4005   -7207.7169   -915.91671     102002.7      46.7237      46.7237      46.7237 
  425000    128.51995   -7963.7321   -7184.5198   -507.85898     102002.7      46.7237      46.7237      46.7237 
  426000    136.59034   -7986.5155   -7158.3726   -766.97902     102002.7      46.7237      46.7237      46.7237 
  427000    129.74348   -7998.6184   -7211.9879    -758.5516     102002.7      46.7237      46.7237      46.7237 
  428000     125.2451   -7980.3925   -7221.0356   -1070.3311     102002.7      46.7237      46.7237      46.7237 
  429000    131.39872   -7964.2369   -7167.5708   -824.20092     102002.7      46.7237      46.7237      46.7237 
  430000    134.87705   -7960.8774   -7143.1223   -838.63564     102002.7      46.7237      46.7237      46.7237 
  431000    131.90233   -7981.9866    -7182.267   -832.88872     102002.7      46.7237      46.7237      46.7237 
  432000     133.2386   -7975.2442   -7167.4228   -1092.6822     102002.7      46.7237      46.7237      46.7237 
  433000    126.09093   -7977.7342   -7213.2489   -641.89131     102002.7      46.7237      46.7237      46.7237 
  434000    129.07271   -7971.8363   -7189.2727    -637.9265     102002.7      46.7237      46.7237      46.7237 
  435000    133.31825   -7969.1428   -7160.8386   -822.98703     102002.7      46.7237      46.7237      46.7237 
  436000    125.84585   -7989.5075   -7226.5081    -934.2605     102002.7      46.7237      46.7237      46.7237 
  437000    132.04866   -7960.1507    -7159.544   -809.63457     102002.7      46.7237      46.7237      46.7237 
  438000    128.27096   -7981.0811   -7203.3784   -805.95827     102002.7      46.7237      46.7237      46.7237 
  439000    126.67135   -7991.3794   -7223.3751   -809.42788     102002.7      46.7237      46.7237      46.7237 
  440000     133.3714   -7978.8095    -7170.183   -845.95749     102002.7      46.7237      46.7237      46.7237 
  441000    126.20334   -7970.4545   -7205.2877   -853.18742     102002.7      46.7237      46.7237      46.7237 
  442000    131.63626   -7982.3243   -7184.2179   -735.44861     102002.7      46.7237      46.7237      46.7237 
  443000     127.2408   -7958.1923   -7186.7354   -774.64257     102002.7      46.7237      46.7237      46.7237 
  444000    132.56496    -7960.178   -7156.4409   -875.29057     102002.7      46.7237      46.7237      46.7237 
  445000    128.39765   -7988.1511   -7209.6803   -542.68079     102002.7      46.7237      46.7237      46.7237 
  446000    128.34506   -7968.5713   -7190.4194    -943.7495     102002.7      46.7237      46.7237      46.7237 
  447000    128.62198   -7970.6163   -7190.7853   -907.88273     102002.7      46.7237      46.7237      46.7237 
  448000    126.62292   -7987.7793   -7220.0686    -1010.485     102002.7      46.7237      46.7237      46.7237 
  449000    131.66475   -7977.6745   -7179.3955   -751.09137     102002.7      46.7237      46.7237      46.7237 
  450000    133.19739    -7947.813   -7140.2415    -903.6623     102002.7      46.7237      46.7237      46.7237 
  451000    131.72332   -7971.1821   -7172.5479   -900.19189     102002.7      46.7237      46.7237      46.7237 
  452000    129.03027   -7975.9779   -7193.6715   -933.36411     102002.7      46.7237      46.7237      46.7237 
  453000    127.18574   -7964.0801    -7192.957   -768.10735     102002.7      46.7237      46.7237      46.7237 
  454000    129.72449   -7958.2515   -7171.7361   -560.58261     102002.7      46.7237      46.7237      46.7237 
  455000    128.86569   -7965.7312   -7184.4226   -979.32641     102002.7      46.7237      46.7237      46.7237 
  456000    126.94493   -7971.7615   -7202.0985   -625.75919     102002.7      46.7237      46.7237      46.7237 
  457000    130.06732   -7967.0623   -7178.4684   -923.88083     102002.7      46.7237      46.7237      46.7237 
  458000    128.26265   -7960.6331   -7182.9808   -739.40983     102002.7      46.7237      46.7237      46.7237 
  459000    127.19095   -7960.8169   -7189.6623   -607.60652     102002.7      46.7237      46.7237      46.7237 
  460000    130.61323   -7953.1223   -7161.2185   -844.80335     102002.7      46.7237      46.7237      46.7237 
  461000    129.61171   -7959.9319   -7174.1003    -684.6831     102002.7      46.7237      46.7237      46.7237 
  462000    130.02076   -7977.9888   -7189.6771   -780.21007     102002.7      46.7237      46.7237      46.7237 
  463000    131.72328   -7974.2111   -7175.5771   -1017.3758     102002.7      46.7237      46.7237      46.7237 
  464000    132.17133    -7963.146   -7161.7955   -681.94091     102002.7      46.7237      46.7237      46.7237 
  465000    132.87558   -8002.5276   -7196.9072   -616.86028     102002.7      46.7237      46.7237      46.7237 
  466000    127.50234   -7980.7203   -7207.6778   -496.55972     102002.7      46.7237      46.7237      46.7237 
  467000    132.62147   -7977.8546   -7173.7749   -1023.6597     102002.7      46.7237      46.7237      46.7237 
  468000    129.84115   -7994.2039   -7206.9813    -1055.355     102002.7      46.7237      46.7237      46.7237 
  469000    133.11526   -7979.0939   -7172.0203   -326.76802     102002.7      46.7237      46.7237      46.7237 
  470000     124.5357   -7967.9273   -7212.8714   -667.56316     102002.7      46.7237      46.7237      46.7237 
  471000    131.66317   -7966.9527   -7168.6831   -506.41851     102002.7      46.7237      46.7237      46.7237 
  472000    131.20649   -7958.2978   -7162.7971   -887.90047     102002.7      46.7237      46.7237      46.7237 
  473000    131.42609   -7955.6241    -7158.792   -504.45627     102002.7      46.7237      46.7237      46.7237 
  474000    128.74954   -7969.8929   -7189.2886   -739.18192     102002.7      46.7237      46.7237      46.7237 
  475000    126.79092   -7920.6118   -7151.8825   -764.66577     102002.7      46.7237      46.7237      46.7237 
  476000    135.88475   -7973.1607   -7149.2958   -760.55276     102002.7      46.7237      46.7237      46.7237 
  477000    131.62039   -7983.8948   -7185.8846   -602.88981     102002.7      46.7237      46.7237      46.7237 
  478000    131.25929   -7963.1822   -7167.3614   -831.19923     102002.7      46.7237      46.7237      46.7237 
  479000     129.5607   -7973.2285   -7187.7062   -1161.4752     102002.7      46.7237      46.7237      46.7237 
  480000     129.3767   -7993.4047    -7208.998   -785.61668     102002.7      46.7237      46.7237      46.7237 
  481000    129.97012   -7971.0979   -7183.0933   -496.15967     102002.7      46.7237      46.7237      46.7237 
  482000    131.45048   -7993.7816   -7196.8016   -817.00572     102002.7      46.7237      46.7237      46.7237 
  483000    126.03096    -7997.232   -7233.1104   -618.67078     102002.7      46.7237      46.7237      46.7237 
  484000    128.85774   -7979.3293    -7198.069   -911.94937     102002.7      46.7237      46.7237      46.7237 
  485000    129.31461   -7958.2195   -7174.1892   -784.19515     102002.7      46.7237      46.7237      46.7237 
  486000    134.41518    -7954.181   -7139.2262   -580.45263     102002.7      46.7237      46.7237      46.7237 
  487000    128.50509   -7971.2765   -7192.1543   -739.10216     102002.7      46.7237      46.7237      46.7237 
  488000    129.23663   -7946.7252   -7163.1677   -1045.9041     102002.7      46.7237      46.7237      46.7237 
  489000    126.19742   -7988.2951   -7223.1642   -791.43161     102002.7      46.7237      46.7237      46.7237 
  490000    131.52581   -7969.6888   -7172.2521    -662.3003     102002.7      46.7237      46.7237      46.7237 
  491000    127.49901   -7983.6742   -7210.6518   -647.69658     102002.7      46.7237      46.7237      46.7237 
  492000    131.70328   -7968.6378   -7170.1251    -541.4843     102002.7      46.7237      46.7237      46.7237 
  493000    131.36215   -7975.0412   -7178.5968   -1039.6429     102002.7      46.7237      46.7237      46.7237 
  494000    132.85029    -7990.522   -7185.0549   -742.87226     102002.7      46.7237      46.7237      46.7237 
  495000       129.64    -7955.492   -7169.4888   -592.60352     102002.7      46.7237      46.7237      46.7237 
  496000    127.36932   -7946.4936   -7174.2575   -827.21094     102002.7      46.7237      46.7237      46.7237 
  497000    130.65251   -7982.9248   -7190.7828   -546.73716     102002.7      46.7237      46.7237      46.7237 
  498000    129.78291   -7978.6379   -7191.7683   -746.51236     102002.7      46.7237      46.7237      46.7237 
  499000    129.46775   -7981.2016   -7196.2428   -502.47113     102002.7      46.7237      46.7237      46.7237 
  500000    131.78313   -7963.6629   -7164.6661   -677.50144     102002.7      46.7237      46.7237      46.7237 
  500501    131.00021   -7948.5384   -7154.2884   -676.94635     102002.7      46.7237      46.7237      46.7237 
Loop time of 1392.39 on 16 procs for 500000 steps with 2035 atoms

Performance: 31.026 ns/day, 0.774 hours/ns, 359.096 timesteps/s
99.8% CPU use with 16 MPI tasks x no OpenMP threads

MPI task timing breakdown:
Section |  min time  |  avg time  |  max time  |%varavg| %total
---------------------------------------------------------------
Pair    | 580.19     | 768.91     | 1005.2     | 507.9 | 55.22
Bond    | 167.45     | 174.45     | 180.44     |  30.2 | 12.53
Neigh   | 7.7963     | 7.8445     | 7.936      |   1.8 |  0.56
Comm    | 185.71     | 427.36     | 614.07     | 690.9 | 30.69
Output  | 0.020541   | 0.020887   | 0.023743   |   0.5 |  0.00
Modify  | 7.5184     | 8.327      | 9.2328     |  18.3 |  0.60
Other   |            | 5.475      |            |       |  0.39

Nlocal:    127.188 ave 160 max 92 min
Histogram: 3 0 1 1 2 2 2 2 1 2
Nghost:    2582.06 ave 2620 max 2544 min
Histogram: 4 0 0 2 1 2 3 2 0 2
Neighs:    11468.3 ave 17573 max 5833 min
Histogram: 4 1 0 3 0 1 2 1 2 2

Total # of neighbors = 183493
Ave neighs/atom = 90.1686
Ave special neighs/atom = 5.66093
Neighbor list builds = 4758
Dangerous builds = 0
Neighbor list info ...
  update every 1 steps, delay 10 steps, check yes
  max neighbors/atom: 2000, page size: 100000
  master list distance cutoff = 16
  ghost atom cutoff = 16
  binsize = 8, bins = 6 6 6
  3 neighbor lists, perpetual/occasional/extra = 3 0 0
  (1) pair buck6d/coul/gauss/dsf, perpetual, skip from (3)
      attributes: half, newton on
      pair build: skip
      stencil: none
      bin: none
  (2) pair lj/cut, perpetual, skip from (3)
      attributes: half, newton on
      pair build: skip
      stencil: none
      bin: none
  (3) neighbor class addition, perpetual
      attributes: half, newton on
      pair build: half/bin/newton
      stencil: half/bin/3d/newton
      bin: standard
Setting up Verlet run ...
  Unit style    : real
  Current step  : 500501
  Time step     : 1
WARNING: Inconsistent image flags (../domain.cpp:786)
Per MPI rank memory allocation (min/avg/max) = 23.17 | 23.35 | 23.36 Mbytes
Step Time TotEng KinEng PotEng E_mol E_pair Temp Pxx Pyy Pzz Pxy Pxz Pyz Cella Cellb Cellc CellAlpha CellBeta CellGamma Volume Press 
  500501       500000   -7154.2884    794.25005   -7948.5384     4415.041   -12363.579    131.00021   -328.82652   -799.36012   -902.65241    83.169192    59.559655   -39.231684      46.7237      46.7237      46.7237           90           90           90     102002.7   -676.94635 
  501000       500499   -7187.1019    804.11465   -7991.2166    4361.6475   -12352.864    132.62724   -524.33045   -831.33393   -615.42133     130.7988    22.491672     -266.301      46.7237      46.7237      46.7237           90           90           90     102002.7   -657.02857 
  502000       501499   -7204.8185    780.92481   -7985.7433    4383.9084   -12369.652     128.8024   -830.42684   -127.68381   -512.42753   -266.25968   -96.178385    36.208676      46.7237      46.7237      46.7237           90           90           90     102002.7   -490.17939 
  503000       502499   -7163.2093    806.55263    -7969.762    4407.2848   -12377.047    133.02935   -910.63255   -632.01311    -609.8584    130.01341   -220.34978    61.743429      46.7237      46.7237      46.7237           90           90           90     102002.7   -717.50135 
  504000       503499   -7204.9878    769.43813   -7974.4259    4381.0354   -12355.461    126.90784   -313.30991   -690.88041   -731.60655    37.921147    202.90266   -2.0147825      46.7237      46.7237      46.7237           90           90           90     102002.7   -578.59896 
  505000       504499   -7163.4912    795.57778    -7959.069    4401.4538   -12360.523     131.2192   -879.24103   -497.64941    -731.9647   -270.62047    20.571612   -7.3498591      46.7237      46.7237      46.7237           90           90           90     102002.7   -702.95171 
  506000       505499   -7212.5526    768.57852   -7981.1311    4369.3939   -12350.525    126.76606   -1057.4439   -759.61198   -985.47656    -267.7606    19.102572   -90.531347      46.7237      46.7237      46.7237           90           90           90     102002.7   -934.17748 
  507000       506499    -7183.357    806.79805    -7990.155    4376.2125   -12366.368    133.06983    -676.3244   -679.72941   -169.33246   -31.915294   -55.918426    195.67627      46.7237      46.7237      46.7237           90           90           90     102002.7   -508.46209 
  508000       507499   -7180.6615    804.04844   -7984.7099    4386.9949   -12371.705    132.61632   -802.58607    -760.3385   -1096.1107    273.73281    8.5781086   -94.449226      46.7237      46.7237      46.7237           90           90           90     102002.7   -886.34511 
  509000       508499   -7167.9706    786.66846   -7954.6391    4398.4747   -12353.114    129.74974   -344.70056   -614.34988   -488.70663    122.13234   -1.3316382    79.568698      46.7237      46.7237      46.7237           90           90           90     102002.7   -482.58569 
  510000       509499   -7174.5921    785.25717   -7959.8493    4378.1276   -12337.977    129.51697   -330.49528   -186.96122    -1002.815   -162.15474    25.663393    424.64041      46.7237      46.7237      46.7237           90           90           90     102002.7   -506.75715 
  511000       510499   -7171.4415     792.8352   -7964.2767    4415.5277   -12379.804    130.76685   -895.38545   -397.21031   -660.33538   -99.981237    223.07407    30.771343      46.7237      46.7237      46.7237           90           90           90     102002.7   -650.97705 
  512000       511499   -7176.2016     810.0635   -7986.2651    4379.6373   -12365.902    133.60842   -640.45347   -597.66401    -865.7307    121.46026   -115.41009    153.22429      46.7237      46.7237      46.7237           90           90           90     102002.7   -701.28273 
  513000       512499   -7133.1502    804.16685    -7937.317    4418.3194   -12355.636    132.63585   -698.59841   -1208.8787   -839.69275   -180.62346   -82.453798    98.988053      46.7237      46.7237      46.7237           90           90           90     102002.7   -915.72329 
  514000       513499   -7195.0754    790.19601   -7985.2714    4383.1312   -12368.403    130.33156   -646.92589   -994.58939   -511.87383   -41.177394    245.60662    223.96177      46.7237      46.7237      46.7237           90           90           90     102002.7   -717.79637 
  515000       514499   -7210.4661    779.31687    -7989.783    4381.7876   -12371.571     128.5372   -337.47244   -699.08081   -920.18753    104.35478    230.74375    118.73263      46.7237      46.7237      46.7237           90           90           90     102002.7   -652.24693 
  516000       515499   -7161.5769    794.68675   -7956.2637    4409.3724   -12365.636    131.07224   -791.61324   -653.66158   -1040.5443     314.3348   -201.50829    141.02093      46.7237      46.7237      46.7237           90           90           90     102002.7   -828.60638 
  517000       516499   -7181.9676    792.57287   -7974.5405    4379.1252   -12353.666    130.72359   -879.35302   -573.67744   -817.36157    20.788194   -203.12983     54.66366      46.7237      46.7237      46.7237           90           90           90     102002.7   -756.79734 
  518000       517499   -7182.9059    786.91636   -7969.8222    4416.6525   -12386.475    129.79063   -887.64782   -937.36949   -520.06015    6.0117486   -182.32838   -127.23286      46.7237      46.7237      46.7237           90           90           90     102002.7   -781.69249 
  519000       518499    -7154.333    792.06319   -7946.3962    4411.8856   -12358.282    130.63952   -1198.2657   -818.25985   -1070.9776   -18.032499   -335.40558   -287.55448      46.7237      46.7237      46.7237           90           90           90     102002.7   -1029.1677 
  520000       519499   -7168.6219    800.90363   -7969.5256    4416.3561   -12385.882    132.09763   -718.42487   -964.89169    -760.9797    -48.70057   -117.20291   -34.627363      46.7237      46.7237      46.7237           90           90           90     102002.7   -814.76542 
  521000       520499   -7189.7286    796.64382   -7986.3724    4386.0119   -12372.384    131.39503   -1027.6842    -462.6645   -1037.0451    140.86786    156.88613   -8.2111044      46.7237      46.7237      46.7237           90           90           90     102002.7    -842.4646 
  522000       521499   -7179.2435     786.7562   -7965.9997    4410.3692   -12376.369    129.76421   -898.97603   -485.19631   -541.90087    76.653684    102.37956    366.47719      46.7237      46.7237      46.7237           90           90           90     102002.7    -642.0244 
  523000       522499   -7190.7866    780.46234    -7971.249    4409.8998   -12381.149    128.72613   -537.42617   -833.66452   -1145.0686   -90.016795    130.20374     2.859128      46.7237      46.7237      46.7237           90           90           90     102002.7   -838.71975 
  524000       523499   -7159.9533    800.16133   -7960.1147     4417.401   -12377.516    131.97519   -905.99784   -877.55914   -832.71098    321.00646   -49.345829   -93.622956      46.7237      46.7237      46.7237           90           90           90     102002.7   -872.08932 
  525000       524499   -7142.1431    792.32217   -7934.4653    4432.2251    -12366.69    130.68224   -835.11383   -426.00065   -925.89975    109.58854    -73.05037   -62.200592      46.7237      46.7237      46.7237           90           90           90     102002.7   -729.00474 
  526000       525499   -7177.5047    810.21941   -7987.7241    4397.5675   -12385.292    133.63413     -1225.94   -607.72689   -802.58582   -137.28809    172.94096    13.957184      46.7237      46.7237      46.7237           90           90           90     102002.7    -878.7509 
  527000       526499   -7172.6218    804.54925    -7977.171    4392.0898   -12369.261    132.69892   -1080.5564   -757.31699   -636.59589   -63.811595    106.03482    66.220843      46.7237      46.7237      46.7237           90           90           90     102002.7   -824.82308 
  528000       527499   -7176.0251    792.53802   -7968.5631    4408.8795   -12377.443    130.71784   -675.90615   -1068.7691   -584.59505   -217.83887    131.70803    42.217693      46.7237      46.7237      46.7237           90           90           90     102002.7   -776.42344 
  529000       528499   -7197.4076    786.87343   -7984.2811      4374.93   -12359.211    129.78354   -625.14311   -941.92176   -598.88459    127.76576    156.56382   -26.051539      46.7237      46.7237      46.7237           90           90           90     102002.7   -721.98315 
  530000       529499   -7183.6239    770.76436   -7954.3883    4409.2674   -12363.656    127.12658   -1358.7448   -1082.3427   -659.95753   -92.400281    96.812115   -167.85822      46.7237      46.7237      46.7237           90           90           90     102002.7   -1033.6817 
  531000       530499   -7227.9848    763.94538   -7991.9302    4399.7155   -12391.646    126.00189   -518.53622   -505.83725   -559.62491   -163.22917   -227.04712   -9.8886602      46.7237      46.7237      46.7237           90           90           90     102002.7   -527.99946 
  532000       531499   -7215.9437    781.46817   -7997.4119    4386.1555   -12383.567    128.89202   -902.96785   -739.57431   -890.82605   -104.76358    21.429782    -56.99496      46.7237      46.7237      46.7237           90           90           90     102002.7   -844.45607 
  533000       532499    -7216.307    770.43503    -7986.742    4386.0653   -12372.807    127.07226   -255.08996   -730.45371   -446.80699    -11.27384    292.72407   -12.892623      46.7237      46.7237      46.7237           90           90           90     102002.7   -477.45022 
  534000       533499   -7217.8979    777.05713   -7994.9551    4375.2459   -12370.201    128.16449   -803.86071   -878.66256   -934.79058    136.36903   -43.516717    24.805686      46.7237      46.7237      46.7237           90           90           90     102002.7   -872.43795 
  535000       534499   -7185.2974    798.61862    -7983.916    4399.3188   -12383.235    131.72075   -963.80348    -405.1527   -787.48495     56.08495    83.354386    325.27698      46.7237      46.7237      46.7237           90           90           90     102002.7   -718.81371 
  536000       535499   -7217.1546    791.30398   -8008.4586    4365.1992   -12373.658     130.5143   -677.24542   -255.30399   -586.62632    182.43675    21.847262    -52.62177      46.7237      46.7237      46.7237           90           90           90     102002.7   -506.39191 
  537000       536499   -7168.9351    781.22909   -7950.1642    4421.0656    -12371.23    128.85259   -1075.1945   -608.59075   -809.53674   -10.789277   -169.10949   -200.80636      46.7237      46.7237      46.7237           90           90           90     102002.7   -831.10733 
  538000       537499   -7202.6101    797.05969   -7999.6698    4381.7483   -12381.418    131.46362   -603.61456    -508.2534   -699.27329    108.88128   -72.881139   -206.58352      46.7237      46.7237      46.7237           90           90           90     102002.7   -603.71375 
  539000       538499   -7202.0552    785.54681    -7987.602    4394.6545   -12382.257    129.56474   -900.17335   -561.12847   -773.00997   -234.04027     99.50383   -88.393684      46.7237      46.7237      46.7237           90           90           90     102002.7    -744.7706 
  540000       539499   -7181.0385    783.52309   -7964.5616    4414.5834   -12379.145    129.23095   -1135.4564   -995.55796    -1046.538    -140.4226    93.120279    149.71698      46.7237      46.7237      46.7237           90           90           90     102002.7   -1059.1841 
  541000       540499   -7208.5489     758.9831    -7967.532    4421.4915   -12389.023    125.18343   -620.66487   -1129.0357    -1191.439   -27.632535    271.49696    152.22331      46.7237      46.7237      46.7237           90           90           90     102002.7   -980.37988 
  542000       541499   -7168.9832    805.11594   -7974.0991    4390.0457   -12364.145    132.79239    -688.1648   -824.24261   -664.97865    91.546815    45.375108     369.6918      46.7237      46.7237      46.7237           90           90           90     102002.7   -725.79535 
  543000       542499   -7203.3813    775.64884   -7979.0301    4423.4108   -12402.441    127.93221   -940.23652    -792.4132   -705.30388   -97.103633    128.31736    48.009598      46.7237      46.7237      46.7237           90           90           90     102002.7    -812.6512 
  544000       543499   -7181.8732    772.93646   -7954.8097    4418.6381   -12373.448    127.48484   -1056.1168   -1292.3635   -277.75661    18.142314   -50.177264    97.956326      46.7237      46.7237      46.7237           90           90           90     102002.7   -875.41232 
  545000       544499    -7174.763    798.54532   -7973.3084    4395.7085   -12369.017    131.70866   -317.65408   -740.19095   -1135.9634    381.28325   -218.84669   -53.225753      46.7237      46.7237      46.7237           90           90           90     102002.7   -731.26949 
  546000       545499   -7186.9563    789.61164    -7976.568     4393.535   -12370.103    130.23517    -732.2272   -448.42687   -448.35977    99.052092    84.887504     190.1367      46.7237      46.7237      46.7237           90           90           90     102002.7   -543.00461 
  547000       546499   -7146.5919    810.92306   -7957.5149    4417.7182   -12375.233    133.75019   -790.69139   -177.66668   -708.56242   -4.5178746   -122.04553   -1.6384247      46.7237      46.7237      46.7237           90           90           90     102002.7    -558.9735 
  548000       547499   -7203.8854    780.73391   -7984.6193    4391.7979   -12376.417    128.77092   -1654.4474   -263.95061   -976.88051   -124.25384   -101.88629    31.477336      46.7237      46.7237      46.7237           90           90           90     102002.7   -965.09284 
  549000       548499   -7176.5817    799.90289   -7976.4846    4403.2406   -12379.725    131.93257   -657.91184    -1047.567   -578.80612    310.38678   -53.873899    263.37497      46.7237      46.7237      46.7237           90           90           90     102002.7   -761.42831 
  550000       549499   -7184.7234    783.60923   -7968.3327     4389.428   -12357.761    129.24516   -808.20688   -756.38719   -675.12382    61.946602    76.281691   -117.03927      46.7237      46.7237      46.7237           90           90           90     102002.7   -746.57263 
  551000       550499   -7202.6879    773.61845   -7976.3063     4399.407   -12375.713    127.59732   -857.28752   -1101.5163   -648.93782    51.614335   -1.0280162   -10.044602      46.7237      46.7237      46.7237           90           90           90     102002.7    -869.2472 
  552000       551499   -7191.3082     795.4719   -7986.7801     4391.966   -12378.746    131.20174   -945.32003   -733.29981   -849.10461    123.44853    220.97031    56.388963      46.7237      46.7237      46.7237           90           90           90     102002.7   -842.57482 
  553000       552499    -7225.116    764.83656   -7989.9526    4365.5388   -12355.491    126.14888   -651.75871   -870.98742   -739.21187    182.05136    151.85998    131.52243      46.7237      46.7237      46.7237           90           90           90     102002.7     -753.986 
  554000       553499    -7219.845     785.3018   -8005.1468    4381.2845   -12386.431    129.52433    -750.4121   -366.66231   -721.51367   -84.516153   -171.31357   -64.117818      46.7237      46.7237      46.7237           90           90           90     102002.7    -612.8627 
  555000       554499   -7192.9448    790.90444   -7983.8492    4398.1986   -12382.048     130.4484   -953.73201   -203.25014   -637.49247    8.1385017   -246.58217    125.11556      46.7237      46.7237      46.7237           90           90           90     102002.7    -598.1582 
[...]
  936000       935499   -7179.9825    787.81218   -7967.7947    4383.2984   -12351.093    129.93838   -614.63158   -591.51363   -734.00086    107.33722    62.211873    -194.3695      46.7237      46.7237      46.7237           90           90           90     102002.7   -646.71536 
  937000       936499   -7130.1298    826.01124   -7956.1411    4386.1518   -12342.293    136.23877   -840.96889   -762.48802   -68.715179    45.067624    368.85341    213.36425      46.7237      46.7237      46.7237           90           90           90     102002.7    -557.3907 
  938000       937499   -7210.4128    756.37103   -7966.7838    4387.5657   -12354.349    124.75261   -516.92277   -592.55099   -1150.3494   -75.353236   -157.85524   -183.66646      46.7237      46.7237      46.7237           90           90           90     102002.7   -753.27438 
  939000       938499   -7178.6136    793.31832    -7971.932    4395.4276    -12367.36    130.84654    -878.8951   -1040.3106   -655.53358   -112.60251   -225.62933    -28.08741      46.7237      46.7237      46.7237           90           90           90     102002.7   -858.24643 
  940000       939499   -7178.3368    802.51008   -7980.8469    4393.8636   -12374.711    132.36259   -470.02818   -985.02808    -793.1373    102.49569    127.40578   -157.08102      46.7237      46.7237      46.7237           90           90           90     102002.7   -749.39785 
  941000       940499   -7157.0328    804.08244   -7961.1153    4403.7138   -12364.829    132.62193   -386.69482   -271.11018   -750.30205   -330.35815   -94.533422     237.1776      46.7237      46.7237      46.7237           90           90           90     102002.7   -469.36902 
  942000       941499   -7220.7282    759.36903   -7980.0972    4392.5811   -12372.678    125.24709   -403.84923   -1000.1939     -904.905   -87.819674    81.832752   -203.07725      46.7237      46.7237      46.7237           90           90           90     102002.7   -769.64937 
  943000       942499   -7184.7379    789.06328   -7973.8012    4409.6649   -12383.466    130.14473   -495.20366   -946.88721   -931.95385    144.39391     119.8962   -151.43906      46.7237      46.7237      46.7237           90           90           90     102002.7   -791.34824 
  944000       943499   -7144.7076    805.95278   -7950.6604    4412.5701    -12363.23    132.93041   -958.83037   -847.39265   -418.70362   -109.34422    188.00803    5.8798071      46.7237      46.7237      46.7237           90           90           90     102002.7   -741.64222 
  945000       944499   -7180.4255    791.20642   -7971.6319    4407.1994   -12378.831    130.49821   -935.86919   -133.93196   -643.80262   -37.637661    76.510004     88.65982      46.7237      46.7237      46.7237           90           90           90     102002.7   -571.20125 
  946000       945499   -7222.3594    764.18488   -7986.5443    4387.1983   -12373.743    126.04139   -708.68289   -810.33285   -597.50467    120.36044   -52.398281   -236.49301      46.7237      46.7237      46.7237           90           90           90     102002.7    -705.5068 
  947000       946499   -7173.8254    792.32034   -7966.1457    4396.5791   -12362.725    130.68193   -502.97572   -1028.1494   -690.04219   -99.595856    -149.6176    -95.54052      46.7237      46.7237      46.7237           90           90           90     102002.7   -740.38911 
  948000       947499   -7193.2573     783.5237    -7976.781    4403.5686    -12380.35    129.23105   -88.818152   -614.70164   -457.45857    301.44014   -52.168093    90.521871      46.7237      46.7237      46.7237           90           90           90     102002.7   -386.99279 
  949000       948499   -7176.4082    790.93506   -7967.3433     4398.368   -12365.711    130.45345   -840.61961   -898.43409   -1220.8593    0.6811837   -235.21144    -307.6678      46.7237      46.7237      46.7237           90           90           90     102002.7   -986.63766 
  950000       949499   -7187.3886    790.15935   -7977.5479    4376.4284   -12353.976    130.32551    -538.1477   -391.44059   -663.83771   -100.14554   -139.75531    141.47531      46.7237      46.7237      46.7237           90           90           90     102002.7     -531.142 
  951000       950499   -7209.3825    778.77466   -7988.1572    4372.7902   -12360.947    128.44777   -1341.1939   -983.28716   -714.38938   -229.82854    45.196254    84.519925      46.7237      46.7237      46.7237           90           90           90     102002.7   -1012.9568 
  952000       951499   -7179.9818    781.92155   -7961.9033    4402.7277   -12364.631     128.9668   -1429.9852   -1626.1063   -570.08126     11.89288   -199.45888   -166.61023      46.7237      46.7237      46.7237           90           90           90     102002.7   -1208.7243 
  953000       952499   -7145.6409    805.58674   -7951.2277    4416.9901   -12368.218    132.87004   -954.96182   -691.48218   -820.00187    60.612564    11.787882    86.928865      46.7237      46.7237      46.7237           90           90           90     102002.7   -822.14862 
  954000       953499   -7166.1181    798.77233   -7964.8905    4401.7401   -12366.631     131.7461   -1176.1407   -538.87132   -697.70486   -73.744545    138.83021    0.8197765      46.7237      46.7237      46.7237           90           90           90     102002.7   -804.23896 
  955000       954499   -7218.1752    776.01227   -7994.1875    4360.8287   -12355.016    127.99215   -1311.2086   -574.19763    -579.1305    117.52459   -59.281524   -110.64988      46.7237      46.7237      46.7237           90           90           90     102002.7   -821.51225 
  956000       955499   -7174.6243    789.56147   -7964.1857    4420.2925   -12384.478     130.2269   -498.95993   -632.57423   -823.60862     92.80526   -250.04736    27.696825      46.7237      46.7237      46.7237           90           90           90     102002.7   -651.71426 
  957000       956499   -7193.0371    785.84331   -7978.8804    4404.2155   -12383.096    129.61364   -911.48676   -784.06276    -816.8819   -62.112066   -30.744644   -19.001124      46.7237      46.7237      46.7237           90           90           90     102002.7   -837.47714 
  958000       957499   -7211.5778    777.99156   -7989.5694     4391.458   -12381.027    128.31861   -753.64704   -474.97981   -859.96677    187.04091   -118.34135   -297.86718      46.7237      46.7237      46.7237           90           90           90     102002.7   -696.19787 
  959000       958499   -7178.1234    784.98412   -7963.1075    4395.9544   -12359.062    129.47193   -714.43025   -670.40354   -617.90126   -318.48557    187.74867  -0.49288027      46.7237      46.7237      46.7237           90           90           90     102002.7   -667.57835 
  960000       959499   -7184.8059    805.70719   -7990.5131    4388.5323   -12379.045     132.8899   -968.37874   -1043.8627   -598.92306   -210.89935    248.20795    14.833594      46.7237      46.7237      46.7237           90           90           90     102002.7   -870.38817 
  961000       960499   -7150.2221    807.40536   -7957.6275    4419.3538   -12376.981    133.16999   -446.26618   -992.80612    -468.5836    -155.9633    132.86479    25.857947      46.7237      46.7237      46.7237           90           90           90     102002.7    -635.8853 
  962000       961499   -7170.1669    792.20766   -7962.3745    4415.1605   -12377.535    130.66335   -1059.6387   -1157.7987   -687.28876   -40.042501   -268.14693    64.514764      46.7237      46.7237      46.7237           90           90           90     102002.7   -968.24207 
  963000       962499   -7211.6966    796.31452   -8008.0112    4365.7276   -12373.739    131.34072   -698.95958   -519.63244   -450.52715   -126.51856   -77.648405   -102.64032      46.7237      46.7237      46.7237           90           90           90     102002.7   -556.37306 
  964000       963499   -7217.1959    778.48908    -7995.685    4379.2268   -12374.912    128.40066   -1396.0852   -922.82893    -803.3033   -167.30005   -65.695807    295.93494      46.7237      46.7237      46.7237           90           90           90     102002.7   -1040.7391 
  965000       964499   -7209.4554    775.06123   -7984.5166    4410.2349   -12394.752    127.83529    -481.1922   -925.71967   -713.01781     104.8458   -39.887234    117.52174      46.7237      46.7237      46.7237           90           90           90     102002.7   -706.64322 
  966000       965499   -7166.1391    791.08631   -7957.2254    4405.0882   -12362.314     130.4784   -905.09452   -832.66412   -567.81962    43.754279    261.93584   -10.368964      46.7237      46.7237      46.7237           90           90           90     102002.7   -768.52609 
  967000       966499   -7208.5364    796.94166   -8005.4781    4368.0573   -12373.535    131.44415   -745.43784   -511.92181   -497.64057    114.76505    117.19146     416.5237      46.7237      46.7237      46.7237           90           90           90     102002.7   -585.00007 
  968000       967499   -7186.1275    794.81498   -7980.9425    4398.6479    -12379.59    131.09339   -727.86448   -185.54036   -664.87827   -318.41241    -245.0204    10.286165      46.7237      46.7237      46.7237           90           90           90     102002.7   -526.09437 
  969000       968499   -7181.7238    789.29717    -7971.021    4421.4642   -12392.485    130.18331    -953.9123   -393.37576   -764.97604   -13.214282    105.14467     278.7967      46.7237      46.7237      46.7237           90           90           90     102002.7   -704.08803 
  970000       969499   -7207.2714    773.29031   -7980.5617    4388.8738   -12369.435     127.5432   -652.04199    -963.9175   -1001.0251    158.60082   -32.777804   -161.12103      46.7237      46.7237      46.7237           90           90           90     102002.7   -872.32821 
  971000       970499   -7196.1366    785.62534    -7981.762      4391.16   -12372.922    129.57769   -738.16965   -335.62072   -901.40534   -90.696894   -37.398931    124.73968      46.7237      46.7237      46.7237           90           90           90     102002.7   -658.39857 
  972000       971499   -7171.4368    782.98632   -7954.4231    4411.1957   -12365.619    129.14242    -472.8756   -582.22269   -513.35006   -17.264378    219.82543    144.72795      46.7237      46.7237      46.7237           90           90           90     102002.7   -522.81612 
  973000       972499   -7248.9541     776.9804   -8025.9345    4357.3547   -12383.289    128.15183   -349.60444   -680.40208   -355.79777   -56.211183   -33.405381   -222.14184      46.7237      46.7237      46.7237           90           90           90     102002.7   -461.93476 
  974000       973499   -7188.3263    784.83231   -7973.1587    4406.7238   -12379.882    129.44689   -462.57636   -504.96468   -799.03314    25.720224    139.16246      147.218      46.7237      46.7237      46.7237           90           90           90     102002.7   -588.85806 
  975000       974499   -7216.0432    770.07596   -7986.1191    4400.4132   -12386.532    127.01304   -818.16442   -982.33733   -878.85536    106.24304    -170.8791    70.687534      46.7237      46.7237      46.7237           90           90           90     102002.7   -893.11904 
  976000       975499   -7193.4343    789.91661   -7983.3509    4394.8923   -12378.243    130.28547   -1156.8737   -708.90091   -790.83489    30.872667     88.11113    165.52158      46.7237      46.7237      46.7237           90           90           90     102002.7    -885.5365 
  977000       976499   -7179.7306    791.63831   -7971.3689    4410.4528   -12381.822    130.56944   -799.30429   -512.77528   -859.14019   -120.07216      494.604    -28.10312      46.7237      46.7237      46.7237           90           90           90     102002.7   -723.73992 
  978000       977499   -7212.9311    753.47902   -7966.4101    4384.8849   -12351.295    124.27561    -1175.164   -964.83576   -1065.8839    72.077283     59.63037    266.76522      46.7237      46.7237      46.7237           90           90           90     102002.7   -1068.6279 
  979000       978499   -7191.9727    782.44086   -7974.4136    4393.2204   -12367.634    129.05246   -835.09251   -198.81403   -722.54033    -5.875565    -62.79909   -29.362883      46.7237      46.7237      46.7237           90           90           90     102002.7   -585.48229 
  980000       979499   -7185.2813    766.22176    -7951.503    4400.9955   -12352.499    126.37735   -755.56255   -919.55303   -592.24878    33.743139     -30.7119   -83.780106      46.7237      46.7237      46.7237           90           90           90     102002.7   -755.78812 
  981000       980499   -7186.7436    780.98869   -7967.7322    4393.1181    -12360.85    128.81294   -496.15753   -765.51581   -914.67687    95.568398    6.0747057    62.569731      46.7237      46.7237      46.7237           90           90           90     102002.7   -725.45007 
  982000       981499   -7138.2042    811.93492   -7950.1392    4389.6107    -12339.75    133.91708   -1087.3724    -610.3834   -487.90064    67.632899   -77.853209   -202.61184      46.7237      46.7237      46.7237           90           90           90     102002.7   -728.55215 
  983000       982499    -7185.115    789.80793    -7974.923    4394.4853   -12369.408    130.26755   -967.63375   -1073.0066    -892.5239    57.776719   -134.79217   -163.34984      46.7237      46.7237      46.7237           90           90           90     102002.7   -977.72142 
  984000       983499   -7241.0762    753.01813   -7994.0943    4385.8146   -12379.909     124.1996   -952.06776   -725.01578   -996.58656    -29.73494    197.90287    74.791516      46.7237      46.7237      46.7237           90           90           90     102002.7   -891.22337 
  985000       984499   -7166.1315     782.5513   -7948.6828    4400.8351   -12349.518    129.07067   -1124.1099   -1031.9012   -387.47071   -89.350082    70.094025    66.701054      46.7237      46.7237      46.7237           90           90           90     102002.7   -847.82725 
  986000       985499   -7187.4583     775.9719   -7963.4302    4407.6358   -12371.066    127.98549   -924.14882   -705.12958   -797.07931   -193.09509    97.815509    -23.03658      46.7237      46.7237      46.7237           90           90           90     102002.7   -808.78591 
  987000       986499   -7165.1114     812.0414   -7977.1528    4392.6013   -12369.754    133.93464   -880.69797   -1332.5128   -887.95369   -79.175688   -56.272329   -110.96846      46.7237      46.7237      46.7237           90           90           90     102002.7   -1033.7215 
  988000       987499   -7190.3073    774.26086   -7964.5682    4408.3971   -12372.965    127.70328    -706.2848   -967.69432   -719.29056    112.18731   -76.590442    270.47809      46.7237      46.7237      46.7237           90           90           90     102002.7   -797.75656 
  989000       988499   -7215.5725    767.06039   -7982.6329    4404.8188   -12387.452    126.51567   -670.13355   -1383.2556   -842.33851   -169.67085   -24.551561   -28.853702      46.7237      46.7237      46.7237           90           90           90     102002.7   -965.24255 
  990000       989499   -7169.7357    799.69214   -7969.4278    4398.8396   -12368.267    131.89781   -849.64455   -1261.0377   -719.08009      52.6638   -187.95454    103.56698      46.7237      46.7237      46.7237           90           90           90     102002.7   -943.25412 
  991000       990499   -7216.7736    767.80165   -7984.5753    4401.7522   -12386.327    126.63793   -790.85411   -616.94232   -754.90494   -127.29166   -257.02348    274.49767      46.7237      46.7237      46.7237           90           90           90     102002.7   -720.90045 
  992000       991499   -7217.7271    771.86633   -7989.5934    4386.6427   -12376.236    127.30834   -1358.0343   -871.73414   -1061.0603   -199.68281    59.142324    42.207238      46.7237      46.7237      46.7237           90           90           90     102002.7   -1096.9429 
  993000       992499   -7167.0208     801.4029   -7968.4237    4410.3672   -12378.791    132.17997     -349.253   -841.18702   -566.36649    41.839023   -331.26379    148.14159      46.7237      46.7237      46.7237           90           90           90     102002.7   -585.60217 
  994000       993499   -7191.0432    793.71322   -7984.7564    4386.8046   -12371.561    130.91167   -221.37035   -813.52228   -762.41088   -137.35065     111.7474     130.5745      46.7237      46.7237      46.7237           90           90           90     102002.7   -599.10117 
  995000       994499    -7187.392    765.54889   -7952.9409    4398.7465   -12351.687    126.26637   -854.46193   -859.46139   -289.05409    32.585556   -40.237337    65.476188      46.7237      46.7237      46.7237           90           90           90     102002.7   -667.65914 
  996000       995499   -7194.8078    793.72443   -7988.5323    4389.5053   -12378.038    130.91352   -833.26088    -1023.131   -517.61086    45.900184   -98.652817    63.735158      46.7237      46.7237      46.7237           90           90           90     102002.7   -791.33425 
  997000       996499   -7169.5215    806.71102   -7976.2325    4403.4491   -12379.682    133.05547   -1100.7707   -813.02527   -409.24643    72.839326   -127.38895   -115.72629      46.7237      46.7237      46.7237           90           90           90     102002.7   -774.34747 
  998000       997499   -7219.2341    757.71894   -7976.9531    4391.6978   -12368.651    124.97493   -836.07416   -1074.0068   -534.60639    115.83603    332.21014    133.31424      46.7237      46.7237      46.7237           90           90           90     102002.7   -814.89577 
  999000       998499   -7186.9361    777.42276   -7964.3589    4404.9674   -12369.326    128.22479   -1007.8749   -490.04181   -616.39799    102.95487    204.22658   -203.21339      46.7237      46.7237      46.7237           90           90           90     102002.7   -704.77155 
 1000000       999499   -7188.4644    773.11489   -7961.5793    4404.9154   -12366.495    127.51427   -337.74758   -607.64551   -1149.8969    55.674897   -130.19571    110.95524      46.7237      46.7237      46.7237           90           90           90     102002.7   -698.42998 
 1000501      1000000   -7175.7804    781.63186   -7957.4123    4410.8797   -12368.292    128.91902   -610.05384   -671.32864   -552.36271   -66.913173    -191.7553     98.98603      46.7237      46.7237      46.7237           90           90           90     102002.7    -611.2484 
Loop time of 1691.5 on 16 procs for 500000 steps with 2035 atoms

Performance: 25.539 ns/day, 0.940 hours/ns, 295.595 timesteps/s
99.8% CPU use with 16 MPI tasks x no OpenMP threads

MPI task timing breakdown:
Section |  min time  |  avg time  |  max time  |%varavg| %total
---------------------------------------------------------------
Pair    | 558.77     | 892.17     | 1224.1     | 900.5 | 52.74
Bond    | 139.37     | 183.35     | 229.76     | 266.0 | 10.84
Neigh   | 8.2242     | 8.2728     | 8.3709     |   1.9 |  0.49
Comm    | 221.31     | 578.76     | 944.21     |1258.7 | 34.22
Output  | 0.1052     | 0.11016    | 0.11062    |   0.4 |  0.01
Modify  | 21.611     | 23.316     | 24.845     |  23.5 |  1.38
Other   |            | 5.522      |            |       |  0.33

Nlocal:    127.188 ave 153 max 99 min
Histogram: 1 0 3 2 1 3 2 2 0 2
Nghost:    2595.31 ave 2620 max 2567 min
Histogram: 1 1 0 4 1 1 2 4 1 1
Neighs:    11464.3 ave 17565 max 6790 min
Histogram: 1 3 2 0 4 3 1 1 0 1

Total # of neighbors = 183429
Ave neighs/atom = 90.1371
Ave special neighs/atom = 5.66093
Neighbor list builds = 4802
Dangerous builds = 0
Total wall time: 0:51:27
