LAMMPS (30 Mar 2018)
Reading data file ...
  orthogonal box = (0 0 0) to (46.7237 46.7237 46.7237)
  2 by 3 by 4 MPI processor grid
  reading atoms ...
  1739 atoms
  scanning bonds ...
  5 = max bonds/atom
  scanning angles ...
  10 = max angles/atom
  scanning dihedrals ...
  32 = max dihedrals/atom
  scanning impropers ...
  3 = max impropers/atom
  reading bonds ...
  2064 bonds
  reading angles ...
  3696 angles
  reading dihedrals ...
  6240 dihedrals
  reading impropers ...
  1008 impropers
Finding 1-2 1-3 1-4 neighbors ...
  special bond factors lj:   0          0          0         
  special bond factors coul: 0          0          0         
  5 = max # of 1-2 neighbors
  8 = max # of 1-3 neighbors
  20 = max # of 1-4 neighbors
  19 = max # of special neighbors
Finding 1-2 1-3 1-4 neighbors ...
  special bond factors lj:   0          0          1         
  special bond factors coul: 1          1          1         
  5 = max # of 1-2 neighbors
  8 = max # of 1-3 neighbors
  19 = max # of special neighbors
WARNING: Using 'neigh_modify every 1 delay 0 check yes' setting during minimization (../min.cpp:168)
Neighbor list info ...
  update every 1 steps, delay 0 steps, check yes
  max neighbors/atom: 2000, page size: 100000
  master list distance cutoff = 16
  ghost atom cutoff = 16
  binsize = 8, bins = 6 6 6
  3 neighbor lists, perpetual/occasional/extra = 3 0 0
  (1) pair buck6d/coul/gauss/dsf, perpetual, skip from (3)
      attributes: half, newton on
      pair build: skip
      stencil: none
      bin: none
  (2) pair lj/cut, perpetual, skip from (3)
      attributes: half, newton on
      pair build: skip
      stencil: none
      bin: none
  (3) neighbor class addition, perpetual
      attributes: half, newton on
      pair build: half/bin/newton
      stencil: half/bin/3d/newton
      bin: standard
Setting up cg style minimization ...
  Unit style    : real
  Current step  : 0
WARNING: Inconsistent image flags (../domain.cpp:786)
Per MPI rank memory allocation (min/avg/max) = 22.87 | 23.28 | 24.42 Mbytes
Step Temp E_pair E_mol TotEng Press 
       0            0   -11544.578    6482.8914   -5061.6863    6271.7594 
     506            0     -11577.9    3752.0871   -7825.8125   -527.26425 
Loop time of 1.26598 on 24 procs for 506 steps with 1739 atoms

99.8% CPU use with 24 MPI tasks x no OpenMP threads

Minimization stats:
  Stopping criterion = max force evaluations
  Energy initial, next-to-last, final = 
        -5061.68628766     -7825.70565899     -7825.81245187
  Force two-norm initial, final = 2576.93 14.3998
  Force max component initial, final = 151.992 2.32743
  Final line search alpha, max atom move = 0.00255903 0.00595596
  Iterations, force evaluations = 506 1000

MPI task timing breakdown:
Section |  min time  |  avg time  |  max time  |%varavg| %total
---------------------------------------------------------------
Pair    | 0.45047    | 0.60724    | 0.79805    |  11.1 | 47.97
Bond    | 0.11249    | 0.15784    | 0.19137    |   4.7 | 12.47
Neigh   | 0.0089704  | 0.0090819  | 0.00915    |   0.1 |  0.72
Comm    | 0.26531    | 0.47101    | 0.60229    |  12.6 | 37.20
Output  | 0          | 0          | 0          |   0.0 |  0.00
Modify  | 0          | 0          | 0          |   0.0 |  0.00
Other   |            | 0.02082    |            |       |  1.64

Nlocal:    72.4583 ave 91 max 54 min
Histogram: 2 1 1 4 4 5 2 1 3 1
Nghost:    1977.38 ave 2155 max 1885 min
Histogram: 16 0 0 0 0 0 0 0 2 6
Neighs:    7619.96 ave 11682 max 4316 min
Histogram: 2 5 0 3 4 4 1 3 1 1

Total # of neighbors = 182879
Ave neighs/atom = 105.163
Ave special neighs/atom = 6.6245
Neighbor list builds = 15
Dangerous builds = 0
Neighbor list info ...
  update every 1 steps, delay 10 steps, check yes
  max neighbors/atom: 2000, page size: 100000
  master list distance cutoff = 16
  ghost atom cutoff = 16
  binsize = 8, bins = 6 6 6
  3 neighbor lists, perpetual/occasional/extra = 3 0 0
  (1) pair buck6d/coul/gauss/dsf, perpetual, skip from (3)
      attributes: half, newton on
      pair build: skip
      stencil: none
      bin: none
  (2) pair lj/cut, perpetual, skip from (3)
      attributes: half, newton on
      pair build: skip
      stencil: none
      bin: none
  (3) neighbor class addition, perpetual
      attributes: half, newton on
      pair build: half/bin/newton
      stencil: half/bin/3d/newton
      bin: standard
Setting up Verlet run ...
  Unit style    : real
  Current step  : 506
  Time step     : 1
WARNING: Inconsistent image flags (../domain.cpp:786)
Per MPI rank memory allocation (min/avg/max) = 22.52 | 22.7 | 23.29 Mbytes
Step Temp PotEng TotEng Press Volume Lx Ly Lz 
     506          110   -7825.8125   -7255.9412   -271.87776     102002.7      46.7237      46.7237      46.7237 
    1000    94.575263   -7308.4974   -6818.5363   -821.94058     102002.7      46.7237      46.7237      46.7237 
    2000    103.80124   -7198.1345   -6660.3768   -775.87582     102002.7      46.7237      46.7237      46.7237 
    3000    105.34509   -7246.4324   -6700.6766   -1036.0712     102002.7      46.7237      46.7237      46.7237 
    4000     108.4629   -7250.4474   -6688.5393   -529.59814     102002.7      46.7237      46.7237      46.7237 
    5000    110.62345    -7244.996   -6671.8948   -1025.7904     102002.7      46.7237      46.7237      46.7237 
    6000    106.11163   -7270.6788   -6720.9518   -766.87227     102002.7      46.7237      46.7237      46.7237 
    7000    107.58468   -7239.9369   -6682.5786   -856.62076     102002.7      46.7237      46.7237      46.7237 
    8000    111.48642   -7256.0868   -6678.5149   -727.71792     102002.7      46.7237      46.7237      46.7237 
    9000    111.23751   -7254.8145   -6678.5321   -627.84495     102002.7      46.7237      46.7237      46.7237 
   10000    106.69618    -7259.042   -6706.2866   -803.32179     102002.7      46.7237      46.7237      46.7237 
   11000    110.60364    -7254.637   -6681.6385   -801.35253     102002.7      46.7237      46.7237      46.7237 
   12000     110.8457   -7248.0909   -6673.8383   -937.01966     102002.7      46.7237      46.7237      46.7237 
   13000    109.42113   -7244.5805   -6677.7082   -722.77984     102002.7      46.7237      46.7237      46.7237 
   14000     103.5027   -7255.4193   -6719.2082   -953.43376     102002.7      46.7237      46.7237      46.7237 
   15000    110.62649   -7244.1949    -6671.078   -707.26926     102002.7      46.7237      46.7237      46.7237 
   16000    106.83643   -7245.2398   -6691.7578   -653.77171     102002.7      46.7237      46.7237      46.7237 
   17000    109.20792   -7243.1029   -6677.3351   -554.86666     102002.7      46.7237      46.7237      46.7237 
   18000    113.09633   -7239.0349   -6653.1227   -403.70403     102002.7      46.7237      46.7237      46.7237 
   19000    108.99335    -7255.826   -6691.1698   -857.44458     102002.7      46.7237      46.7237      46.7237 
   20000    109.49664   -7247.9756   -6680.7121   -709.59222     102002.7      46.7237      46.7237      46.7237 
   21000     106.7555   -7239.9585   -6686.8958   -958.88701     102002.7      46.7237      46.7237      46.7237 
   22000    110.19829   -7264.8363   -6693.9378   -869.86537     102002.7      46.7237      46.7237      46.7237 
   23000    111.87019      -7244.2     -6664.64   -859.26311     102002.7      46.7237      46.7237      46.7237 
   24000    110.01783   -7249.6684   -6679.7048   -792.76856     102002.7      46.7237      46.7237      46.7237 
   25000    110.49771   -7230.9414   -6658.4916   -577.51431     102002.7      46.7237      46.7237      46.7237 
   26000    108.93202   -7233.2062   -6668.8678   -839.85981     102002.7      46.7237      46.7237      46.7237 
   27000    113.78997   -7265.3393   -6675.8336   -805.70969     102002.7      46.7237      46.7237      46.7237 
   28000    107.75762     -7266.75   -6708.4957   -905.66297     102002.7      46.7237      46.7237      46.7237 
   29000    114.37263   -7241.8292   -6649.3049   -518.16415     102002.7      46.7237      46.7237      46.7237 
   30000    108.24947   -7241.9777   -6681.1753   -637.95721     102002.7      46.7237      46.7237      46.7237 
   31000    108.77765   -7253.2044   -6689.6657   -999.38077     102002.7      46.7237      46.7237      46.7237 
   32000    108.83043   -7256.1744   -6692.3623   -802.45395     102002.7      46.7237      46.7237      46.7237 
   33000    110.77746   -7265.7161   -6691.8171   -779.50372     102002.7      46.7237      46.7237      46.7237 
   34000    110.48417   -7246.6525   -6674.2729   -609.21458     102002.7      46.7237      46.7237      46.7237 
   35000    108.75506   -7262.1084   -6698.6867   -1001.2229     102002.7      46.7237      46.7237      46.7237 
   36000    109.32524   -7240.4399   -6674.0644   -390.30235     102002.7      46.7237      46.7237      46.7237 
   37000    107.86112   -7253.7909   -6695.0005   -474.28902     102002.7      46.7237      46.7237      46.7237 
   38000    108.52759   -7257.9288   -6695.6856   -628.18225     102002.7      46.7237      46.7237      46.7237 
   39000    112.04855   -7232.6537   -6652.1696   -672.01094     102002.7      46.7237      46.7237      46.7237 
   40000    110.88673   -7246.5549   -6672.0897   -656.90823     102002.7      46.7237      46.7237      46.7237 
   41000    107.98184   -7262.0987   -6702.6828   -703.82057     102002.7      46.7237      46.7237      46.7237 
   42000    110.64641   -7257.6447   -6684.4246   -757.76646     102002.7      46.7237      46.7237      46.7237 
   43000    107.84564   -7257.5427   -6698.8324   -1037.4596     102002.7      46.7237      46.7237      46.7237 
   44000     112.0675   -7256.6918   -6676.1095   -1093.5021     102002.7      46.7237      46.7237      46.7237 
   45000    107.60277   -7243.3465   -6685.8945   -786.93313     102002.7      46.7237      46.7237      46.7237 
   46000    109.05602   -7252.8708   -6687.8899    -745.3702     102002.7      46.7237      46.7237      46.7237 
   47000    109.34693   -7241.3506   -6674.8627   -616.21408     102002.7      46.7237      46.7237      46.7237 
   48000    111.82016   -7249.5781   -6670.2772   -802.64038     102002.7      46.7237      46.7237      46.7237 
   49000    111.58252   -7266.2626   -6688.1929   -845.28252     102002.7      46.7237      46.7237      46.7237 
   50000    112.67907   -7235.4186    -6651.668   -801.48666     102002.7      46.7237      46.7237      46.7237 
   51000    106.64587    -7228.256   -6675.7613   -981.02286     102002.7      46.7237      46.7237      46.7237 
   52000    110.72813   -7255.8088   -6682.1654   -1056.9447     102002.7      46.7237      46.7237      46.7237 
   53000    109.90785   -7243.3384   -6673.9445   -665.04511     102002.7      46.7237      46.7237      46.7237 
   54000    111.08367   -7247.8871   -6672.4018   -148.32435     102002.7      46.7237      46.7237      46.7237 
   55000    108.43821   -7250.2462   -6688.4661   -582.32267     102002.7      46.7237      46.7237      46.7237 
   56000    111.43116   -7259.6667   -6682.3811   -368.63311     102002.7      46.7237      46.7237      46.7237 
   57000    111.07686   -7237.1484   -6661.6984   -629.81814     102002.7      46.7237      46.7237      46.7237 
   58000    106.51668   -7258.9175   -6707.0921   -562.30363     102002.7      46.7237      46.7237      46.7237 
   59000    111.40394   -7247.1127   -6669.9681    -883.0667     102002.7      46.7237      46.7237      46.7237 
   60000    105.56515   -7252.8466   -6705.9507   -995.36315     102002.7      46.7237      46.7237      46.7237 
   61000    110.07272   -7262.0744   -6691.8264   -669.03926     102002.7      46.7237      46.7237      46.7237 
   62000    111.56238   -7227.8546   -6649.8892   -987.81303     102002.7      46.7237      46.7237      46.7237 
   63000    111.23564    -7243.132   -6666.8594   -534.16146     102002.7      46.7237      46.7237      46.7237 
   64000    108.40587   -7271.4585   -6709.8458   -438.97163     102002.7      46.7237      46.7237      46.7237 
   65000     111.5436   -7245.3344   -6667.4663   -578.69194     102002.7      46.7237      46.7237      46.7237 
   66000    110.39622    -7252.494     -6680.57   -734.41502     102002.7      46.7237      46.7237      46.7237 
   67000     111.3059   -7237.6812   -6661.0446   -823.47706     102002.7      46.7237      46.7237      46.7237 
   68000    111.32662   -7271.0254   -6694.2814   -524.82981     102002.7      46.7237      46.7237      46.7237 
   69000    108.41216   -7244.8867   -6683.2415   -735.09841     102002.7      46.7237      46.7237      46.7237 
   70000    111.54677   -7249.0554   -6671.1709   -726.69796     102002.7      46.7237      46.7237      46.7237 
   71000    108.50218   -7255.0786    -6692.967   -748.39782     102002.7      46.7237      46.7237      46.7237 
   72000    110.35954   -7248.1187   -6676.3847   -992.41269     102002.7      46.7237      46.7237      46.7237 
   73000    109.19702   -7275.0266   -6709.3152   -756.74922     102002.7      46.7237      46.7237      46.7237 
   74000     111.1477   -7247.0303   -6671.2132    -1023.206     102002.7      46.7237      46.7237      46.7237 
   75000    113.25011    -7251.496   -6664.7871   -959.98687     102002.7      46.7237      46.7237      46.7237 
   76000     109.2676   -7255.5782   -6689.5013   -682.66658     102002.7      46.7237      46.7237      46.7237 
   77000    113.52563   -7251.6791   -6663.5428   -555.28076     102002.7      46.7237      46.7237      46.7237 
   78000    107.19383   -7250.3945    -6695.061   -530.36725     102002.7      46.7237      46.7237      46.7237 
   79000    107.18976   -7258.3772   -6703.0648   -775.58459     102002.7      46.7237      46.7237      46.7237 
   80000    109.63548   -7260.3979   -6692.4151   -828.24453     102002.7      46.7237      46.7237      46.7237 
   81000    111.14328   -7253.1819   -6677.3877   -943.29193     102002.7      46.7237      46.7237      46.7237 
   82000    110.42755   -7275.7232   -6703.6369   -663.64439     102002.7      46.7237      46.7237      46.7237 
   83000    105.46431    -7235.197   -6688.8236   -930.61075     102002.7      46.7237      46.7237      46.7237 
   84000    112.24872   -7253.3526   -6671.8315   -874.69863     102002.7      46.7237      46.7237      46.7237 
   85000    107.16811   -7249.4797   -6694.2794   -697.07789     102002.7      46.7237      46.7237      46.7237 
   86000    115.34635   -7253.4725   -6655.9037   -1108.3021     102002.7      46.7237      46.7237      46.7237 
   87000    109.82391    -7258.243   -6689.2841   -853.88031     102002.7      46.7237      46.7237      46.7237 
   88000    111.11126    -7247.362   -6671.7337   -933.98802     102002.7      46.7237      46.7237      46.7237 
   89000    108.71076   -7245.0441    -6681.852   -915.30465     102002.7      46.7237      46.7237      46.7237 
   90000    108.04119    -7249.564   -6689.8406    -896.4031     102002.7      46.7237      46.7237      46.7237 
   91000     110.1644      -7245.1    -6674.377   -743.44459     102002.7      46.7237      46.7237      46.7237 
   92000     108.9106   -7249.2476   -6685.0201   -806.36669     102002.7      46.7237      46.7237      46.7237 
   93000    110.11701   -7247.4261   -6676.9487   -654.29229     102002.7      46.7237      46.7237      46.7237 
   94000    106.71594   -7259.6926   -6706.8349   -700.26444     102002.7      46.7237      46.7237      46.7237 
   95000    109.04405   -7233.8179    -6668.899    -793.0973     102002.7      46.7237      46.7237      46.7237 
   96000    108.41164   -7240.1129   -6678.4703    -662.2257     102002.7      46.7237      46.7237      46.7237 
   97000    107.71761   -7233.5374   -6675.4903   -686.22729     102002.7      46.7237      46.7237      46.7237 
   98000    109.48469   -7272.0467   -6704.8451   -634.75933     102002.7      46.7237      46.7237      46.7237 
   99000    112.68245   -7255.5253   -6671.7572    -638.2058     102002.7      46.7237      46.7237      46.7237 
  100000    110.49378   -7221.0958   -6648.6665   -527.76548     102002.7      46.7237      46.7237      46.7237 
  101000     109.9307   -7258.5417   -6689.0294   -725.74482     102002.7      46.7237      46.7237      46.7237 
  102000    113.76716   -7247.6398   -6658.2522   -717.11557     102002.7      46.7237      46.7237      46.7237 
  103000    112.67389   -7253.1153   -6669.3915   -784.80091     102002.7      46.7237      46.7237      46.7237 
  104000    111.75469   -7254.8215   -6675.8598   -660.13471     102002.7      46.7237      46.7237      46.7237 
  105000    108.14794   -7260.6122   -6700.3358   -1033.7342     102002.7      46.7237      46.7237      46.7237 
  106000    109.47865   -7241.3069   -6674.1366   -455.08999     102002.7      46.7237      46.7237      46.7237 
  107000    110.56777   -7265.8607    -6693.048   -1008.5053     102002.7      46.7237      46.7237      46.7237 
  108000    106.77294   -7253.8426   -6700.6896   -906.05649     102002.7      46.7237      46.7237      46.7237 
  109000    109.65697   -7253.1538   -6685.0596   -726.74034     102002.7      46.7237      46.7237      46.7237 
  110000    109.19073   -7246.0706   -6680.3919   -1098.9686     102002.7      46.7237      46.7237      46.7237 
  111000    109.52273   -7255.4351   -6688.0364   -596.58909     102002.7      46.7237      46.7237      46.7237 
  112000    110.93369   -7236.0115   -6661.3031   -873.73527     102002.7      46.7237      46.7237      46.7237 
  113000    110.98747   -7262.3482   -6687.3612     -584.587     102002.7      46.7237      46.7237      46.7237 
  114000    111.73006    -7247.029   -6668.1949   -857.00377     102002.7      46.7237      46.7237      46.7237 
  115000    111.97325   -7265.4722   -6685.3782   -769.10036     102002.7      46.7237      46.7237      46.7237 
  116000    107.28424   -7268.3726   -6712.5707   -819.74815     102002.7      46.7237      46.7237      46.7237 
  117000    109.65844   -7229.1049   -6661.0031    -806.9497     102002.7      46.7237      46.7237      46.7237 
  118000    108.71246   -7233.7392   -6670.5382    -812.0235     102002.7      46.7237      46.7237      46.7237 
  119000    110.12131     -7272.11   -6701.6103   -742.68885     102002.7      46.7237      46.7237      46.7237 
  120000    113.02985   -7247.6759   -6662.1081   -581.59768     102002.7      46.7237      46.7237      46.7237 
  121000    109.84703   -7252.8573   -6683.7785   -1055.5524     102002.7      46.7237      46.7237      46.7237 
  122000    109.90865   -7231.8124   -6662.4144   -605.35037     102002.7      46.7237      46.7237      46.7237 
  123000      111.057   -7256.5713    -6681.224   -818.91341     102002.7      46.7237      46.7237      46.7237 
  124000    108.06869   -7256.1399   -6696.2741   -609.84009     102002.7      46.7237      46.7237      46.7237 
  125000    110.39739    -7246.396    -6674.466   -760.92125     102002.7      46.7237      46.7237      46.7237 
  126000    109.17619   -7257.9482   -6692.3448    -869.2305     102002.7      46.7237      46.7237      46.7237 
  127000    110.13322   -7276.9101   -6706.3487    -756.5319     102002.7      46.7237      46.7237      46.7237 
  128000    108.36749   -7252.9343   -6691.5204   -780.96574     102002.7      46.7237      46.7237      46.7237 
  129000    112.46514   -7258.6967   -6676.0544   -770.13943     102002.7      46.7237      46.7237      46.7237 
  130000    107.91026   -7260.7464   -6701.7014    -663.7575     102002.7      46.7237      46.7237      46.7237 
  131000    108.20465   -7235.2669   -6674.6967   -607.26621     102002.7      46.7237      46.7237      46.7237 
  132000    108.80783   -7253.9244   -6690.2294   -633.17205     102002.7      46.7237      46.7237      46.7237 
  133000    109.55449   -7246.3443   -6678.7811   -704.06972     102002.7      46.7237      46.7237      46.7237 
  134000    111.50536   -7242.4234   -6664.7534   -671.01476     102002.7      46.7237      46.7237      46.7237 
  135000    108.78715   -7260.8076   -6697.2197   -494.19526     102002.7      46.7237      46.7237      46.7237 
  136000    115.58786   -7252.0819   -6653.2619   -793.13216     102002.7      46.7237      46.7237      46.7237 
  137000    112.97743   -7258.2562   -6672.9599   -398.98371     102002.7      46.7237      46.7237      46.7237 
  138000    110.69812   -7241.2436   -6667.7557   -379.19694     102002.7      46.7237      46.7237      46.7237 
  139000    106.91794   -7272.5955   -6718.6914   -711.38398     102002.7      46.7237      46.7237      46.7237 
  140000    112.41943     -7243.57   -6661.1646   -566.70177     102002.7      46.7237      46.7237      46.7237 
  141000    106.82311    -7227.843   -6674.4301   -662.33183     102002.7      46.7237      46.7237      46.7237 
  142000    107.42928    -7260.839   -6704.2857   -778.77941     102002.7      46.7237      46.7237      46.7237 
  143000    115.54045   -7244.6664    -6646.092   -748.73573     102002.7      46.7237      46.7237      46.7237 
  144000    107.97651   -7252.3387   -6692.9504   -853.90767     102002.7      46.7237      46.7237      46.7237 
  145000    109.21898   -7223.4797   -6657.6547   -930.65342     102002.7      46.7237      46.7237      46.7237 
  146000    106.93391   -7246.9081   -6692.9212   -854.00244     102002.7      46.7237      46.7237      46.7237 
  147000     109.0103   -7263.9963   -6699.2524   -689.30271     102002.7      46.7237      46.7237      46.7237 
  148000    108.53752   -7256.5835   -6694.2888   -522.94068     102002.7      46.7237      46.7237      46.7237 
  149000    109.19348    -7268.097   -6702.4041   -785.71277     102002.7      46.7237      46.7237      46.7237 
  150000      106.941   -7241.3377    -6687.314   -735.96755     102002.7      46.7237      46.7237      46.7237 
  151000    107.78516   -7260.2995   -6701.9025   -778.68074     102002.7      46.7237      46.7237      46.7237 
  152000    109.77599   -7249.3558   -6680.6451   -626.50415     102002.7      46.7237      46.7237      46.7237 
  153000    112.08417   -7242.1335   -6661.4649   -821.16257     102002.7      46.7237      46.7237      46.7237 
  154000    110.94136   -7260.8775   -6686.1294   -568.52542     102002.7      46.7237      46.7237      46.7237 
  155000    113.69705   -7259.5836   -6670.5592   -607.57502     102002.7      46.7237      46.7237      46.7237 
  156000    105.83892   -7238.5711   -6690.2569   -750.13525     102002.7      46.7237      46.7237      46.7237 
  157000    115.17753   -7245.0255   -6648.3313   -689.35554     102002.7      46.7237      46.7237      46.7237 
  158000     107.6057   -7247.5495   -6690.0823   -707.22787     102002.7      46.7237      46.7237      46.7237 
  159000     109.8069    -7272.035   -6703.1641   -564.44223     102002.7      46.7237      46.7237      46.7237 
  160000    113.83566   -7253.1829   -6663.4404    -763.0292     102002.7      46.7237      46.7237      46.7237 
  161000     108.9269   -7240.1848   -6675.8729   -678.56245     102002.7      46.7237      46.7237      46.7237 
  162000    104.81841   -7266.1339   -6723.1066   -597.62683     102002.7      46.7237      46.7237      46.7237 
  163000     109.4209   -7246.3203   -6679.4492   -1050.0149     102002.7      46.7237      46.7237      46.7237 
  164000    105.71428   -7262.9407   -6715.2722   -753.22383     102002.7      46.7237      46.7237      46.7237 
  165000    108.00108   -7229.7184   -6670.2028   -722.30527     102002.7      46.7237      46.7237      46.7237 
  166000    105.04238   -7240.7293   -6696.5417    -493.9104     102002.7      46.7237      46.7237      46.7237 
  167000    114.49273   -7234.1891   -6641.0426   -968.18497     102002.7      46.7237      46.7237      46.7237 
  168000     107.8863   -7264.3896   -6705.4686   -660.44486     102002.7      46.7237      46.7237      46.7237 
  169000    109.78807   -7241.3509   -6672.5776   -700.23641     102002.7      46.7237      46.7237      46.7237 
  170000    112.77469   -7239.1366   -6654.8906   -566.17768     102002.7      46.7237      46.7237      46.7237 
  171000    108.34644   -7256.9139   -6695.6091   -801.75492     102002.7      46.7237      46.7237      46.7237 
  172000    110.42991   -7241.5293   -6669.4309   -1007.2251     102002.7      46.7237      46.7237      46.7237 
  173000    106.17671   -7224.4143   -6674.3501   -726.60823     102002.7      46.7237      46.7237      46.7237 
  174000    111.78084   -7248.9085   -6669.8113   -799.99987     102002.7      46.7237      46.7237      46.7237 
  175000    109.97632   -7244.0962   -6674.3476   -498.51633     102002.7      46.7237      46.7237      46.7237 
  176000    107.71303   -7252.4689   -6694.4456   -434.90351     102002.7      46.7237      46.7237      46.7237 
  177000     113.5423   -7235.7203   -6647.4976   -979.31109     102002.7      46.7237      46.7237      46.7237 
  178000    110.45795   -7263.9756   -6691.7318   -551.06665     102002.7      46.7237      46.7237      46.7237 
  179000    112.35554   -7244.5405    -6662.466   -1027.1533     102002.7      46.7237      46.7237      46.7237 
  180000    108.10723   -7252.9123   -6692.8468   -584.48836     102002.7      46.7237      46.7237      46.7237 
  181000    111.12486   -7226.0615   -6650.3627    -854.2821     102002.7      46.7237      46.7237      46.7237 
  182000    107.54634   -7247.4558    -6690.296   -1033.5936     102002.7      46.7237      46.7237      46.7237 
  183000    109.58779     -7229.06   -6661.3242   -693.88257     102002.7      46.7237      46.7237      46.7237 
  184000     110.2446   -7244.7604   -6673.6219    -1006.336     102002.7      46.7237      46.7237      46.7237 
  185000    108.68013   -7257.8658   -6694.8323   -527.31803     102002.7      46.7237      46.7237      46.7237 
  186000    111.70529   -7240.5085   -6661.8028   -1005.5366     102002.7      46.7237      46.7237      46.7237 
  187000    109.93753   -7278.8563   -6709.3087   -498.44328     102002.7      46.7237      46.7237      46.7237 
  188000    112.16216   -7252.4455   -6671.3728   -575.71613     102002.7      46.7237      46.7237      46.7237 
  189000    110.63539   -7245.6647   -6672.5017   -1133.9375     102002.7      46.7237      46.7237      46.7237 
  190000    110.94253   -7265.9793   -6691.2251   -776.71807     102002.7      46.7237      46.7237      46.7237 
  191000    112.28021   -7239.7633   -6658.0791    -978.0665     102002.7      46.7237      46.7237      46.7237 
  192000    107.86038    -7255.845   -6697.0583    -876.0871     102002.7      46.7237      46.7237      46.7237 
  193000    103.33839   -7240.3472   -6704.9874   -633.24293     102002.7      46.7237      46.7237      46.7237 
  194000    110.97197   -7260.9486   -6686.0419   -702.71992     102002.7      46.7237      46.7237      46.7237 
  195000    109.71299   -7244.9176   -6676.5333   -792.87562     102002.7      46.7237      46.7237      46.7237 
  196000    107.21811   -7258.9658   -6703.5065   -775.90757     102002.7      46.7237      46.7237      46.7237 
  197000    112.76995   -7273.3223   -6689.1009    -744.8551     102002.7      46.7237      46.7237      46.7237 
  198000    111.77067   -7265.8096   -6686.7652   -728.03344     102002.7      46.7237      46.7237      46.7237 
  199000    107.04603   -7258.4188    -6703.851   -531.77035     102002.7      46.7237      46.7237      46.7237 
  200000    108.10655   -7237.4965   -6677.4345   -465.90429     102002.7      46.7237      46.7237      46.7237 
  201000    110.41399   -7248.5644   -6676.5483   -388.40715     102002.7      46.7237      46.7237      46.7237 
  202000    106.51074   -7254.1254   -6702.3307   -460.68445     102002.7      46.7237      46.7237      46.7237 
  203000    113.26279   -7253.3621   -6666.5875   -651.30398     102002.7      46.7237      46.7237      46.7237 
  204000    106.07397     -7233.74   -6684.2081   -661.01398     102002.7      46.7237      46.7237      46.7237 
  205000    111.13964   -7271.8914    -6696.116   -720.49563     102002.7      46.7237      46.7237      46.7237 
  206000    107.72778   -7254.5956   -6696.4959   -639.14337     102002.7      46.7237      46.7237      46.7237 
  207000     109.0298   -7247.4036   -6682.5586   -927.74829     102002.7      46.7237      46.7237      46.7237 
  208000    113.25493   -7240.3325   -6653.5987   -707.71106     102002.7      46.7237      46.7237      46.7237 
  209000    104.80435   -7240.0132   -6697.0588   -794.28633     102002.7      46.7237      46.7237      46.7237 
  210000    109.14016   -7260.5136   -6695.0968   -611.34369     102002.7      46.7237      46.7237      46.7237 
  211000    110.96905   -7246.1679   -6671.2763   -642.47337     102002.7      46.7237      46.7237      46.7237 
  212000    109.35029    -7256.205   -6689.6997    -966.3361     102002.7      46.7237      46.7237      46.7237 
  213000    110.12873   -7264.2679   -6693.7297   -423.73363     102002.7      46.7237      46.7237      46.7237 
  214000    111.39764   -7256.7597   -6679.6477   -491.54282     102002.7      46.7237      46.7237      46.7237 
  215000    110.27295   -7251.0583   -6679.7729   -479.48351     102002.7      46.7237      46.7237      46.7237 
  216000    109.37565   -7273.3228   -6706.6861   -648.45772     102002.7      46.7237      46.7237      46.7237 
  217000    114.02202   -7261.3743   -6670.6664   -696.76246     102002.7      46.7237      46.7237      46.7237 
  218000    112.45466   -7232.4761   -6649.8881   -654.37744     102002.7      46.7237      46.7237      46.7237 
  219000    111.82239    -7275.374   -6696.0616   -962.24289     102002.7      46.7237      46.7237      46.7237 
  220000    107.92059   -7265.6065   -6706.5079   -981.97357     102002.7      46.7237      46.7237      46.7237 
  221000    109.36516   -7246.5968   -6680.0144   -684.35918     102002.7      46.7237      46.7237      46.7237 
  222000    111.67966   -7243.2513   -6664.6783   -738.49924     102002.7      46.7237      46.7237      46.7237 
  223000    112.29903   -7253.7081   -6671.9263   -792.80935     102002.7      46.7237      46.7237      46.7237 
  224000    108.47313    -7261.395   -6699.4339   -648.42239     102002.7      46.7237      46.7237      46.7237 
  225000    106.87523   -7237.1867   -6683.5037   -825.43542     102002.7      46.7237      46.7237      46.7237 
  226000    113.78406   -7256.8459   -6667.3708   -940.62096     102002.7      46.7237      46.7237      46.7237 
  227000    106.94864   -7246.9692   -6692.9059   -696.67762     102002.7      46.7237      46.7237      46.7237 
  228000    109.31675   -7247.2396    -6680.908   -854.20128     102002.7      46.7237      46.7237      46.7237 
  229000    109.10665    -7239.929   -6674.6859   -785.53453     102002.7      46.7237      46.7237      46.7237 
  230000    114.36892   -7257.2294   -6664.7242   -506.89673     102002.7      46.7237      46.7237      46.7237 
  231000    112.37574   -7270.3561   -6688.1769   -376.80441     102002.7      46.7237      46.7237      46.7237 
  232000    109.00615   -7253.7078   -6688.9853   -541.26015     102002.7      46.7237      46.7237      46.7237 
  233000     112.2805   -7256.5152   -6674.8295   -514.05317     102002.7      46.7237      46.7237      46.7237 
  234000    109.18585   -7246.4535   -6680.8001   -520.44569     102002.7      46.7237      46.7237      46.7237 
  235000    109.46425    -7256.782   -6689.6863   -459.05942     102002.7      46.7237      46.7237      46.7237 
  236000    113.86711   -7253.9549   -6664.0495   -529.32916     102002.7      46.7237      46.7237      46.7237 
  237000    105.60945   -7240.6631   -6693.5378   -698.09179     102002.7      46.7237      46.7237      46.7237 
  238000     108.3797   -7236.1442   -6674.6671   -650.79028     102002.7      46.7237      46.7237      46.7237 
  239000    106.62458   -7243.3021   -6690.9177   -643.86856     102002.7      46.7237      46.7237      46.7237 
  240000    107.65778   -7245.2048   -6687.4677   -785.35158     102002.7      46.7237      46.7237      46.7237 
  241000    111.05563   -7247.5414   -6672.2013   -511.65799     102002.7      46.7237      46.7237      46.7237 
  242000    106.01784   -7245.6104   -6696.3693   -972.63248     102002.7      46.7237      46.7237      46.7237 
  243000    107.82562   -7254.6391   -6696.0325   -772.51826     102002.7      46.7237      46.7237      46.7237 
  244000     111.5289   -7261.2301   -6683.4381   -836.67184     102002.7      46.7237      46.7237      46.7237 
  245000    107.54416   -7253.5424    -6696.394    -749.5589     102002.7      46.7237      46.7237      46.7237 
  246000    109.87717   -7248.7062   -6679.4713   -650.03621     102002.7      46.7237      46.7237      46.7237 
  247000    112.52371   -7256.8747   -6673.9289    -727.5021     102002.7      46.7237      46.7237      46.7237 
  248000    109.48044   -7266.2571   -6699.0775   -794.00517     102002.7      46.7237      46.7237      46.7237 
  249000    110.29819   -7247.0175   -6675.6014   -756.25103     102002.7      46.7237      46.7237      46.7237 
  250000    109.34232   -7238.3189   -6671.8548   -728.05827     102002.7      46.7237      46.7237      46.7237 
  251000    106.97645   -7244.7638   -6690.5565   -640.69197     102002.7      46.7237      46.7237      46.7237 
  252000    108.52375   -7251.4505   -6689.2271   -597.34514     102002.7      46.7237      46.7237      46.7237 
  253000    110.73329   -7242.6401   -6668.9699   -784.82218     102002.7      46.7237      46.7237      46.7237 
  254000    110.02143   -7255.3056   -6685.3233   -702.41891     102002.7      46.7237      46.7237      46.7237 
  255000    109.53117   -7236.0096   -6668.5672   -517.49327     102002.7      46.7237      46.7237      46.7237 
  256000    112.42895    -7232.796   -6650.3412   -698.37936     102002.7      46.7237      46.7237      46.7237 
  257000    108.84198   -7250.0129    -6686.141   -537.49832     102002.7      46.7237      46.7237      46.7237 
  258000    111.37316   -7236.8565   -6659.8714   -859.74512     102002.7      46.7237      46.7237      46.7237 
  259000    106.76215   -7235.1825   -6682.0854   -830.54499     102002.7      46.7237      46.7237      46.7237 
  260000    113.65848   -7230.5385   -6641.7139   -997.14691     102002.7      46.7237      46.7237      46.7237 
  261000    112.52214   -7265.4252   -6682.4876   -784.78039     102002.7      46.7237      46.7237      46.7237 
  262000    111.42781   -7234.7819   -6657.5137   -437.94885     102002.7      46.7237      46.7237      46.7237 
  263000    111.60202   -7248.1285   -6669.9577   -597.89848     102002.7      46.7237      46.7237      46.7237 
  264000    109.07543   -7240.5466   -6675.4653   -614.10022     102002.7      46.7237      46.7237      46.7237 
  265000    106.64147   -7237.0247   -6684.5528   -805.00116     102002.7      46.7237      46.7237      46.7237 
  266000      109.772   -7242.5596   -6673.8695   -472.27797     102002.7      46.7237      46.7237      46.7237 
  267000    111.25868    -7269.603   -6693.2109   -649.26922     102002.7      46.7237      46.7237      46.7237 
  268000    113.17609   -7255.4756   -6669.1501   -562.51092     102002.7      46.7237      46.7237      46.7237 
  269000    108.29878   -7262.3674   -6701.3096   -676.12276     102002.7      46.7237      46.7237      46.7237 
  270000    108.07383    -7251.974   -6692.0816   -903.25988     102002.7      46.7237      46.7237      46.7237 
  271000    109.84876   -7245.3871   -6676.2994   -637.42998     102002.7      46.7237      46.7237      46.7237 
  272000    110.94181   -7256.4055   -6681.6551   -848.19724     102002.7      46.7237      46.7237      46.7237 
  273000    111.22326   -7256.1871   -6679.9785   -819.46946     102002.7      46.7237      46.7237      46.7237 
  274000    110.61069   -7260.5688   -6687.5338   -808.54669     102002.7      46.7237      46.7237      46.7237 
  275000    108.91425    -7270.006   -6705.7597   -740.09331     102002.7      46.7237      46.7237      46.7237 
  276000    106.86007   -7227.3659   -6673.7615   -632.59013     102002.7      46.7237      46.7237      46.7237 
  277000    111.61672   -7246.3517   -6668.1048   -814.27338     102002.7      46.7237      46.7237      46.7237 
  278000    112.90058   -7263.9972   -6679.0991   -584.99017     102002.7      46.7237      46.7237      46.7237 
  279000    108.34781   -7237.1021   -6675.7903   -785.31452     102002.7      46.7237      46.7237      46.7237 
  280000    111.67219   -7256.0653    -6677.531   -216.77706     102002.7      46.7237      46.7237      46.7237 
  281000    109.06869   -7256.7816   -6691.7351    -541.0039     102002.7      46.7237      46.7237      46.7237 
  282000    111.07107   -7243.6788   -6668.2587   -394.43871     102002.7      46.7237      46.7237      46.7237 
  283000    109.96233   -7253.2693   -6683.5932   -575.85701     102002.7      46.7237      46.7237      46.7237 
  284000    106.43423   -7236.6573    -6685.259   -468.13309     102002.7      46.7237      46.7237      46.7237 
  285000    109.41272   -7253.6849   -6686.8561   -381.33801     102002.7      46.7237      46.7237      46.7237 
  286000    116.07791   -7266.4913   -6665.1325   -637.34769     102002.7      46.7237      46.7237      46.7237 
  287000    111.89832   -7265.9058   -6686.2001   -577.99755     102002.7      46.7237      46.7237      46.7237 
  288000    112.51293   -7237.7472   -6654.8573   -724.27574     102002.7      46.7237      46.7237      46.7237 
  289000    107.27764   -7230.6965   -6674.9288   -734.19545     102002.7      46.7237      46.7237      46.7237 
  290000    109.36809   -7246.7921   -6680.1945   -598.62591     102002.7      46.7237      46.7237      46.7237 
  291000    107.61839   -7268.6379   -6711.1049   -682.16551     102002.7      46.7237      46.7237      46.7237 
  292000    109.60505   -7254.2614   -6686.4363   -524.38378     102002.7      46.7237      46.7237      46.7237 
  293000    113.95689   -7243.3941   -6653.0236   -435.00762     102002.7      46.7237      46.7237      46.7237 
  294000     110.2733   -7261.9061    -6690.619     -636.922     102002.7      46.7237      46.7237      46.7237 
  295000    108.43189   -7238.3215    -6676.574   -933.29748     102002.7      46.7237      46.7237      46.7237 
  296000    109.25802   -7254.1088   -6688.0814   -952.76862     102002.7      46.7237      46.7237      46.7237 
  297000    110.74565   -7239.7619   -6666.0277   -645.54649     102002.7      46.7237      46.7237      46.7237 
  298000    111.19209   -7261.2805   -6685.2335   -790.05466     102002.7      46.7237      46.7237      46.7237 
  299000     107.0555   -7273.7561   -6719.1393   -706.83131     102002.7      46.7237      46.7237      46.7237 
  300000    109.32558   -7244.1645   -6677.7872   -652.82629     102002.7      46.7237      46.7237      46.7237 
  301000    107.50061    -7252.015   -6695.0922   -319.05668     102002.7      46.7237      46.7237      46.7237 
  302000    111.11382    -7255.787   -6680.1455   -794.64977     102002.7      46.7237      46.7237      46.7237 
  303000    108.94268   -7270.3579   -6705.9643    -666.2477     102002.7      46.7237      46.7237      46.7237 
  304000    107.62344   -7245.7465   -6688.1873    -700.1497     102002.7      46.7237      46.7237      46.7237 
  305000    108.66846   -7257.4988   -6694.5258   -470.40535     102002.7      46.7237      46.7237      46.7237 
  306000     112.4699   -7241.2475   -6658.5805   -574.65737     102002.7      46.7237      46.7237      46.7237 
  307000    108.13406   -7253.1732   -6692.9687   -720.97618     102002.7      46.7237      46.7237      46.7237 
  308000    110.30175   -7265.5206   -6694.0861   -634.73006     102002.7      46.7237      46.7237      46.7237 
  309000    112.05921   -7251.5565   -6671.0172   -787.30842     102002.7      46.7237      46.7237      46.7237 
  310000    112.05869   -7253.3886   -6672.8519   -977.63585     102002.7      46.7237      46.7237      46.7237 
  311000    109.03147   -7257.0251   -6692.1714   -693.91794     102002.7      46.7237      46.7237      46.7237 
  312000    107.46977   -7259.9456   -6703.1825   -616.17238     102002.7      46.7237      46.7237      46.7237 
  313000     105.9917   -7236.2208   -6687.1151    -479.6858     102002.7      46.7237      46.7237      46.7237 
  314000    111.19384    -7243.639   -6667.5829   -598.91105     102002.7      46.7237      46.7237      46.7237 
  315000    109.97638   -7249.7141   -6679.9652   -589.13631     102002.7      46.7237      46.7237      46.7237 
  316000    111.57969   -7234.4118   -6656.3567   -724.16276     102002.7      46.7237      46.7237      46.7237 
  317000    110.04613   -7258.6597   -6688.5494   -581.11621     102002.7      46.7237      46.7237      46.7237 
  318000    110.19837   -7255.3871   -6684.4882   -928.78029     102002.7      46.7237      46.7237      46.7237 
  319000    109.70391   -7235.4389   -6667.1016   -824.82249     102002.7      46.7237      46.7237      46.7237 
  320000     105.2786   -7262.3519   -6716.9406   -482.63612     102002.7      46.7237      46.7237      46.7237 
  321000     113.0198   -7251.7131   -6666.1973   -841.38577     102002.7      46.7237      46.7237      46.7237 
  322000    110.35916   -7265.2181   -6693.4862   -395.05462     102002.7      46.7237      46.7237      46.7237 
  323000    111.03282   -7259.6846   -6684.4627   -657.58951     102002.7      46.7237      46.7237      46.7237 
  324000    108.43329   -7234.1457    -6672.391   -807.35495     102002.7      46.7237      46.7237      46.7237 
  325000    108.92089   -7273.5439   -6709.2631   -733.91777     102002.7      46.7237      46.7237      46.7237 
  326000    108.57266   -7233.0079   -6670.5311   -770.90206     102002.7      46.7237      46.7237      46.7237 
  327000    107.56582   -7263.7188   -6706.4581   -599.12661     102002.7      46.7237      46.7237      46.7237 
  328000    109.76065    -7256.252   -6687.6207   -516.36603     102002.7      46.7237      46.7237      46.7237 
  329000    107.78272   -7236.7778   -6678.3935   -902.90003     102002.7      46.7237      46.7237      46.7237 
  330000    109.49108   -7265.3737    -6698.139   -468.40728     102002.7      46.7237      46.7237      46.7237 
  331000    109.49594   -7245.7095   -6678.4495   -743.28648     102002.7      46.7237      46.7237      46.7237 
  332000     108.9975   -7282.4195   -6717.7418   -1004.2674     102002.7      46.7237      46.7237      46.7237 
  333000    112.51559   -7252.0174   -6669.1138   -836.99473     102002.7      46.7237      46.7237      46.7237 
  334000     111.1854   -7236.3558   -6660.3434     -874.632     102002.7      46.7237      46.7237      46.7237 
  335000    111.89685   -7267.4859   -6687.7877   -801.33716     102002.7      46.7237      46.7237      46.7237 
  336000    109.08015   -7267.7806   -6702.6748   -804.76059     102002.7      46.7237      46.7237      46.7237 
  337000    108.77304   -7235.1723   -6671.6575   -904.94033     102002.7      46.7237      46.7237      46.7237 
  338000    108.69484   -7255.2759   -6692.1662   -836.98223     102002.7      46.7237      46.7237      46.7237 
  339000    111.60442   -7253.4346   -6675.2514    -819.4152     102002.7      46.7237      46.7237      46.7237 
  340000    109.26474   -7252.0204   -6685.9582    -963.9404     102002.7      46.7237      46.7237      46.7237 
  341000     110.2161   -7246.7899   -6675.7991   -595.48796     102002.7      46.7237      46.7237      46.7237 
  342000      113.316   -7238.9156   -6651.8653   -650.58561     102002.7      46.7237      46.7237      46.7237 
  343000    108.76456   -7240.9749    -6677.504    -823.7322     102002.7      46.7237      46.7237      46.7237 
  344000    107.05411   -7253.3126    -6698.703   -1033.5326     102002.7      46.7237      46.7237      46.7237 
  345000    108.70085   -7245.6312   -6682.4904   -923.56566     102002.7      46.7237      46.7237      46.7237 
  346000    108.17953    -7237.837    -6677.397   -888.58237     102002.7      46.7237      46.7237      46.7237 
  347000    109.09299   -7256.1954   -6691.0231   -891.26502     102002.7      46.7237      46.7237      46.7237 
  348000    108.66138   -7259.7915   -6696.8551   -914.70435     102002.7      46.7237      46.7237      46.7237 
  349000    112.21198   -7246.4425   -6665.1117   -809.44378     102002.7      46.7237      46.7237      46.7237 
  350000    108.69057   -7251.6244   -6688.5368   -477.56224     102002.7      46.7237      46.7237      46.7237 
  351000    106.45161   -7256.9835   -6705.4952   -731.85889     102002.7      46.7237      46.7237      46.7237 
  352000    113.41161   -7260.4388   -6672.8932   -518.76972     102002.7      46.7237      46.7237      46.7237 
  353000    110.42423   -7263.7519   -6691.6828   -653.64106     102002.7      46.7237      46.7237      46.7237 
  354000    111.46566   -7259.4992   -6682.0349   -530.49008     102002.7      46.7237      46.7237      46.7237 
  355000    110.33836    -7237.964   -6666.3398   -634.97252     102002.7      46.7237      46.7237      46.7237 
  356000    108.17822   -7252.3986   -6691.9653    -706.7161     102002.7      46.7237      46.7237      46.7237 
  357000    109.68082    -7261.173   -6692.9553    -362.5344     102002.7      46.7237      46.7237      46.7237 
  358000    109.98975   -7250.4173   -6680.5992   -845.00795     102002.7      46.7237      46.7237      46.7237 
  359000    111.96107   -7222.8946   -6642.8637   -773.31569     102002.7      46.7237      46.7237      46.7237 
  360000    110.02468    -7263.115   -6693.1159   -761.16711     102002.7      46.7237      46.7237      46.7237 
  361000    110.54586   -7247.9219   -6675.2227   -722.39516     102002.7      46.7237      46.7237      46.7237 
  362000     107.9805   -7253.1122   -6693.7033   -923.64329     102002.7      46.7237      46.7237      46.7237 
  363000    112.16692   -7251.6437   -6670.5464   -792.36628     102002.7      46.7237      46.7237      46.7237 
  364000    110.21342   -7254.9421   -6683.9652   -480.70226     102002.7      46.7237      46.7237      46.7237 
  365000    109.22968   -7261.1921   -6695.3117   -1001.4689     102002.7      46.7237      46.7237      46.7237 
  366000    111.48921   -7253.4385   -6675.8521   -723.88695     102002.7      46.7237      46.7237      46.7237 
  367000     110.3749   -7261.1843   -6689.3708   -680.24048     102002.7      46.7237      46.7237      46.7237 
  368000    110.35464   -7248.0347   -6676.3261   -650.96391     102002.7      46.7237      46.7237      46.7237 
  369000     109.0445   -7243.1406   -6678.2194   -519.34038     102002.7      46.7237      46.7237      46.7237 
  370000    114.51185    -7258.734   -6665.4884   -804.32377     102002.7      46.7237      46.7237      46.7237 
  371000    110.22291   -7267.6116   -6696.5855    -709.0025     102002.7      46.7237      46.7237      46.7237 
  372000    108.99088   -7260.7987   -6696.1553   -986.31422     102002.7      46.7237      46.7237      46.7237 
  373000    110.56765     -7238.37   -6665.5579   -732.43676     102002.7      46.7237      46.7237      46.7237 
  374000    111.38906   -7257.9352   -6680.8677   -937.69764     102002.7      46.7237      46.7237      46.7237 
  375000    105.73142   -7254.3585   -6706.6013   -669.41687     102002.7      46.7237      46.7237      46.7237 
  376000    110.80811    -7256.688   -6682.6302   -641.49527     102002.7      46.7237      46.7237      46.7237 
  377000     114.1114   -7250.5833   -6659.4123   -649.67753     102002.7      46.7237      46.7237      46.7237 
  378000    109.46886    -7254.034   -6686.9143   -482.96645     102002.7      46.7237      46.7237      46.7237 
  379000    107.51121   -7267.5549   -6710.5772   -909.95221     102002.7      46.7237      46.7237      46.7237 
  380000    108.10022   -7230.5686   -6670.5394   -849.91115     102002.7      46.7237      46.7237      46.7237 
  381000    108.76943     -7281.55   -6718.0539   -682.66256     102002.7      46.7237      46.7237      46.7237 
  382000    109.00507   -7250.3832   -6685.6664   -945.86327     102002.7      46.7237      46.7237      46.7237 
  383000    115.51154   -7231.8687   -6633.4441   -676.66122     102002.7      46.7237      46.7237      46.7237 
  384000    109.90648   -7268.8753   -6699.4885   -699.13955     102002.7      46.7237      46.7237      46.7237 
  385000    111.47415   -7257.7413    -6680.233   -852.44443     102002.7      46.7237      46.7237      46.7237 
  386000    109.03988   -7250.0989   -6685.2016   -743.97325     102002.7      46.7237      46.7237      46.7237 
  387000    108.40239   -7241.5788   -6679.9842   -845.20471     102002.7      46.7237      46.7237      46.7237 
  388000    109.30506   -7227.6726   -6661.4016   -1141.7818     102002.7      46.7237      46.7237      46.7237 
  389000    109.96135   -7264.7963   -6695.1253   -435.36281     102002.7      46.7237      46.7237      46.7237 
  390000    109.30765    -7240.412   -6674.1276   -932.29944     102002.7      46.7237      46.7237      46.7237 
  391000    113.87041   -7241.8201   -6651.8976   -661.78841     102002.7      46.7237      46.7237      46.7237 
  392000    110.08019   -7260.8587    -6690.572   -468.62017     102002.7      46.7237      46.7237      46.7237 
  393000     112.4174   -7232.8356   -6650.4406   -991.15831     102002.7      46.7237      46.7237      46.7237 
  394000    109.26423   -7249.6426   -6683.5831   -770.36825     102002.7      46.7237      46.7237      46.7237 
  395000    109.13285    -7256.203   -6690.8241   -641.44393     102002.7      46.7237      46.7237      46.7237 
  396000    111.66338   -7240.9485   -6662.4598   -808.14861     102002.7      46.7237      46.7237      46.7237 
  397000    108.39604   -7251.3559   -6689.7942   -905.50843     102002.7      46.7237      46.7237      46.7237 
  398000    109.95725   -7248.1286   -6678.4788   -885.39079     102002.7      46.7237      46.7237      46.7237 
  399000    111.02532   -7245.3319   -6670.1488   -983.28009     102002.7      46.7237      46.7237      46.7237 
  400000    108.13924   -7245.7539   -6685.5226   -980.34265     102002.7      46.7237      46.7237      46.7237 
  401000    110.26206   -7246.0342   -6674.8053   -845.89054     102002.7      46.7237      46.7237      46.7237 
  402000    104.82311   -7249.3599   -6706.3082    -936.8606     102002.7      46.7237      46.7237      46.7237 
  403000    110.93814   -7270.4957   -6695.7643   -381.08089     102002.7      46.7237      46.7237      46.7237 
  404000    109.65698   -7237.6577   -6669.5636   -858.87075     102002.7      46.7237      46.7237      46.7237 
  405000    111.19337   -7246.6631   -6670.6094   -401.52926     102002.7      46.7237      46.7237      46.7237 
  406000    111.80538   -7249.2724   -6670.0481   -201.95789     102002.7      46.7237      46.7237      46.7237 
  407000    112.12122   -7242.5593   -6661.6988   -616.88599     102002.7      46.7237      46.7237      46.7237 
  408000    110.25924   -7255.2232   -6684.0089   -428.66825     102002.7      46.7237      46.7237      46.7237 
  409000    107.38961   -7246.6422   -6690.2944   -515.83557     102002.7      46.7237      46.7237      46.7237 
  410000    110.79991   -7225.4108   -6651.3955   -554.70371     102002.7      46.7237      46.7237      46.7237 
  411000    110.08382   -7259.1451   -6688.8396   -661.02522     102002.7      46.7237      46.7237      46.7237 
  412000    110.88445   -7256.2856   -6681.8323   -415.18897     102002.7      46.7237      46.7237      46.7237 
  413000     113.9985   -7233.5362   -6642.9501   -626.84716     102002.7      46.7237      46.7237      46.7237 
  414000    111.77785   -7264.6568   -6685.5751   -481.42385     102002.7      46.7237      46.7237      46.7237 
  415000    107.74563   -7272.7772    -6714.585   -705.10414     102002.7      46.7237      46.7237      46.7237 
  416000    111.15179   -7262.5151   -6686.6767   -712.26027     102002.7      46.7237      46.7237      46.7237 
  417000    110.96809   -7239.6172   -6664.7306   -813.60604     102002.7      46.7237      46.7237      46.7237 
  418000    107.89026   -7274.8343   -6715.8928   -934.69919     102002.7      46.7237      46.7237      46.7237 
  419000    112.89388    -7256.948   -6672.0845   -706.03544     102002.7      46.7237      46.7237      46.7237 
  420000    103.86912   -7239.9819   -6701.8725   -840.88731     102002.7      46.7237      46.7237      46.7237 
  421000    114.33589   -7256.8343   -6664.5003   -815.39232     102002.7      46.7237      46.7237      46.7237 
  422000    109.76936   -7231.6216   -6662.9452    -708.6504     102002.7      46.7237      46.7237      46.7237 
  423000    108.57762   -7248.3103   -6685.8079   -734.81298     102002.7      46.7237      46.7237      46.7237 
  424000    108.21059   -7227.9403   -6667.3393   -944.35757     102002.7      46.7237      46.7237      46.7237 
  425000    109.60329    -7261.811    -6693.995   -737.56124     102002.7      46.7237      46.7237      46.7237 
  426000     110.9365   -7233.2616   -6658.5386   -766.95307     102002.7      46.7237      46.7237      46.7237 
  427000     112.8334   -7264.7669   -6680.2168   -816.64879     102002.7      46.7237      46.7237      46.7237 
  428000    104.04462     -7263.86   -6724.8415   -451.24747     102002.7      46.7237      46.7237      46.7237 
  429000    113.58426   -7262.9924   -6674.5523   -686.08863     102002.7      46.7237      46.7237      46.7237 
  430000    105.36991   -7259.1221   -6713.2377   -547.13911     102002.7      46.7237      46.7237      46.7237 
  431000     112.4825   -7263.5859   -6680.8537   -891.68926     102002.7      46.7237      46.7237      46.7237 
  432000      106.644   -7248.9407   -6696.4557   -472.55224     102002.7      46.7237      46.7237      46.7237 
  433000    108.44458   -7266.3392   -6704.5261   -891.10644     102002.7      46.7237      46.7237      46.7237 
  434000    109.52736   -7246.0125   -6678.5898   -670.79126     102002.7      46.7237      46.7237      46.7237 
  435000    107.08382   -7268.1243   -6713.3607   -772.93901     102002.7      46.7237      46.7237      46.7237 
  436000    110.31012   -7253.3934   -6681.9155   -771.46718     102002.7      46.7237      46.7237      46.7237 
  437000     115.4503   -7263.4878   -6665.3804   -638.72436     102002.7      46.7237      46.7237      46.7237 
  438000    112.05262   -7244.8654   -6664.3603   -667.60169     102002.7      46.7237      46.7237      46.7237 
  439000    109.80886   -7229.7879   -6660.9068   -893.89777     102002.7      46.7237      46.7237      46.7237 
  440000    109.17248   -7264.1586   -6698.5744   -801.46408     102002.7      46.7237      46.7237      46.7237 
  441000    110.54776   -7247.1366   -6674.4276   -680.26647     102002.7      46.7237      46.7237      46.7237 
  442000    109.76305   -7253.8911   -6685.2474   -802.73682     102002.7      46.7237      46.7237      46.7237 
  443000    105.97958   -7247.0233   -6697.9804   -690.82348     102002.7      46.7237      46.7237      46.7237 
  444000    109.89786   -7252.2799   -6682.9377    -830.3869     102002.7      46.7237      46.7237      46.7237 
  445000    108.87525   -7244.7498   -6680.7055      -497.56     102002.7      46.7237      46.7237      46.7237 
  446000    109.64331   -7248.3688   -6680.3454   -551.25426     102002.7      46.7237      46.7237      46.7237 
  447000    111.49144   -7254.6847   -6677.0868   -537.65022     102002.7      46.7237      46.7237      46.7237 
  448000    112.22821   -7235.7393   -6654.3244   -465.22619     102002.7      46.7237      46.7237      46.7237 
  449000    109.53112    -7252.319   -6684.8769   -548.03529     102002.7      46.7237      46.7237      46.7237 
  450000    111.06203   -7250.3164   -6674.9431   -585.22859     102002.7      46.7237      46.7237      46.7237 
  451000    107.92334   -7249.8503   -6690.7375   -669.49932     102002.7      46.7237      46.7237      46.7237 
  452000    107.00975   -7262.3967   -6708.0169    -961.0797     102002.7      46.7237      46.7237      46.7237 
  453000    111.56307   -7255.8339   -6677.8649   -795.43664     102002.7      46.7237      46.7237      46.7237 
  454000    107.98945   -7254.9651   -6695.5098    -912.4184     102002.7      46.7237      46.7237      46.7237 
  455000    109.84673   -7258.9329   -6689.8557   -986.79013     102002.7      46.7237      46.7237      46.7237 
  456000    110.59542   -7242.3056   -6669.3496   -361.43764     102002.7      46.7237      46.7237      46.7237 
  457000    107.48633   -7253.6499   -6696.8011   -621.97882     102002.7      46.7237      46.7237      46.7237 
  458000    110.46422   -7247.6489   -6675.3727   -837.16037     102002.7      46.7237      46.7237      46.7237 
  459000    109.63037   -7280.5139   -6712.5576   -483.71613     102002.7      46.7237      46.7237      46.7237 
  460000    108.89494   -7242.5474   -6678.4011     -560.286     102002.7      46.7237      46.7237      46.7237 
  461000    114.44247   -7226.0357   -6633.1496   -584.70072     102002.7      46.7237      46.7237      46.7237 
  462000    108.03315   -7247.6587    -6687.977   -567.75619     102002.7      46.7237      46.7237      46.7237 
  463000    114.65527   -7259.8154   -6665.8268   -405.86446     102002.7      46.7237      46.7237      46.7237 
  464000    106.84466   -7243.8368   -6690.3123   -339.54152     102002.7      46.7237      46.7237      46.7237 
  465000    111.80319   -7237.5512   -6658.3382   -558.90102     102002.7      46.7237      46.7237      46.7237 
  466000    111.51232   -7242.7685   -6665.0625   -578.80744     102002.7      46.7237      46.7237      46.7237 
  467000    111.12937    -7259.949   -6684.2268   -744.67127     102002.7      46.7237      46.7237      46.7237 
  468000    108.41583   -7245.5565   -6683.8923   -540.63523     102002.7      46.7237      46.7237      46.7237 
  469000     112.8348   -7261.7524    -6677.195   -627.53771     102002.7      46.7237      46.7237      46.7237 
  470000    108.05098   -7236.5237   -6676.7496   -431.48304     102002.7      46.7237      46.7237      46.7237 
  471000    111.55888   -7256.5376   -6678.5903    -497.9934     102002.7      46.7237      46.7237      46.7237 
  472000    111.08955    -7255.687   -6680.1712   -574.68176     102002.7      46.7237      46.7237      46.7237 
  473000     107.0251   -7242.3935   -6687.9341   -557.50025     102002.7      46.7237      46.7237      46.7237 
  474000    111.45527    -7267.858   -6690.4475    -527.3609     102002.7      46.7237      46.7237      46.7237 
  475000    110.85505   -7252.2911   -6677.9901   -346.24172     102002.7      46.7237      46.7237      46.7237 
  476000    109.35547   -7272.1372    -6705.605   -757.56785     102002.7      46.7237      46.7237      46.7237 
  477000    111.16867   -7240.4209   -6664.4951   -406.83333     102002.7      46.7237      46.7237      46.7237 
  478000    111.59719   -7242.5139   -6664.3682   -751.16613     102002.7      46.7237      46.7237      46.7237 
  479000    108.01698   -7243.3776   -6683.7797   -745.88547     102002.7      46.7237      46.7237      46.7237 
  480000    112.36814    -7244.934   -6662.7943   -709.22193     102002.7      46.7237      46.7237      46.7237 
  481000    110.05458   -7235.0268   -6664.8728    -646.3566     102002.7      46.7237      46.7237      46.7237 
  482000    110.23335   -7255.4994   -6684.4192   -349.15296     102002.7      46.7237      46.7237      46.7237 
  483000    108.41484   -7245.2283   -6683.5692   -901.77503     102002.7      46.7237      46.7237      46.7237 
  484000    110.23767   -7258.0751   -6686.9726   -646.86563     102002.7      46.7237      46.7237      46.7237 
  485000    111.27858   -7254.5681   -6678.0729   -802.76308     102002.7      46.7237      46.7237      46.7237 
  486000    105.23434    -7265.832   -6720.6499   -621.58737     102002.7      46.7237      46.7237      46.7237 
  487000    116.63719   -7270.1149   -6665.8587   -488.06653     102002.7      46.7237      46.7237      46.7237 
  488000    108.26881   -7248.3137   -6687.4111   -727.58616     102002.7      46.7237      46.7237      46.7237 
  489000    112.35674   -7269.5317    -6687.451   -652.50968     102002.7      46.7237      46.7237      46.7237 
  490000    110.71072   -7233.7676   -6660.2144   -563.99268     102002.7      46.7237      46.7237      46.7237 
  491000    107.94098   -7243.2853   -6684.0811   -678.10415     102002.7      46.7237      46.7237      46.7237 
  492000    110.99362   -7235.4585   -6660.4397   -645.17061     102002.7      46.7237      46.7237      46.7237 
  493000    111.72972   -7262.8642   -6684.0318   -431.41025     102002.7      46.7237      46.7237      46.7237 
  494000     108.4444   -7264.8778   -6703.0655   -642.02369     102002.7      46.7237      46.7237      46.7237 
  495000    111.30436   -7252.0125   -6675.3838   -815.69353     102002.7      46.7237      46.7237      46.7237 
  496000    108.70468   -7250.2968   -6687.1362   -717.34134     102002.7      46.7237      46.7237      46.7237 
  497000    111.99894   -7245.4171     -6665.19   -685.17812     102002.7      46.7237      46.7237      46.7237 
  498000    109.96208   -7259.6213   -6689.9465   -746.96458     102002.7      46.7237      46.7237      46.7237 
  499000    107.98838   -7264.3806   -6704.9308   -874.44262     102002.7      46.7237      46.7237      46.7237 
  500000    105.44054   -7239.6133    -6693.363   -334.55186     102002.7      46.7237      46.7237      46.7237 
  500506    107.36869   -7251.2552   -6695.0158   -831.39651     102002.7      46.7237      46.7237      46.7237 
Loop time of 572.588 on 24 procs for 500000 steps with 1739 atoms

Performance: 75.447 ns/day, 0.318 hours/ns, 873.228 timesteps/s
99.9% CPU use with 24 MPI tasks x no OpenMP threads

MPI task timing breakdown:
Section |  min time  |  avg time  |  max time  |%varavg| %total
---------------------------------------------------------------
Pair    | 171.56     | 277.09     | 366.51     | 325.0 | 48.39
Bond    | 70.465     | 78.983     | 86.926     |  49.8 | 13.79
Neigh   | 1.7662     | 1.7857     | 1.798      |   0.9 |  0.31
Comm    | 111.78     | 207.51     | 316.31     | 386.5 | 36.24
Output  | 0.31228    | 0.31267    | 0.31703    |   0.2 |  0.05
Modify  | 3.3578     | 3.9199     | 4.2338     |  12.1 |  0.68
Other   |            | 2.993      |            |       |  0.52

Nlocal:    72.4583 ave 96 max 53 min
Histogram: 2 2 0 3 11 1 2 2 0 1
Nghost:    1982.12 ave 2147 max 1882 min
Histogram: 13 3 0 0 0 0 0 0 0 8
Neighs:    7629.29 ave 11518 max 3276 min
Histogram: 1 0 2 5 6 1 3 2 2 2

Total # of neighbors = 183103
Ave neighs/atom = 105.292
Ave special neighs/atom = 6.6245
Neighbor list builds = 3282
Dangerous builds = 0
Neighbor list info ...
  update every 1 steps, delay 10 steps, check yes
  max neighbors/atom: 2000, page size: 100000
  master list distance cutoff = 16
  ghost atom cutoff = 16
  binsize = 8, bins = 6 6 6
  3 neighbor lists, perpetual/occasional/extra = 3 0 0
  (1) pair buck6d/coul/gauss/dsf, perpetual, skip from (3)
      attributes: half, newton on
      pair build: skip
      stencil: none
      bin: none
  (2) pair lj/cut, perpetual, skip from (3)
      attributes: half, newton on
      pair build: skip
      stencil: none
      bin: none
  (3) neighbor class addition, perpetual
      attributes: half, newton on
      pair build: half/bin/newton
      stencil: half/bin/3d/newton
      bin: standard
Setting up Verlet run ...
  Unit style    : real
  Current step  : 500506
  Time step     : 1
WARNING: Inconsistent image flags (../domain.cpp:786)
Per MPI rank memory allocation (min/avg/max) = 24.11 | 24.48 | 24.57 Mbytes
Step Time TotEng KinEng PotEng E_mol E_pair Temp Pxx Pyy Pzz Pxy Pxz Pyz Cella Cellb Cellc CellAlpha CellBeta CellGamma Volume Press 
  500506       500000   -6695.0158    556.23937   -7251.2552    4317.7631   -11569.018    107.36869   -687.77468   -787.47803   -1018.9368   -40.420222    146.74755     35.31863      46.7237      46.7237      46.7237           90           90           90     102002.7   -831.39651 
  501000       500494    -6686.229    574.06614   -7260.2951    4302.4378   -11562.733    110.80972   -701.29943   -778.18744   -665.75527    78.736041    -56.97928   -77.402971      46.7237      46.7237      46.7237           90           90           90     102002.7   -715.08071 
  502000       501494   -6671.0343    577.56914   -7248.6034    4315.8144   -11564.418    111.48589   -771.58807   -560.21323   -870.57302    41.437669   -18.182786   -272.32905      46.7237      46.7237      46.7237           90           90           90     102002.7   -734.12478 
  503000       502494    -6679.721    591.12164   -7270.8426    4303.9187   -11574.761    114.10188   -1012.4638   -766.04959   -988.42731   -15.641099    193.07254   -111.61792      46.7237      46.7237      46.7237           90           90           90     102002.7   -922.31356 
  504000       503494   -6701.5346    559.02257   -7260.5572    4308.1432     -11568.7    107.90592   -1057.0457   -546.55195   -832.74174   -313.39211    39.683915    114.79042      46.7237      46.7237      46.7237           90           90           90     102002.7   -812.11314 
  505000       504494   -6666.7036    572.96777   -7239.6714    4325.8775   -11565.549    110.59771   -1025.0513   -1453.9594   -463.59706   -194.66147    203.50557   -155.24411      46.7237      46.7237      46.7237           90           90           90     102002.7   -980.86926 
  506000       505494   -6693.7943     570.5479   -7264.3422    4298.7279    -11563.07    110.13061   -785.12804   -1009.1012    -1001.403    209.37189    148.78015   -139.81592      46.7237      46.7237      46.7237           90           90           90     102002.7   -931.87744 
  507000       506494   -6682.8227    570.38938   -7253.2121    4317.3444   -11570.556    110.10001   -797.20213   -710.39545   -692.59369  -0.30940554   -75.139575     128.6052      46.7237      46.7237      46.7237           90           90           90     102002.7   -733.39709 
  508000       507494      -6665.4    591.75727   -7257.1572    4302.0479   -11559.205    114.22457   -516.14939   -838.57322   -251.37826   -234.51545    229.88294    32.606249      46.7237      46.7237      46.7237           90           90           90     102002.7   -535.36696 
  509000       508494   -6689.4306    562.81054   -7252.2411    4318.6215   -11570.863     108.6371   -1043.7047   -989.64097   -960.56125   -15.988533    232.48931   -169.13596      46.7237      46.7237      46.7237           90           90           90     102002.7   -997.96897 
  510000       509494   -6672.5403    581.15808   -7253.6983    4318.4423   -11572.141    112.17865   -944.75621   -844.28529   -1099.1667    344.98762    29.652669    78.392336      46.7237      46.7237      46.7237           90           90           90     102002.7   -962.73608 
  511000       510494   -6711.9706    559.45545   -7271.4261    4301.2371   -11572.663    107.98948   -843.36143   -555.32054   -483.65048   -3.9953108   -169.13249   -16.668763      46.7237      46.7237      46.7237           90           90           90     102002.7   -627.44415 
  512000       511494   -6675.9013    571.72051   -7247.6218     4328.716   -11576.338    110.35695   -678.78826   -1094.6739   -324.47222    23.681716   -129.00284   -12.938042      46.7237      46.7237      46.7237           90           90           90     102002.7   -699.31145 
  513000       512494   -6698.4876    571.54113   -7270.0287    4288.8061   -11558.835    110.32233   -665.70264   -775.40225   -724.40603    147.44986    9.3152484    -184.1446      46.7237      46.7237      46.7237           90           90           90     102002.7   -721.83697 
  514000       513494   -6679.1568    583.01112   -7262.1679     4293.694   -11555.862    112.53633   -247.55194   -467.23905   -510.65572    104.88872   -54.784907   -135.97019      46.7237      46.7237      46.7237           90           90           90     102002.7   -408.48224 
  515000       514494   -6648.5201    593.11231   -7241.6324      4313.29   -11554.922    114.48613   -797.40073   -1173.0462   -1049.4366   -2.1608537   -28.675957    89.427034      46.7237      46.7237      46.7237           90           90           90     102002.7   -1006.6278 
  516000       515494    -6691.607    563.72691   -7255.3339    4293.1026   -11548.437    108.81398   -693.89575   -551.09255   -85.366852        22.78   -118.04778   -49.372482      46.7237      46.7237      46.7237           90           90           90     102002.7   -443.45172 
  517000       516494    -6659.139    577.62137   -7236.7604    4326.0816   -11562.842    111.49597   -727.96465    -716.6741   -532.62008    175.28158   -242.59985    49.363846      46.7237      46.7237      46.7237           90           90           90     102002.7   -659.08628 
  518000       517494    -6696.643    562.14408   -7258.7871    4298.5175   -11557.305    108.50845   -501.67487   -1058.1892   -792.51256   -15.538262   -99.067789   -132.39934      46.7237      46.7237      46.7237           90           90           90     102002.7   -784.12556 
  519000       518494   -6683.9458    569.50794   -7253.4538    4309.1941   -11562.648    109.92987   -692.78554   -605.04201   -389.45145    152.69503    -148.8325    -121.2522      46.7237      46.7237      46.7237           90           90           90     102002.7   -562.42633 
  520000       519494   -6689.6825    556.25892   -7245.9414    4318.0359   -11563.977    107.37246   -641.98967   -1160.5093   -1010.4271    316.24659   -149.66744   -173.04091      46.7237      46.7237      46.7237           90           90           90     102002.7   -937.64201 
  521000       520494   -6653.2459    588.44068   -7241.6866    4327.5528   -11569.239    113.58438   -626.33246   -1046.9265   -190.44202   -10.415201   -176.08629    187.56308      46.7237      46.7237      46.7237           90           90           90     102002.7   -621.23366 
  522000       521494   -6684.0254    576.19127   -7260.2166    4295.5489   -11555.766    111.21992   -672.47133   -476.26999   -474.38219    107.13126   -49.889222    102.77147      46.7237      46.7237      46.7237           90           90           90     102002.7   -541.04117 
  523000       522494    -6670.447    558.31079   -7228.7578    4322.3893   -11551.147    107.76853   -596.83681   -786.47641   -292.44979    57.151464    134.25058   -59.518753      46.7237      46.7237      46.7237           90           90           90     102002.7   -558.58767 
  524000       523494   -6675.2993    557.96372   -7233.2631    4321.0938   -11554.357    107.70153   -789.76707   -900.66461   -382.08405    155.70284    160.06359    204.12023      46.7237      46.7237      46.7237           90           90           90     102002.7   -690.83858 
  525000       524494   -6682.4925    557.34018   -7239.8327    4330.5621   -11570.395    107.58117   -749.42821   -286.29668   -738.45527    186.95845    197.88233   -22.435583      46.7237      46.7237      46.7237           90           90           90     102002.7   -591.39339 
  526000       525494   -6690.7051    564.84696   -7255.5521    4309.4022   -11564.954    109.03018   -725.58023   -405.48318   -838.58655   -90.367633    120.32342    43.975298      46.7237      46.7237      46.7237           90           90           90     102002.7   -656.54999 
  527000       526494   -6675.3094     572.7519   -7248.0613    4309.6121   -11557.673    110.55604   -1168.3032    -107.4646   -800.06246    93.531034   -55.635414    74.352464      46.7237      46.7237      46.7237           90           90           90     102002.7   -691.94344 
  528000       527494   -6711.0818    550.96401   -7262.0458    4309.9861   -11572.032    106.35041   -419.50273   -745.79402   -622.95485    172.97379    182.01871   -60.494427      46.7237      46.7237      46.7237           90           90           90     102002.7   -596.08387 
  529000       528494   -6680.6515    572.33709   -7252.9886    4309.1579   -11562.147    110.47597   -654.23351   -552.72461   -461.67275   -93.040587    10.708477    204.85679      46.7237      46.7237      46.7237           90           90           90     102002.7   -556.21029 
  530000       529494   -6639.4875    597.20061   -7236.6881    4329.9584   -11566.647    115.27528   -637.91032   -731.73879    61.908272   -86.568119   -254.19651    74.014925      46.7237      46.7237      46.7237           90           90           90     102002.7   -435.91361 
  531000       530494   -6695.1257    582.91926   -7278.0449    4287.4135   -11565.458     112.5186    -856.9104   -435.76653   -574.88016    42.365855   -70.240864   -209.51421      46.7237      46.7237      46.7237           90           90           90     102002.7   -622.51903 
  532000       531494   -6705.8408    571.86836   -7277.7091    4288.8302   -11566.539    110.38549     -671.319   -466.14009   -256.95258   -183.09631    171.90775   -4.7340596      46.7237      46.7237      46.7237           90           90           90     102002.7   -464.80389 
  533000       532494   -6682.4736    569.23162   -7251.7052    4326.1343   -11577.839    109.87653   -992.56608   -792.99466    -117.7123   -162.69444    74.579316    62.980753      46.7237      46.7237      46.7237           90           90           90     102002.7   -634.42435 
  534000       533494   -6686.6339    569.37884   -7256.0127      4308.88   -11564.893    109.90495   -1040.2358   -618.24087   -933.80631    68.510338    165.46051    13.738813      46.7237      46.7237      46.7237           90           90           90     102002.7   -864.09434 
  535000       534494   -6687.9777     581.8952   -7269.8729    4298.5712   -11568.444    112.32093   -771.79913   -813.30368   -606.85366   -18.783676    21.414242   -17.860203      46.7237      46.7237      46.7237           90           90           90     102002.7   -730.65216 
  536000       535494   -6681.9975    561.08061   -7243.0781     4344.548   -11587.626    108.30317   -922.69706   -991.99987   -584.32851    68.771122   -199.59592    268.29845      46.7237      46.7237      46.7237           90           90           90     102002.7   -833.00848 
  537000       536494    -6707.953    551.94067   -7259.8936    4308.7683   -11568.662    106.53893   -983.30098    -642.5213   -533.78743    93.050692    154.53889    7.6903366      46.7237      46.7237      46.7237           90           90           90     102002.7    -719.8699 
  538000       537494   -6675.6211    581.12093   -7256.7421    4304.5852   -11561.327    112.17148    -943.0084   -597.75189   -828.64575    2.4821191     40.79254   -77.595252      46.7237      46.7237      46.7237           90           90           90     102002.7   -789.80201 
  539000       538494   -6648.3542    589.83167   -7238.1859    4330.9492   -11569.135    113.85288   -765.64792   -629.30076   -410.41804   -105.92349    223.95481   -345.40624      46.7237      46.7237      46.7237           90           90           90     102002.7    -601.7889 
  540000       539494    -6684.107    556.13123   -7240.2383    4331.7465   -11571.985    107.34782   -656.21363   -480.45432   -260.66668    8.4713606    19.181267   -52.897561      46.7237      46.7237      46.7237           90           90           90     102002.7   -465.77821 
  541000       540494    -6668.987    561.36275   -7230.3498    4342.5335   -11572.883    108.35764   -1078.3716   -191.08469   -716.17579    127.69599   -97.605567   -1.0933622      46.7237      46.7237      46.7237           90           90           90     102002.7   -661.87737 
  542000       541494   -6691.3238    559.80074   -7251.1245    4316.9022   -11568.027    108.05613   -510.94871   -589.67842   -846.19096   -294.95081   -31.715061   -39.369826      46.7237      46.7237      46.7237           90           90           90     102002.7   -648.93936 
  543000       542494   -6701.8941    553.92362   -7255.8177    4311.3998   -11567.218    106.92169   -585.30682    -379.7925   -568.24738    183.57642    245.92418   -7.5917153      46.7237      46.7237      46.7237           90           90           90     102002.7   -511.11557 
  544000       543494   -6676.5956    556.97075   -7233.5664    4322.3224   -11555.889    107.50986   -464.44155   -377.80843   -608.05847    133.91284   -41.181557    9.3080376      46.7237      46.7237      46.7237           90           90           90     102002.7   -483.43615 
  545000       544494   -6652.4948    578.39211   -7230.8869    4337.0295   -11567.916    111.64475   -671.34349   -895.74661   -461.04944   -23.899818   -226.35181    637.89852      46.7237      46.7237      46.7237           90           90           90     102002.7   -676.04651 
  546000       545494    -6684.474    560.30707   -7244.7811    4318.7135   -11563.495    108.15386   -705.20363   -604.36679   -356.58251    1.8792315    43.725917   -68.913704      46.7237      46.7237      46.7237           90           90           90     102002.7   -555.38431 
  547000       546494   -6679.9907     574.4524   -7254.4431    4310.3549   -11564.798    110.88428   -550.42588    -447.6718    -468.5307    104.64051   -456.50544   -110.85265      46.7237      46.7237      46.7237           90           90           90     102002.7   -488.87613 
  548000       547494   -6678.6564    560.88479   -7239.5412    4311.7559   -11551.297    108.26538   -493.56667   -501.69386    -394.1556    79.407369   -2.9544193    17.594926      46.7237      46.7237      46.7237           90           90           90     102002.7   -463.13871 
  549000       548494    -6658.449    568.42555   -7226.8746    4339.4104   -11566.285    109.72094   -766.89007   -459.33227   -692.79508   -190.86936   -124.12684    177.59441      46.7237      46.7237      46.7237           90           90           90     102002.7   -639.67247 
  550000       549494   -6667.9188    567.75081   -7235.6696    4323.3862   -11559.056     109.5907   -897.67282   -684.15019    -807.8524     48.91131   -119.48266   -59.385462      46.7237      46.7237      46.7237           90           90           90     102002.7   -796.55847 
  551000       550494   -6685.4666    557.64781   -7243.1144    4329.2178   -11572.332    107.64055   -1064.4741   -767.66133   -199.42693   -134.15803   -230.16566    15.677635      46.7237      46.7237      46.7237           90           90           90     102002.7   -677.18744 
  552000       551494   -6664.5161    569.44578   -7233.9619    4317.4167   -11551.379    109.91787   -403.41051   -569.02514   -216.55776    -20.74704    113.48083    51.543119      46.7237      46.7237      46.7237           90           90           90     102002.7   -396.33113 
  553000       552494   -6670.6004    572.28011   -7242.8805    4301.6525   -11544.533    110.46497   -375.14033   -340.62558   -923.75166    52.119631   -87.454559   -159.31242      46.7237      46.7237      46.7237           90           90           90     102002.7   -546.50586 
  554000       553494   -6706.4198    551.97861   -7258.3984    4311.8273   -11570.226    106.54625    -657.7896   -225.35693   -826.27374     56.64599   -10.928985   -69.341336      46.7237      46.7237      46.7237           90           90           90     102002.7   -569.80676 
  555000       554494   -6670.8553    564.67632   -7235.5316    4332.4935   -11568.025    108.99724   -383.83387   -325.77488   -236.94476   -147.69429    220.94923   -103.02046      46.7237      46.7237      46.7237           90           90           90     102002.7   -315.51784 
[...]
  936000       935494   -6689.5696    552.05854   -7241.6282    4320.8525   -11562.481    106.56168   -227.91896   -929.81426    -399.4762   -54.850885   -168.08493    -133.4922      46.7237      46.7237      46.7237           90           90           90     102002.7   -519.06981 
  937000       936494   -6669.1777    572.60366   -7241.7813    4328.9304   -11570.712    110.52742   -1110.7975   -794.32491   -1036.8589   -345.38964    273.92165    26.675985      46.7237      46.7237      46.7237           90           90           90     102002.7   -980.66045 
  938000       937494   -6713.5749    556.32593   -7269.9008    4314.5302   -11584.431     107.3854   -686.60051   -589.67838   -829.15405    89.039062     188.7697    101.83176      46.7237      46.7237      46.7237           90           90           90     102002.7   -701.81098 
  939000       938494   -6676.4735    569.45497   -7245.9285    4313.1902   -11559.119    109.91964   -983.25406   -992.49688   -401.82657    213.55341   -54.621585    120.67395      46.7237      46.7237      46.7237           90           90           90     102002.7   -792.52584 
  940000       939494   -6709.1824    550.20776   -7259.3902    4300.7599    -11560.15    106.20443   -687.64061   -158.15244    -1064.247   -117.70078   -39.592453    51.464225      46.7237      46.7237      46.7237           90           90           90     102002.7      -636.68 
  941000       940494   -6682.3617    551.66123   -7234.0229    4341.4774     -11575.5    106.48499   -952.54999   -490.98065   -819.69536    28.547766   -61.479496   -135.34159      46.7237      46.7237      46.7237           90           90           90     102002.7   -754.40867 
  942000       941494   -6682.3497    572.96092   -7255.3107     4304.631   -11559.942    110.59638   -692.83618   -698.24961    -788.6221     305.0043    196.60617    222.34312      46.7237      46.7237      46.7237           90           90           90     102002.7    -726.5693 
  943000       942494   -6681.6782    569.13679    -7250.815    4307.9638   -11558.779    109.85823   -283.02507   -462.83892   -734.19494   -104.92802    53.953138    203.49773      46.7237      46.7237      46.7237           90           90           90     102002.7   -493.35297 
  944000       943494   -6700.1792    555.36292   -7255.5422    4313.5498   -11569.092    107.19951   -875.80788   -423.15241   -993.54078   -96.607979     88.27133   -65.640826      46.7237      46.7237      46.7237           90           90           90     102002.7   -764.16702 
  945000       944494   -6673.5838    575.50192   -7249.0857    4306.2202   -11555.306    111.08686   -831.48579   -473.49262    -444.5566    274.10296     69.92823    65.516069      46.7237      46.7237      46.7237           90           90           90     102002.7   -583.17834 
  946000       945494   -6691.1367    568.91459   -7260.0513    4309.8315   -11569.883    109.81534   -1059.0891   -529.37957   -840.95604    8.6571128    7.2935414    167.05359      46.7237      46.7237      46.7237           90           90           90     102002.7   -809.80825 
  947000       946494   -6681.6807      565.663   -7247.3437    4325.1546   -11572.498     109.1877   -816.27917   -778.36695   -626.74485    55.160664     54.69274   -295.09571      46.7237      46.7237      46.7237           90           90           90     102002.7   -740.46366 
  948000       947494   -6658.4683    586.41731   -7244.8856    4327.8185   -11572.704    113.19382   -660.08762   -1040.9111   -648.14358   -25.841072   -190.41051    9.9067615      46.7237      46.7237      46.7237           90           90           90     102002.7   -783.04742 
  949000       948494   -6680.0557    591.75178   -7271.8075    4287.3331   -11559.141    114.22351   -390.26183   -570.22648   -671.58962   -170.42825   -92.309961   -127.89313      46.7237      46.7237      46.7237           90           90           90     102002.7   -544.02598 
  950000       949494   -6704.2932    551.38884   -7255.6821    4318.9103   -11574.592    106.43241    -506.7717   -501.05681   -937.53113     136.1573   -79.002655   -30.514468      46.7237      46.7237      46.7237           90           90           90     102002.7   -648.45321 
  951000       950494   -6691.9272    556.65036   -7248.5776    4299.7142   -11548.292    107.44802   -388.95505   -458.63777   -383.05429    -40.88155    67.430679   -124.48197      46.7237      46.7237      46.7237           90           90           90     102002.7    -410.2157 
  952000       951494    -6657.055    582.62259   -7239.6775    4319.0943   -11558.772    112.46134   -525.66188   -723.17342   -337.89205    -161.4937   -142.58428    67.538168      46.7237      46.7237      46.7237           90           90           90     102002.7   -528.90912 
  953000       952494    -6709.106    546.51602    -7255.622    4296.8315   -11552.454    105.49183     -877.899   -577.08125   -654.93546    54.497615    -130.5554    86.907244      46.7237      46.7237      46.7237           90           90           90     102002.7   -703.30524 
  954000       953494   -6679.4382     570.6956   -7250.1338    4337.5711   -11587.705    110.15912    -775.8611   -620.20609   -493.69948   -176.11131    61.671923   -206.35117      46.7237      46.7237      46.7237           90           90           90     102002.7   -629.92222 
  955000       954494   -6693.1981    571.32202   -7264.5201    4328.4221   -11592.942    110.28003   -951.22399   -1062.6879   -876.94466   -261.44282   -178.34314    72.269418      46.7237      46.7237      46.7237           90           90           90     102002.7   -963.61885 
  956000       955494   -6689.8879    567.23448   -7257.1223    4308.0332   -11565.155    109.49103   -1037.2523   -871.26519   -586.75319    174.54594   -118.55441    -114.7493      46.7237      46.7237      46.7237           90           90           90     102002.7    -831.7569 
  957000       956494   -6666.5695    593.47147   -7260.0409    4297.3848   -11557.426    114.55545   -1014.0138   -436.80505   -906.73925   -117.30017    -71.01554    222.37341      46.7237      46.7237      46.7237           90           90           90     102002.7   -785.85272 
  958000       957494   -6669.6639     567.4532   -7237.1171    4306.8376   -11543.955    109.53325   -779.91179   -467.87721   -734.37439   -101.95388    88.964264    36.943158      46.7237      46.7237      46.7237           90           90           90     102002.7   -660.72113 
  959000       958494   -6665.0953    578.68617   -7243.7814    4340.8205   -11584.602    111.70151   -716.93231    -723.1914   -857.66829     2.913143   -186.39319   -212.02277      46.7237      46.7237      46.7237           90           90           90     102002.7   -765.93067 
  960000       959494    -6690.641    565.78428   -7256.4253    4306.1556   -11562.581    109.21111   -538.45977   -823.64935    -247.1149    111.69006    69.490474    95.883274      46.7237      46.7237      46.7237           90           90           90     102002.7   -536.40801 
  961000       960494    -6689.061    555.65202    -7244.713     4326.964   -11571.677    107.25532   -409.56595   -957.37655   -506.87083   -21.713755      114.161   -84.117321      46.7237      46.7237      46.7237           90           90           90     102002.7   -624.60444 
  962000       961494   -6678.5426    561.46922   -7240.0118    4316.3724   -11556.384    108.37819   -693.39458   -586.67648   -624.88152    109.79197    60.188967   -77.820679      46.7237      46.7237      46.7237           90           90           90     102002.7   -634.98419 
  963000       962494   -6675.6742    577.87158   -7253.5457    4316.7572   -11570.303    111.54427   -922.09402   -707.85419   -622.65001    184.95873   -25.503301   -50.143051      46.7237      46.7237      46.7237           90           90           90     102002.7   -750.86607 
  964000       963494   -6701.9406    561.02841    -7262.969    4292.1792   -11555.148     108.2931   -793.57648   -744.57243   -361.13992    146.44005    325.04236    212.25486      46.7237      46.7237      46.7237           90           90           90     102002.7   -633.09628 
  965000       964494   -6671.5937     583.8853    -7255.479     4308.112   -11563.591    112.70507   -436.74214   -680.34997   -532.64166    149.32907   -111.73392   -11.293893      46.7237      46.7237      46.7237           90           90           90     102002.7   -549.91125 
  966000       965494   -6691.8274    563.85967   -7255.6871    4293.1802   -11548.867    108.83961   -965.17637   -626.40869   -947.54938   -68.049991    20.083614   -38.961531      46.7237      46.7237      46.7237           90           90           90     102002.7   -846.37815 
  967000       966494     -6708.55    548.35441   -7256.9045    4315.1308   -11572.035    105.84669   -399.05895   -521.07743   -506.80722    108.76904    99.785781    164.21609      46.7237      46.7237      46.7237           90           90           90     102002.7   -475.64787 
  968000       967494   -6674.2173    576.63416   -7250.8514    4315.1599   -11566.011    111.30542   -639.21449   -718.08757   -999.29044    65.690213   -38.756875    31.129945      46.7237      46.7237      46.7237           90           90           90     102002.7   -785.53084 
  969000       968494   -6674.3633    586.50841   -7260.8718    4315.9097   -11576.781     113.2114   -944.33244    -1228.161   -964.70043    252.77085   -77.460335    18.116297      46.7237      46.7237      46.7237           90           90           90     102002.7   -1045.7313 
  970000       969494   -6701.2109    545.35632   -7246.5672    4321.0811   -11567.648    105.26798    -730.2124   -1073.8478   -470.44937   -89.938307    237.63853   -276.44781      46.7237      46.7237      46.7237           90           90           90     102002.7   -758.16986 
  971000       970494   -6697.3738     554.0852    -7251.459    4314.4408     -11565.9    106.95288    -861.7864   -1122.4887   -952.24013    90.359452   -62.020055    77.150657      46.7237      46.7237      46.7237           90           90           90     102002.7   -978.83841 
  972000       971494   -6690.7211    572.85575   -7263.5769    4294.3283   -11557.905    110.57608   -1066.2752   -855.59477   -799.84071    133.83921   -181.49671   -63.267002      46.7237      46.7237      46.7237           90           90           90     102002.7   -907.23688 
  973000       972494   -6671.1669    572.91176   -7244.0787    4310.8327   -11554.911     110.5869   -912.99802   -652.35263   -596.58561    99.701885    10.060382   -11.580037      46.7237      46.7237      46.7237           90           90           90     102002.7   -720.64542 
  974000       973494   -6661.3382    579.11486    -7240.453    4334.5264   -11574.979    111.78425   -744.59851   -317.01509   -818.87129    127.23754    72.910627    11.495889      46.7237      46.7237      46.7237           90           90           90     102002.7    -626.8283 
  975000       974494   -6684.3314     571.3645   -7255.6959    4309.7858   -11565.482    110.28823   -682.42825   -807.87535   -170.31923   -48.940468   -74.222144    18.612917      46.7237      46.7237      46.7237           90           90           90     102002.7   -553.54094 
  976000       975494   -6703.0264    546.70754   -7249.7339     4328.855   -11578.589     105.5288   -914.95083   -752.77604   -514.26116   -138.21394    97.257661    123.60297      46.7237      46.7237      46.7237           90           90           90     102002.7   -727.32934 
  977000       976494   -6670.6683    579.07938   -7249.7477    4325.8746   -11575.622    111.77741   -975.00534   -1099.4119    -987.6472    1.2038424    196.21097   -225.56673      46.7237      46.7237      46.7237           90           90           90     102002.7   -1020.6882 
  978000       977494   -6680.3471    582.81751   -7263.1646     4309.746   -11572.911    112.49896   -347.41005    -725.2423   -729.87533   -137.40428    171.95027    144.95263      46.7237      46.7237      46.7237           90           90           90     102002.7   -600.84256 
  979000       978494   -6686.4771    572.85686    -7259.334    4299.2965    -11558.63     110.5763   -990.58369   -797.52001   -105.60137    91.520746   -117.33831    72.687926      46.7237      46.7237      46.7237           90           90           90     102002.7   -631.23503 
  980000       979494   -6666.9031    574.64641   -7241.5495    4335.4744   -11577.024    110.92173   -751.52198   -400.75682   -760.20073     137.3302    194.57526    117.52834      46.7237      46.7237      46.7237           90           90           90     102002.7   -637.49318 
  981000       980494   -6673.8366    568.60208   -7242.4387    4323.0365   -11565.475    109.75501    -795.2845    -444.6663   -560.33317     193.8018    227.93699    304.53925      46.7237      46.7237      46.7237           90           90           90     102002.7   -600.09466 
  982000       981494    -6666.285    589.08218   -7255.3672    4310.1946   -11565.562    113.70821   -923.32202   -519.39932   -511.12681   -3.5547588    19.366387   -2.9395219      46.7237      46.7237      46.7237           90           90           90     102002.7   -651.28272 
  983000       982494   -6692.3892    559.91536   -7252.3046    4323.9321   -11576.237    108.07825   -680.84156   -225.58723   -871.18225   -96.998862   -45.130041    31.349829      46.7237      46.7237      46.7237           90           90           90     102002.7   -592.53701 
  984000       983494   -6678.8343    574.97369    -7253.808    4309.3886   -11563.197     110.9849   -650.43558   -579.29778     -581.009    226.16537   -101.24139     -11.9768      46.7237      46.7237      46.7237           90           90           90     102002.7   -603.58079 
  985000       984494   -6681.8656    561.16444   -7243.0301    4339.3671   -11582.397    108.31936   -312.09081   -573.59581   -166.93673   -119.41093    18.324256   -232.80784      46.7237      46.7237      46.7237           90           90           90     102002.7   -350.87445 
  986000       985494   -6713.6508    557.45111   -7271.1019    4288.3373   -11559.439    107.60259   -396.03678   -511.69924   -896.06231   -128.02205   -369.60955     63.46385      46.7237      46.7237      46.7237           90           90           90     102002.7   -601.26611 
  987000       986494    -6673.421    579.98762   -7253.4086    4313.4997   -11566.908    111.95272   -499.49674   -459.64982   -659.13114   -75.902642   -445.17283     239.9441      46.7237      46.7237      46.7237           90           90           90     102002.7    -539.4259 
  988000       987494   -6656.6572    570.82789   -7227.4851    4331.4927   -11558.978    110.18465   -1184.7221   -1174.7302   -664.11237   -243.01996   -74.194634   -270.17598      46.7237      46.7237      46.7237           90           90           90     102002.7   -1007.8549 
  989000       988494   -6702.0941    562.82402   -7264.9182    4306.2633   -11571.181     108.6397   -1052.9476   -878.03456   -503.84279    61.945034   -97.334817   -186.15016      46.7237      46.7237      46.7237           90           90           90     102002.7   -811.60832 
  990000       989494   -6676.3705    578.87762   -7255.2481    4300.1406   -11555.389    111.73846   -952.43241   -609.16074   -913.50462   -130.29489   -115.49524    79.496601      46.7237      46.7237      46.7237           90           90           90     102002.7   -825.03259 
  991000       990494   -6681.2752    559.57974    -7240.855     4337.356   -11578.211    108.01347   -658.46359    -1457.799   -516.07162   -7.0001916    -107.4924   -299.97937      46.7237      46.7237      46.7237           90           90           90     102002.7   -877.44472 
  992000       991494   -6690.5352    554.50474   -7245.0399    4319.9921   -11565.032    107.03386   -1037.5768   -459.30787   -697.30364    162.77079   -50.454164   -80.193053      46.7237      46.7237      46.7237           90           90           90     102002.7    -731.3961 
  993000       992494   -6690.5531     573.8401   -7264.3932    4299.4551   -11563.848    110.76609   -1108.5766   -457.70477   -407.87619    49.643032   -39.828828    71.340089      46.7237      46.7237      46.7237           90           90           90     102002.7   -658.05253 
  994000       993494   -6678.0011    564.84234   -7242.8435    4337.6416   -11580.485    109.02929   -468.95328   -1043.9554    -976.2901   -299.22631   -77.562949    206.75751      46.7237      46.7237      46.7237           90           90           90     102002.7   -829.73292 
  995000       994494   -6682.6624    585.29748   -7267.9599    4293.8537   -11561.814    112.97766   -581.25168   -765.11794    -562.2119    76.134322    160.93368    9.2774518      46.7237      46.7237      46.7237           90           90           90     102002.7   -636.19384 
  996000       995494   -6698.5256    568.23708   -7266.7627    4290.7433   -11557.506    109.68456   -1031.2521   -654.06001    -567.0594    118.46074    132.96093    294.93425      46.7237      46.7237      46.7237           90           90           90     102002.7    -750.7905 
  997000       996494   -6670.0292    563.45472   -7233.4839    4344.2372   -11577.721    108.76144    -798.1011   -968.54825   -809.67807    105.83485    193.95274   -21.075604      46.7237      46.7237      46.7237           90           90           90     102002.7   -858.77581 
  998000       997494      -6685.8    572.58145   -7258.3815    4289.3132   -11547.695    110.52314    -1079.484   -842.14273   -915.50703    92.516142    66.552644   -122.92874      46.7237      46.7237      46.7237           90           90           90     102002.7   -945.71126 
  999000       998494   -6664.9475     575.0417   -7239.9892    4329.2749   -11569.264    110.99803    -752.8573   -663.99128   -962.61149   -284.57402    -76.45817   -35.244841      46.7237      46.7237      46.7237           90           90           90     102002.7   -793.15336 
 1000000       999494   -6692.8589    562.44301   -7255.3019    4305.1749   -11560.477    108.56615   -119.74611    -635.4085   -723.08241   -154.13376   -59.270082    172.56326      46.7237      46.7237      46.7237           90           90           90     102002.7   -492.74568 
 1000506      1000000   -6699.1094    572.86749   -7271.9768    4306.4532    -11578.43    110.57835   -1001.3539   -821.61789   -815.45663   -89.180919    27.856504   -117.44834      46.7237      46.7237      46.7237           90           90           90     102002.7   -879.47613 
Loop time of 635.367 on 24 procs for 500000 steps with 1739 atoms

Performance: 67.992 ns/day, 0.353 hours/ns, 786.947 timesteps/s
99.9% CPU use with 24 MPI tasks x no OpenMP threads

MPI task timing breakdown:
Section |  min time  |  avg time  |  max time  |%varavg| %total
---------------------------------------------------------------
Pair    | 188.01     | 307.63     | 407.75     | 358.1 | 48.42
Bond    | 75.542     | 83.384     | 94.509     |  51.4 | 13.12
Neigh   | 1.7835     | 1.8037     | 1.8171     |   0.9 |  0.28
Comm    | 120.45     | 227.02     | 351.94     | 434.4 | 35.73
Output  | 0.34107    | 0.37968    | 0.38156    |   1.3 |  0.06
Modify  | 11.506     | 12.089     | 12.408     |   7.5 |  1.90
Other   |            | 3.059      |            |       |  0.48

Nlocal:    72.4583 ave 101 max 46 min
Histogram: 1 1 3 6 3 3 3 0 3 1
Nghost:    1982.96 ave 2130 max 1889 min
Histogram: 7 8 1 0 0 0 0 0 1 7
Neighs:    7624.58 ave 12028 max 4250 min
Histogram: 3 3 3 3 3 3 1 2 1 2

Total # of neighbors = 182990
Ave neighs/atom = 105.227
Ave special neighs/atom = 6.6245
Neighbor list builds = 3260
Dangerous builds = 0
Total wall time: 0:20:09
