LAMMPS (30 Mar 2018)
Reading data file ...
  orthogonal box = (0 0 0) to (46.7237 46.7237 46.7237)
  2 by 3 by 4 MPI processor grid
  reading atoms ...
  2321 atoms
  scanning bonds ...
  5 = max bonds/atom
  scanning angles ...
  10 = max angles/atom
  scanning dihedrals ...
  32 = max dihedrals/atom
  scanning impropers ...
  3 = max impropers/atom
  reading bonds ...
  2064 bonds
  reading angles ...
  3696 angles
  reading dihedrals ...
  6240 dihedrals
  reading impropers ...
  1008 impropers
Finding 1-2 1-3 1-4 neighbors ...
  special bond factors lj:   0          0          0         
  special bond factors coul: 0          0          0         
  5 = max # of 1-2 neighbors
  8 = max # of 1-3 neighbors
  20 = max # of 1-4 neighbors
  19 = max # of special neighbors
Finding 1-2 1-3 1-4 neighbors ...
  special bond factors lj:   0          0          1         
  special bond factors coul: 1          1          1         
  5 = max # of 1-2 neighbors
  8 = max # of 1-3 neighbors
  19 = max # of special neighbors
WARNING: Using 'neigh_modify every 1 delay 0 check yes' setting during minimization (../min.cpp:168)
Neighbor list info ...
  update every 1 steps, delay 0 steps, check yes
  max neighbors/atom: 2000, page size: 100000
  master list distance cutoff = 16
  ghost atom cutoff = 16
  binsize = 8, bins = 6 6 6
  3 neighbor lists, perpetual/occasional/extra = 3 0 0
  (1) pair buck6d/coul/gauss/dsf, perpetual, skip from (3)
      attributes: half, newton on
      pair build: skip
      stencil: none
      bin: none
  (2) pair lj/cut, perpetual, skip from (3)
      attributes: half, newton on
      pair build: skip
      stencil: none
      bin: none
  (3) neighbor class addition, perpetual
      attributes: half, newton on
      pair build: half/bin/newton
      stencil: half/bin/3d/newton
      bin: standard
Setting up cg style minimization ...
  Unit style    : real
  Current step  : 0
WARNING: Inconsistent image flags (../domain.cpp:786)
Per MPI rank memory allocation (min/avg/max) = 22.91 | 23.32 | 24.46 Mbytes
Step Temp E_pair E_mol TotEng Press 
       0            0   -13136.702    6482.8914   -6653.8108    5943.3488 
     500            0   -13385.982    3731.1975   -9654.7844   -836.48045 
Loop time of 1.56995 on 24 procs for 500 steps with 2321 atoms

98.6% CPU use with 24 MPI tasks x no OpenMP threads

Minimization stats:
  Stopping criterion = max force evaluations
  Energy initial, next-to-last, final = 
        -6653.81078714     -9654.70725388     -9654.78440674
  Force two-norm initial, final = 2574.49 12.8794
  Force max component initial, final = 152.037 2.79667
  Final line search alpha, max atom move = 0.00383703 0.0107309
  Iterations, force evaluations = 500 1000

MPI task timing breakdown:
Section |  min time  |  avg time  |  max time  |%varavg| %total
---------------------------------------------------------------
Pair    | 0.55767    | 0.78642    | 1.1009     |  16.4 | 50.09
Bond    | 0.11649    | 0.15807    | 0.21783    |   6.5 | 10.07
Neigh   | 0.01286    | 0.013297   | 0.013787   |   0.2 |  0.85
Comm    | 0.17237    | 0.53379    | 0.75971    |  21.3 | 34.00
Output  | 0          | 0          | 0          |   0.0 |  0.00
Modify  | 0          | 0          | 0          |   0.0 |  0.00
Other   |            | 0.07838    |            |       |  4.99

Nlocal:    96.7083 ave 121 max 79 min
Histogram: 4 2 3 3 3 3 1 2 1 2
Nghost:    2603.54 ave 2780 max 2494 min
Histogram: 4 12 0 0 0 0 0 0 3 5
Neighs:    7639.88 ave 11752 max 4752 min
Histogram: 7 0 2 3 3 2 2 2 1 2

Total # of neighbors = 183357
Ave neighs/atom = 78.9991
Ave special neighs/atom = 4.96338
Neighbor list builds = 13
Dangerous builds = 0
Neighbor list info ...
  update every 1 steps, delay 10 steps, check yes
  max neighbors/atom: 2000, page size: 100000
  master list distance cutoff = 16
  ghost atom cutoff = 16
  binsize = 8, bins = 6 6 6
  3 neighbor lists, perpetual/occasional/extra = 3 0 0
  (1) pair buck6d/coul/gauss/dsf, perpetual, skip from (3)
      attributes: half, newton on
      pair build: skip
      stencil: none
      bin: none
  (2) pair lj/cut, perpetual, skip from (3)
      attributes: half, newton on
      pair build: skip
      stencil: none
      bin: none
  (3) neighbor class addition, perpetual
      attributes: half, newton on
      pair build: half/bin/newton
      stencil: half/bin/3d/newton
      bin: standard
Setting up Verlet run ...
  Unit style    : real
  Current step  : 500
  Time step     : 1
WARNING: Inconsistent image flags (../domain.cpp:786)
Per MPI rank memory allocation (min/avg/max) = 22.56 | 22.78 | 23.34 Mbytes
Step Temp PotEng TotEng Press Volume Lx Ly Lz 
     500          110   -9654.7844   -8894.0817   -495.57327     102002.7      46.7237      46.7237      46.7237 
    1000    94.195857   -8992.9015    -8341.492   -784.56114     102002.7      46.7237      46.7237      46.7237 
    2000    112.71924   -8843.5582   -8064.0506   -692.68987     102002.7      46.7237      46.7237      46.7237 
    3000    112.42676    -8857.171   -8079.6861    -848.4238     102002.7      46.7237      46.7237      46.7237 
    4000    111.09744   -8859.4224   -8091.1304   -530.00581     102002.7      46.7237      46.7237      46.7237 
    5000    110.61381   -8852.1736   -8087.2261   -667.95414     102002.7      46.7237      46.7237      46.7237 
    6000    112.36703   -8841.2221   -8064.1503   -741.71581     102002.7      46.7237      46.7237      46.7237 
    7000    108.73503   -8859.0923   -8107.1374   -804.86616     102002.7      46.7237      46.7237      46.7237 
    8000    108.44659   -8851.9384   -8101.9783   -762.82014     102002.7      46.7237      46.7237      46.7237 
    9000    111.91317   -8855.5081   -8081.5748    -552.3951     102002.7      46.7237      46.7237      46.7237 
   10000    114.10874   -8799.8815   -8010.7648   -831.78637     102002.7      46.7237      46.7237      46.7237 
   11000    109.37159   -8833.4999    -8077.143   -925.27259     102002.7      46.7237      46.7237      46.7237 
   12000    111.23265    -8844.694   -8075.4669   -828.92252     102002.7      46.7237      46.7237      46.7237 
   13000    109.73598   -8849.4114   -8090.5346   -832.78016     102002.7      46.7237      46.7237      46.7237 
   14000    110.15641   -8850.1134    -8088.329   -895.46618     102002.7      46.7237      46.7237      46.7237 
   15000    111.75724   -8822.7526   -8049.8977   -892.16063     102002.7      46.7237      46.7237      46.7237 
   16000    112.72006   -8860.7281   -8081.2149   -745.89003     102002.7      46.7237      46.7237      46.7237 
   17000     107.8211   -8849.4501   -8103.8155   -730.68756     102002.7      46.7237      46.7237      46.7237 
   18000    108.22573   -8837.4021   -8088.9693    -698.1552     102002.7      46.7237      46.7237      46.7237 
   19000    107.07789   -8866.2562   -8125.7612    -771.6122     102002.7      46.7237      46.7237      46.7237 
   20000    110.59253   -8841.1583    -8076.358   -718.13083     102002.7      46.7237      46.7237      46.7237 
   21000    108.98372   -8827.8581   -8074.1834   -675.91127     102002.7      46.7237      46.7237      46.7237 
   22000    110.27188   -8817.2358   -8054.6529   -792.23725     102002.7      46.7237      46.7237      46.7237 
   23000     111.9647   -8855.3229   -8081.0333   -848.80918     102002.7      46.7237      46.7237      46.7237 
   24000    109.00036   -8845.7577    -8091.968   -871.50767     102002.7      46.7237      46.7237      46.7237 
   25000    109.99138    -8855.843   -8095.1999   -914.40404     102002.7      46.7237      46.7237      46.7237 
   26000    109.37565   -8848.3108   -8091.9257   -872.87834     102002.7      46.7237      46.7237      46.7237 
   27000     111.2443   -8841.3613   -8072.0537   -1000.0081     102002.7      46.7237      46.7237      46.7237 
   28000    107.69909   -8814.7963   -8070.0055   -583.05556     102002.7      46.7237      46.7237      46.7237 
   29000     111.2764   -8807.9391   -8038.4094   -799.44325     102002.7      46.7237      46.7237      46.7237 
   30000    109.74207   -8838.0711    -8079.152   -738.24763     102002.7      46.7237      46.7237      46.7237 
   31000    109.35834   -8840.8386   -8084.5732    -385.1016     102002.7      46.7237      46.7237      46.7237 
   32000    109.13389   -8818.5689   -8063.8558   -1170.9059     102002.7      46.7237      46.7237      46.7237 
   33000    109.38067   -8819.9202   -8063.5005   -788.74283     102002.7      46.7237      46.7237      46.7237 
   34000    113.72027   -8866.9441   -8080.5139    -826.8587     102002.7      46.7237      46.7237      46.7237 
   35000    111.41059   -8868.0105   -8097.5529   -842.64844     102002.7      46.7237      46.7237      46.7237 
   36000    108.93362   -8850.2591   -8096.9309   -739.59709     102002.7      46.7237      46.7237      46.7237 
   37000    110.23737    -8841.282   -8078.9377   -848.59365     102002.7      46.7237      46.7237      46.7237 
   38000     107.4983   -8848.6861   -8105.2838   -909.73564     102002.7      46.7237      46.7237      46.7237 
   39000    111.43358   -8864.8882   -8094.2716   -964.11673     102002.7      46.7237      46.7237      46.7237 
   40000     109.7846   -8841.3327   -8082.1196   -1059.2497     102002.7      46.7237      46.7237      46.7237 
   41000     109.1156    -8844.219   -8089.6324    -895.6549     102002.7      46.7237      46.7237      46.7237 
   42000    107.94096   -8850.5226   -8104.0592     -946.469     102002.7      46.7237      46.7237      46.7237 
   43000     109.9612   -8843.5742   -8083.1398   -693.19758     102002.7      46.7237      46.7237      46.7237 
   44000    110.94302   -8864.7374   -8097.5132   -929.69284     102002.7      46.7237      46.7237      46.7237 
   45000     111.3727   -8833.7877   -8063.5921   -928.54454     102002.7      46.7237      46.7237      46.7237 
   46000    109.12933   -8882.1234   -8127.4418   -893.95304     102002.7      46.7237      46.7237      46.7237 
   47000    107.25053   -8836.9015   -8095.2127   -1158.8792     102002.7      46.7237      46.7237      46.7237 
   48000    111.21743    -8855.611   -8086.4892   -553.02787     102002.7      46.7237      46.7237      46.7237 
   49000    112.14616    -8835.154   -8059.6096    -801.4687     102002.7      46.7237      46.7237      46.7237 
   50000    109.29055   -8815.5609   -8059.7644   -768.32949     102002.7      46.7237      46.7237      46.7237 
   51000     107.6019   -8834.3201   -8090.2014   -693.17283     102002.7      46.7237      46.7237      46.7237 
   52000    108.80955   -8828.8973   -8076.4272   -1124.0984     102002.7      46.7237      46.7237      46.7237 
   53000    111.05065   -8837.6556   -8069.6871   -963.75377     102002.7      46.7237      46.7237      46.7237 
   54000     107.5821   -8827.1337    -8083.152   -1323.6318     102002.7      46.7237      46.7237      46.7237 
   55000    108.56174   -8846.2622   -8095.5058     -1127.55     102002.7      46.7237      46.7237      46.7237 
   56000    109.96727   -8845.4578   -8084.9814   -847.03395     102002.7      46.7237      46.7237      46.7237 
   57000    109.63861   -8845.7039   -8087.5003   -857.83435     102002.7      46.7237      46.7237      46.7237 
   58000    110.31422   -8846.6492   -8083.7735   -737.99135     102002.7      46.7237      46.7237      46.7237 
   59000    107.01329   -8825.2407   -8085.1925   -717.54049     102002.7      46.7237      46.7237      46.7237 
   60000    110.93166   -8829.1666    -8062.021   -731.90493     102002.7      46.7237      46.7237      46.7237 
   61000    107.46251   -8850.7891   -8107.6343   -774.55979     102002.7      46.7237      46.7237      46.7237 
   62000     109.4718   -8853.5147   -8096.4648   -839.58881     102002.7      46.7237      46.7237      46.7237 
   63000    112.44461    -8824.488   -8046.8796   -651.23611     102002.7      46.7237      46.7237      46.7237 
   64000    110.33977   -8838.3668   -8075.3144   -569.72025     102002.7      46.7237      46.7237      46.7237 
   65000    112.76796   -8837.2103   -8057.3658   -817.53885     102002.7      46.7237      46.7237      46.7237 
   66000    108.39296   -8865.2273    -8115.638   -353.53546     102002.7      46.7237      46.7237      46.7237 
   67000    112.14711    -8858.964    -8083.413   -890.47556     102002.7      46.7237      46.7237      46.7237 
   68000    110.57127    -8840.608   -8075.9547   -682.70277     102002.7      46.7237      46.7237      46.7237 
   69000    110.85702   -8848.3678   -8081.7384   -726.39259     102002.7      46.7237      46.7237      46.7237 
   70000    106.95988   -8823.3689     -8083.69   -703.97466     102002.7      46.7237      46.7237      46.7237 
   71000    109.38962   -8824.8135   -8068.3318   -654.05917     102002.7      46.7237      46.7237      46.7237 
   72000    110.47705   -8849.6571   -8085.6554   -745.25361     102002.7      46.7237      46.7237      46.7237 
   73000     108.6668   -8823.5043   -8072.0213   -707.90891     102002.7      46.7237      46.7237      46.7237 
   74000    107.23488   -8839.3947   -8097.8141   -932.06687     102002.7      46.7237      46.7237      46.7237 
   75000    113.40408   -8850.3106    -8066.067    -946.2368     102002.7      46.7237      46.7237      46.7237 
   76000    109.56652   -8833.5898   -8075.8847   -993.05778     102002.7      46.7237      46.7237      46.7237 
   77000    108.39894   -8855.1038   -8105.4732   -1171.1514     102002.7      46.7237      46.7237      46.7237 
   78000    108.29416   -8834.3153   -8085.4093   -1141.8015     102002.7      46.7237      46.7237      46.7237 
   79000    110.78465   -8808.5877   -8042.4588   -1054.0799     102002.7      46.7237      46.7237      46.7237 
   80000    108.58974   -8843.6207   -8092.6705   -1046.8866     102002.7      46.7237      46.7237      46.7237 
   81000    109.18357   -8819.2648   -8064.2081   -926.59831     102002.7      46.7237      46.7237      46.7237 
   82000    107.81028   -8832.0158   -8086.4561   -861.18909     102002.7      46.7237      46.7237      46.7237 
   83000    109.12957   -8830.1705   -8075.4872   -1035.6859     102002.7      46.7237      46.7237      46.7237 
   84000    110.35108   -8822.3659   -8059.2353   -825.75086     102002.7      46.7237      46.7237      46.7237 
   85000    107.16515   -8831.7563    -8090.658   -773.28182     102002.7      46.7237      46.7237      46.7237 
   86000    107.58939   -8828.1961   -8084.1639   -787.46353     102002.7      46.7237      46.7237      46.7237 
   87000    112.93931   -8830.2839   -8049.2544   -678.28649     102002.7      46.7237      46.7237      46.7237 
   88000    109.30939   -8833.7177   -8077.7909   -707.38451     102002.7      46.7237      46.7237      46.7237 
   89000    108.00976   -8815.7874   -8068.8481   -402.00851     102002.7      46.7237      46.7237      46.7237 
   90000    109.04748   -8852.7212   -8098.6056   -489.86383     102002.7      46.7237      46.7237      46.7237 
   91000    109.59461    -8842.969   -8085.0697   -549.77737     102002.7      46.7237      46.7237      46.7237 
   92000    112.51901   -8820.8507   -8042.7278   -755.10457     102002.7      46.7237      46.7237      46.7237 
   93000    108.47605    -8814.985   -8064.8211   -420.81513     102002.7      46.7237      46.7237      46.7237 
   94000    110.80773   -8842.4737   -8076.1851    -682.5991     102002.7      46.7237      46.7237      46.7237 
   95000    110.34435   -8847.1165   -8084.0324   -882.38082     102002.7      46.7237      46.7237      46.7237 
   96000    109.38249   -8833.6504   -8077.2181   -746.47793     102002.7      46.7237      46.7237      46.7237 
   97000    111.74477    -8819.012   -8046.2433   -741.66232     102002.7      46.7237      46.7237      46.7237 
   98000    110.63854   -8815.3418   -8050.2232   -887.92422     102002.7      46.7237      46.7237      46.7237 
   99000    110.33846    -8814.812   -8051.7687   -900.35102     102002.7      46.7237      46.7237      46.7237 
  100000     112.6227   -8852.0529   -8073.2129   -702.72501     102002.7      46.7237      46.7237      46.7237 
  101000    106.56958   -8814.7322   -8077.7524   -871.52054     102002.7      46.7237      46.7237      46.7237 
  102000    111.09822   -8836.0625    -8067.765   -875.88025     102002.7      46.7237      46.7237      46.7237 
  103000    107.39471   -8823.9284   -8081.2425   -873.20273     102002.7      46.7237      46.7237      46.7237 
  104000     107.7983   -8841.1019    -8095.625   -782.41963     102002.7      46.7237      46.7237      46.7237 
  105000    109.42885   -8827.8047   -8071.0517   -933.32053     102002.7      46.7237      46.7237      46.7237 
  106000     110.2568   -8841.9267    -8079.448   -1047.4394     102002.7      46.7237      46.7237      46.7237 
  107000    106.40253   -8864.1007   -8128.2762     -1044.99     102002.7      46.7237      46.7237      46.7237 
  108000    111.21695   -8848.7068   -8079.5883   -746.81756     102002.7      46.7237      46.7237      46.7237 
  109000    108.12793   -8829.0737   -8081.3173   -1008.2039     102002.7      46.7237      46.7237      46.7237 
  110000    107.38593   -8849.4557   -8106.8305   -842.32666     102002.7      46.7237      46.7237      46.7237 
  111000    108.91045   -8847.1532   -8093.9853   -595.15072     102002.7      46.7237      46.7237      46.7237 
  112000    112.05902   -8835.2356   -8060.2938   -641.97967     102002.7      46.7237      46.7237      46.7237 
  113000    107.82077    -8818.697   -8073.0647   -735.02072     102002.7      46.7237      46.7237      46.7237 
  114000    107.03464   -8826.7259   -8086.5301   -725.12387     102002.7      46.7237      46.7237      46.7237 
  115000    110.24783   -8809.8299   -8047.4134   -684.61164     102002.7      46.7237      46.7237      46.7237 
  116000    107.93863   -8838.6028   -8092.1554   -814.50744     102002.7      46.7237      46.7237      46.7237 
  117000    109.16139   -8827.2861   -8072.3828   -300.35263     102002.7      46.7237      46.7237      46.7237 
  118000    111.94892   -8827.2113   -8053.0308    -623.2063     102002.7      46.7237      46.7237      46.7237 
  119000    110.70506   -8828.5149   -8062.9364   -607.93928     102002.7      46.7237      46.7237      46.7237 
  120000    108.10568   -8855.7923   -8108.1897    -681.5696     102002.7      46.7237      46.7237      46.7237 
  121000    112.26059   -8860.3843   -8084.0485   -518.09274     102002.7      46.7237      46.7237      46.7237 
  122000    111.28177   -8816.7451   -8047.1783   -649.70773     102002.7      46.7237      46.7237      46.7237 
  123000    108.20018   -8826.8495   -8078.5934   -758.78348     102002.7      46.7237      46.7237      46.7237 
  124000    110.49209   -8830.7331   -8066.6273    -827.9239     102002.7      46.7237      46.7237      46.7237 
  125000    107.43457   -8850.2799   -8107.3183   -1034.3015     102002.7      46.7237      46.7237      46.7237 
  126000    110.87446   -8843.7079   -8076.9579   -889.16427     102002.7      46.7237      46.7237      46.7237 
  127000     114.0021    -8824.409   -8036.0298   -903.13411     102002.7      46.7237      46.7237      46.7237 
  128000    108.75146   -8825.6053   -8073.5368   -755.39541     102002.7      46.7237      46.7237      46.7237 
  129000    111.87171    -8847.951   -8074.3045   -878.27205     102002.7      46.7237      46.7237      46.7237 
  130000    110.48984   -8806.1469   -8042.0567    -746.7556     102002.7      46.7237      46.7237      46.7237 
  131000    109.25882   -8827.8486   -8072.2715   -721.00994     102002.7      46.7237      46.7237      46.7237 
  132000    108.83092   -8831.3979   -8078.7799   -1048.6968     102002.7      46.7237      46.7237      46.7237 
  133000     109.4449    -8819.398    -8062.534   -692.21527     102002.7      46.7237      46.7237      46.7237 
  134000    110.12355   -8820.8599   -8059.3027   -983.59825     102002.7      46.7237      46.7237      46.7237 
  135000    109.84211   -8839.8565   -8080.2456    -759.2219     102002.7      46.7237      46.7237      46.7237 
  136000    111.08551   -8837.5152   -8069.3056   -695.98277     102002.7      46.7237      46.7237      46.7237 
  137000    114.41435   -8826.5693   -8035.3392   -982.15391     102002.7      46.7237      46.7237      46.7237 
  138000    110.47344   -8842.0113   -8078.0346   -522.66881     102002.7      46.7237      46.7237      46.7237 
  139000    110.61795   -8827.7479   -8062.7718   -1142.2088     102002.7      46.7237      46.7237      46.7237 
  140000    109.48183   -8830.8022   -8073.6829   -748.47626     102002.7      46.7237      46.7237      46.7237 
  141000    110.33103   -8851.8243   -8088.8324   -484.72832     102002.7      46.7237      46.7237      46.7237 
  142000    111.74147   -8816.1986   -8043.4528   -599.28791     102002.7      46.7237      46.7237      46.7237 
  143000    112.93877   -8819.2672   -8038.2415   -854.87114     102002.7      46.7237      46.7237      46.7237 
  144000    110.90617   -8835.8036   -8068.8342   -911.41255     102002.7      46.7237      46.7237      46.7237 
  145000    112.38799   -8803.2933   -8026.0764   -913.15808     102002.7      46.7237      46.7237      46.7237 
  146000    107.69826   -8821.7236   -8076.9385   -779.33189     102002.7      46.7237      46.7237      46.7237 
  147000    109.52297   -8818.5542   -8061.1504   -1023.5958     102002.7      46.7237      46.7237      46.7237 
  148000    109.16774   -8834.4249   -8079.4776   -862.74597     102002.7      46.7237      46.7237      46.7237 
  149000    112.55504     -8828.26    -8049.888   -929.61334     102002.7      46.7237      46.7237      46.7237 
  150000    111.50048   -8842.7353   -8071.6561    -1019.576     102002.7      46.7237      46.7237      46.7237 
  151000    110.70727   -8796.0207   -8030.4269   -702.07276     102002.7      46.7237      46.7237      46.7237 
  152000    113.96465   -8841.3205   -8053.2004   -736.10349     102002.7      46.7237      46.7237      46.7237 
  153000    112.87876   -8819.4628   -8038.8521   -1017.7854     102002.7      46.7237      46.7237      46.7237 
  154000    109.88104   -8832.6048   -8072.7248   -547.37289     102002.7      46.7237      46.7237      46.7237 
  155000    110.06221   -8807.7477   -8046.6148   -971.98177     102002.7      46.7237      46.7237      46.7237 
  156000     109.2777   -8811.4593   -8055.7516   -825.54531     102002.7      46.7237      46.7237      46.7237 
  157000    107.79385    -8824.949   -8079.5029   -908.27636     102002.7      46.7237      46.7237      46.7237 
  158000    109.53478    -8836.178   -8078.6925   -741.96218     102002.7      46.7237      46.7237      46.7237 
  159000    110.07302    -8844.533   -8083.3254   -795.86267     102002.7      46.7237      46.7237      46.7237 
  160000    111.46556   -8815.1782   -8044.3405   -1114.1599     102002.7      46.7237      46.7237      46.7237 
  161000    107.47082   -8819.9721   -8076.7599   -1201.4806     102002.7      46.7237      46.7237      46.7237 
  162000    111.34265   -8836.6462   -8066.6584   -737.72334     102002.7      46.7237      46.7237      46.7237 
  163000    109.50976    -8839.919   -8082.6065   -1075.0869     102002.7      46.7237      46.7237      46.7237 
  164000    106.97772   -8824.2861   -8084.4839   -860.32695     102002.7      46.7237      46.7237      46.7237 
  165000    109.99898   -8791.7663   -8031.0707   -669.64313     102002.7      46.7237      46.7237      46.7237 
  166000     109.0463   -8817.8791   -8063.7717   -950.70315     102002.7      46.7237      46.7237      46.7237 
  167000    107.45707   -8846.8066   -8103.6895   -555.77614     102002.7      46.7237      46.7237      46.7237 
  168000    111.20932   -8812.7661   -8043.7004   -909.44546     102002.7      46.7237      46.7237      46.7237 
  169000    112.40062   -8819.1823   -8041.8782   -976.13861     102002.7      46.7237      46.7237      46.7237 
  170000    111.13886   -8831.7671   -8063.1886   -781.31234     102002.7      46.7237      46.7237      46.7237 
  171000    109.11422   -8810.1451    -8055.568   -978.42992     102002.7      46.7237      46.7237      46.7237 
  172000    109.40297   -8811.0389   -8054.4649   -1202.4823     102002.7      46.7237      46.7237      46.7237 
  173000    108.76892   -8823.3138   -8071.1246   -650.08544     102002.7      46.7237      46.7237      46.7237 
  174000    108.82292   -8804.0905   -8051.5279   -639.39928     102002.7      46.7237      46.7237      46.7237 
  175000    106.64613   -8836.9001   -8099.3911    -889.2748     102002.7      46.7237      46.7237      46.7237 
  176000    107.84704   -8813.4627   -8067.6487   -1125.6777     102002.7      46.7237      46.7237      46.7237 
  177000     110.5446   -8823.6889     -8059.22   -887.87144     102002.7      46.7237      46.7237      46.7237 
  178000    112.58706   -8838.6574   -8060.0639   -905.12697     102002.7      46.7237      46.7237      46.7237 
  179000    110.25612    -8825.182   -8062.7081   -774.58583     102002.7      46.7237      46.7237      46.7237 
  180000    109.36138   -8833.3179   -8077.0315   -834.39187     102002.7      46.7237      46.7237      46.7237 
  181000    113.83412   -8840.6435    -8053.426   -612.13662     102002.7      46.7237      46.7237      46.7237 
  182000    109.09332   -8847.2902   -8092.8576   -631.76553     102002.7      46.7237      46.7237      46.7237 
  183000    110.82396   -8824.3126   -8057.9118   -610.69093     102002.7      46.7237      46.7237      46.7237 
  184000    111.40016   -8823.2753   -8052.8898   -881.61375     102002.7      46.7237      46.7237      46.7237 
  185000    104.79336    -8852.534   -8127.8377   -861.44522     102002.7      46.7237      46.7237      46.7237 
  186000    109.91103   -8835.4101   -8075.3226    -509.9601     102002.7      46.7237      46.7237      46.7237 
  187000    108.73032   -8840.0253    -8088.103   -474.27746     102002.7      46.7237      46.7237      46.7237 
  188000    111.89955   -8815.2096   -8041.3706     -749.702     102002.7      46.7237      46.7237      46.7237 
  189000    110.13249   -8851.4862   -8089.8673   -663.82605     102002.7      46.7237      46.7237      46.7237 
  190000    111.81687   -8826.9313   -8053.6641    -863.5916     102002.7      46.7237      46.7237      46.7237 
  191000    110.22328    -8827.959   -8065.7122   -782.75508     102002.7      46.7237      46.7237      46.7237 
  192000    109.85697   -8830.0088   -8070.2952   -985.67559     102002.7      46.7237      46.7237      46.7237 
  193000    111.77229   -8830.8324   -8057.8734   -971.84807     102002.7      46.7237      46.7237      46.7237 
  194000    108.96851    -8821.893   -8068.3235   -992.12251     102002.7      46.7237      46.7237      46.7237 
  195000    109.56407   -8858.4455   -8100.7575   -989.37946     102002.7      46.7237      46.7237      46.7237 
  196000    110.04767   -8809.3046   -8048.2722   -1069.4645     102002.7      46.7237      46.7237      46.7237 
  197000    109.43455   -8836.5315   -8079.7391   -946.80873     102002.7      46.7237      46.7237      46.7237 
  198000    110.88939   -8834.3861   -8067.5328   -696.90069     102002.7      46.7237      46.7237      46.7237 
  199000    109.42384   -8806.4511   -8049.7328   -583.43125     102002.7      46.7237      46.7237      46.7237 
  200000    108.84049    -8860.152   -8107.4679   -712.60199     102002.7      46.7237      46.7237      46.7237 
  201000     112.1482   -8840.0462   -8064.4877   -915.77662     102002.7      46.7237      46.7237      46.7237 
  202000    110.18557   -8848.8334   -8086.8474   -944.35161     102002.7      46.7237      46.7237      46.7237 
  203000    111.89777   -8806.6365   -8032.8098   -859.21114     102002.7      46.7237      46.7237      46.7237 
  204000    110.97164    -8828.391   -8060.9689   -1129.7044     102002.7      46.7237      46.7237      46.7237 
  205000    107.27511   -8819.6543   -8077.7954   -1300.6146     102002.7      46.7237      46.7237      46.7237 
  206000      107.169   -8851.7224   -8110.5974   -781.45515     102002.7      46.7237      46.7237      46.7237 
  207000    110.35745   -8831.8147   -8068.6401   -1021.2737     102002.7      46.7237      46.7237      46.7237 
  208000    109.89552   -8823.1203   -8063.1402   -959.05575     102002.7      46.7237      46.7237      46.7237 
  209000    110.88114    -8850.653   -8083.8567   -787.92994     102002.7      46.7237      46.7237      46.7237 
  210000     111.0628   -8808.3746   -8040.3221   -670.77254     102002.7      46.7237      46.7237      46.7237 
  211000    110.34449   -8819.9377   -8056.8527   -813.58525     102002.7      46.7237      46.7237      46.7237 
  212000    110.24276   -8857.7859   -8095.4043    -876.3976     102002.7      46.7237      46.7237      46.7237 
  213000    109.08362   -8838.9413   -8084.5758   -918.72508     102002.7      46.7237      46.7237      46.7237 
  214000    109.86056   -8825.3958   -8065.6573   -697.83021     102002.7      46.7237      46.7237      46.7237 
  215000    108.41055   -8859.0431   -8109.3322   -608.43657     102002.7      46.7237      46.7237      46.7237 
  216000     109.5481   -8819.2331   -8061.6555   -665.90341     102002.7      46.7237      46.7237      46.7237 
  217000    109.63098   -8814.6518   -8056.5011   -812.36556     102002.7      46.7237      46.7237      46.7237 
  218000    107.96485   -8831.7182   -8085.0895   -830.20873     102002.7      46.7237      46.7237      46.7237 
  219000    110.07687   -8828.3486   -8067.1142   -891.73222     102002.7      46.7237      46.7237      46.7237 
  220000    109.94916   -8831.9608   -8071.6097   -998.23694     102002.7      46.7237      46.7237      46.7237 
  221000    112.34362   -8830.2435   -8053.3335   -869.22057     102002.7      46.7237      46.7237      46.7237 
  222000    111.00891   -8866.2375   -8098.5576    -818.5923     102002.7      46.7237      46.7237      46.7237 
  223000    111.43675   -8796.1304   -8025.4919   -714.57827     102002.7      46.7237      46.7237      46.7237 
  224000    107.80923   -8821.6323   -8076.0798   -830.77903     102002.7      46.7237      46.7237      46.7237 
  225000    106.50836   -8841.2679   -8104.7116   -837.74226     102002.7      46.7237      46.7237      46.7237 
  226000    108.43428   -8838.6501   -8088.7751   -898.79785     102002.7      46.7237      46.7237      46.7237 
  227000    108.12899   -8818.8872   -8071.1233   -768.83407     102002.7      46.7237      46.7237      46.7237 
  228000    112.73748   -8823.9546   -8044.3209   -1094.6288     102002.7      46.7237      46.7237      46.7237 
  229000    111.04627   -8831.8703   -8063.9321   -1190.1606     102002.7      46.7237      46.7237      46.7237 
  230000    110.97398   -8841.6059   -8074.1676   -861.01555     102002.7      46.7237      46.7237      46.7237 
  231000     111.1333   -8825.5001   -8056.9601   -987.50591     102002.7      46.7237      46.7237      46.7237 
  232000    108.22744   -8848.4394   -8099.9948   -906.69925     102002.7      46.7237      46.7237      46.7237 
  233000    111.66668   -8835.1386   -8062.9099   -1063.3707     102002.7      46.7237      46.7237      46.7237 
  234000    105.42499   -8832.0277   -8102.9634   -758.84732     102002.7      46.7237      46.7237      46.7237 
  235000    111.87955   -8836.5431   -8062.8424    -720.3412     102002.7      46.7237      46.7237      46.7237 
  236000    111.55568   -8826.0348   -8054.5738   -618.70867     102002.7      46.7237      46.7237      46.7237 
  237000    107.34822   -8816.5821   -8074.2177   -683.43454     102002.7      46.7237      46.7237      46.7237 
  238000    109.67645   -8851.9609   -8093.4957   -599.83313     102002.7      46.7237      46.7237      46.7237 
  239000    108.60038   -8825.0232   -8073.9995   -903.04863     102002.7      46.7237      46.7237      46.7237 
  240000    110.37313   -8834.7413   -8071.4582   -907.45523     102002.7      46.7237      46.7237      46.7237 
  241000    111.52913   -8837.4056   -8066.1282   -1003.8135     102002.7      46.7237      46.7237      46.7237 
  242000    111.62044   -8835.1678    -8063.259   -778.45989     102002.7      46.7237      46.7237      46.7237 
  243000    108.40446   -8823.9949   -8074.3261   -895.89985     102002.7      46.7237      46.7237      46.7237 
  244000    111.13962   -8826.1431   -8057.5593   -885.96636     102002.7      46.7237      46.7237      46.7237 
  245000    109.53638   -8844.5742   -8087.0777    -1101.498     102002.7      46.7237      46.7237      46.7237 
  246000     109.1739   -8846.4813   -8091.4915   -1096.4378     102002.7      46.7237      46.7237      46.7237 
  247000    110.22366    -8836.715   -8074.4655   -987.91174     102002.7      46.7237      46.7237      46.7237 
  248000     111.2351   -8827.4138   -8058.1698   -923.04419     102002.7      46.7237      46.7237      46.7237 
  249000     110.2864   -8886.9545   -8124.2712   -822.32627     102002.7      46.7237      46.7237      46.7237 
  250000    111.65124   -8839.7431   -8067.6213   -899.09356     102002.7      46.7237      46.7237      46.7237 
  251000    106.83694   -8812.3209   -8073.4923     -977.912     102002.7      46.7237      46.7237      46.7237 
  252000    105.46243   -8834.4663    -8105.143   -955.62569     102002.7      46.7237      46.7237      46.7237 
  253000    113.76329   -8828.9018   -8042.1741   -884.23562     102002.7      46.7237      46.7237      46.7237 
  254000    114.76231    -8837.194   -8043.5577   -990.33857     102002.7      46.7237      46.7237      46.7237 
  255000    110.55777   -8830.1667   -8065.6068   -543.84092     102002.7      46.7237      46.7237      46.7237 
  256000    109.31172   -8826.1322   -8070.1893   -1056.4496     102002.7      46.7237      46.7237      46.7237 
  257000       107.15   -8835.0668   -8094.0733   -829.99861     102002.7      46.7237      46.7237      46.7237 
  258000    110.22783   -8820.9443    -8058.666   -525.98871     102002.7      46.7237      46.7237      46.7237 
  259000    111.67074   -8823.2134   -8050.9567   -951.11598     102002.7      46.7237      46.7237      46.7237 
  260000    108.13412   -8844.7919   -8096.9926   -893.95486     102002.7      46.7237      46.7237      46.7237 
  261000    107.08598    -8815.709   -8075.1581   -978.18439     102002.7      46.7237      46.7237      46.7237 
  262000    108.29915   -8812.5189   -8063.5783    -841.0553     102002.7      46.7237      46.7237      46.7237 
  263000    111.81052   -8822.1299   -8048.9066   -730.28153     102002.7      46.7237      46.7237      46.7237 
  264000    108.30551   -8861.8495    -8112.865   -810.91987     102002.7      46.7237      46.7237      46.7237 
  265000    107.76363   -8799.5563   -8054.3192   -765.73572     102002.7      46.7237      46.7237      46.7237 
  266000     112.3964   -8843.7475   -8066.4725   -724.45427     102002.7      46.7237      46.7237      46.7237 
  267000    110.09518   -8820.9738   -8059.6129   -913.29772     102002.7      46.7237      46.7237      46.7237 
  268000    107.52329   -8823.2153   -8079.6402   -727.72597     102002.7      46.7237      46.7237      46.7237 
  269000    109.07745    -8820.424   -8066.1012   -870.65033     102002.7      46.7237      46.7237      46.7237 
  270000    107.62037   -8817.2427   -8072.9963   -748.86494     102002.7      46.7237      46.7237      46.7237 
  271000    110.62175   -8825.7154    -8060.713   -532.80567     102002.7      46.7237      46.7237      46.7237 
  272000    109.75837   -8846.2114   -8087.1797   -1088.2317     102002.7      46.7237      46.7237      46.7237 
  273000    107.00017   -8835.7151   -8095.7577   -947.56568     102002.7      46.7237      46.7237      46.7237 
  274000    106.05257    -8829.707   -8096.3026   -1188.8587     102002.7      46.7237      46.7237      46.7237 
  275000    110.77215   -8832.0463   -8066.0038   -753.59661     102002.7      46.7237      46.7237      46.7237 
  276000    111.21214   -8817.7214   -8048.6361   -727.84496     102002.7      46.7237      46.7237      46.7237 
  277000    111.81365    -8840.453    -8067.208   -1016.5356     102002.7      46.7237      46.7237      46.7237 
  278000    107.24094   -8844.8219   -8103.1994   -884.85447     102002.7      46.7237      46.7237      46.7237 
  279000    111.72704   -8834.7444   -8062.0983   -1236.0934     102002.7      46.7237      46.7237      46.7237 
  280000    109.76555   -8800.9282   -8041.8468   -786.44234     102002.7      46.7237      46.7237      46.7237 
  281000    112.15018   -8837.4902   -8061.9179   -978.97696     102002.7      46.7237      46.7237      46.7237 
  282000    110.63585   -8826.1826   -8061.0826    -1016.791     102002.7      46.7237      46.7237      46.7237 
  283000    110.32576   -8845.9043   -8082.9488   -831.74817     102002.7      46.7237      46.7237      46.7237 
  284000    111.75724   -8809.1294   -8036.2745   -1167.8334     102002.7      46.7237      46.7237      46.7237 
  285000    110.39105   -8812.2503   -8048.8433    -869.1882     102002.7      46.7237      46.7237      46.7237 
  286000    106.86306   -8823.5713    -8084.562   -773.29788     102002.7      46.7237      46.7237      46.7237 
  287000    111.36955   -8824.1424   -8053.9686   -1049.6457     102002.7      46.7237      46.7237      46.7237 
  288000    111.92592   -8835.6148   -8061.5934   -720.28987     102002.7      46.7237      46.7237      46.7237 
  289000    110.47242   -8830.6868   -8066.7171   -945.23635     102002.7      46.7237      46.7237      46.7237 
  290000    107.60332   -8840.7589   -8096.6304   -551.31053     102002.7      46.7237      46.7237      46.7237 
  291000    110.52843   -8841.7254   -8077.3684   -649.53927     102002.7      46.7237      46.7237      46.7237 
  292000    109.98685   -8828.2013   -8067.5895   -822.59246     102002.7      46.7237      46.7237      46.7237 
  293000    110.63175   -8812.4819   -8047.4103   -596.48174     102002.7      46.7237      46.7237      46.7237 
  294000    113.20451   -8834.9756   -8052.1122   -668.90492     102002.7      46.7237      46.7237      46.7237 
  295000    110.18884   -8836.6518   -8074.6431   -722.90412     102002.7      46.7237      46.7237      46.7237 
  296000    107.92405   -8827.0434   -8080.6969   -921.15548     102002.7      46.7237      46.7237      46.7237 
  297000    106.04307   -8834.6248   -8101.2861   -684.29026     102002.7      46.7237      46.7237      46.7237 
  298000    108.92164   -8816.6727   -8063.4273   -862.38255     102002.7      46.7237      46.7237      46.7237 
  299000    109.08589   -8809.4277   -8055.0465   -984.53528     102002.7      46.7237      46.7237      46.7237 
  300000    112.65715   -8832.3711   -8053.2929   -760.47465     102002.7      46.7237      46.7237      46.7237 
  301000    113.84088   -8813.7696   -8026.5053     -568.731     102002.7      46.7237      46.7237      46.7237 
  302000    110.97419   -8837.8672   -8070.4275   -947.62444     102002.7      46.7237      46.7237      46.7237 
  303000    111.67092   -8820.6015   -8048.3436   -987.52564     102002.7      46.7237      46.7237      46.7237 
  304000    106.28607   -8830.7946   -8095.7754   -608.73219     102002.7      46.7237      46.7237      46.7237 
  305000    108.52001   -8827.8625   -8077.3946   -899.85541     102002.7      46.7237      46.7237      46.7237 
  306000    110.36827   -8854.2022   -8090.9527   -971.15165     102002.7      46.7237      46.7237      46.7237 
  307000    106.67131   -8824.2828   -8086.5995   -988.51354     102002.7      46.7237      46.7237      46.7237 
  308000    108.34485   -8840.0244   -8090.7678    -994.2362     102002.7      46.7237      46.7237      46.7237 
  309000    107.50236   -8818.1154   -8074.6851   -934.69627     102002.7      46.7237      46.7237      46.7237 
  310000    109.06859      -8848.8   -8094.5385   -878.84582     102002.7      46.7237      46.7237      46.7237 
  311000    110.14248   -8832.5164   -8070.8283   -558.66921     102002.7      46.7237      46.7237      46.7237 
  312000    110.78459   -8823.9545   -8057.8259   -617.70995     102002.7      46.7237      46.7237      46.7237 
  313000    107.23637   -8826.5384   -8084.9475   -542.05763     102002.7      46.7237      46.7237      46.7237 
  314000     107.0703   -8837.3048   -8096.8623   -627.67964     102002.7      46.7237      46.7237      46.7237 
  315000    109.25506      -8838.5   -8082.9489   -596.44053     102002.7      46.7237      46.7237      46.7237 
  316000     107.1447   -8822.2248   -8081.2678   -810.11581     102002.7      46.7237      46.7237      46.7237 
  317000    110.37993   -8827.2041    -8063.874   -991.11591     102002.7      46.7237      46.7237      46.7237 
  318000     110.7531   -8831.8054   -8065.8946   -807.82849     102002.7      46.7237      46.7237      46.7237 
  319000    110.28246   -8855.2894   -8092.6333   -538.72935     102002.7      46.7237      46.7237      46.7237 
  320000    111.52785   -8843.3663   -8072.0978   -650.55119     102002.7      46.7237      46.7237      46.7237 
  321000    112.43061   -8847.5196    -8070.008   -805.27886     102002.7      46.7237      46.7237      46.7237 
  322000    109.01488   -8842.2457   -8088.3555   -624.64761     102002.7      46.7237      46.7237      46.7237 
  323000    110.53085    -8795.289   -8030.9152   -797.31336     102002.7      46.7237      46.7237      46.7237 
  324000    108.42704   -8831.2005   -8081.3756   -782.62552     102002.7      46.7237      46.7237      46.7237 
  325000    107.56722   -8838.4088   -8094.5299   -776.92875     102002.7      46.7237      46.7237      46.7237 
  326000    111.65825   -8824.5467   -8052.3764   -882.54798     102002.7      46.7237      46.7237      46.7237 
  327000    109.17454   -8834.4877   -8079.4934   -837.18556     102002.7      46.7237      46.7237      46.7237 
  328000     111.7562   -8848.4376   -8075.5899   -576.27799     102002.7      46.7237      46.7237      46.7237 
  329000    110.69734    -8833.233   -8067.7079   -844.72236     102002.7      46.7237      46.7237      46.7237 
  330000    112.04498   -8798.8178   -8023.9731   -705.37646     102002.7      46.7237      46.7237      46.7237 
  331000    109.84608   -8819.2971   -8059.6588   -749.56352     102002.7      46.7237      46.7237      46.7237 
  332000    114.12057   -8831.9366   -8042.7382   -765.70409     102002.7      46.7237      46.7237      46.7237 
  333000    110.04064   -8799.8381   -8038.8543    -677.2454     102002.7      46.7237      46.7237      46.7237 
  334000    109.86246   -8836.4547   -8076.7031   -1045.0037     102002.7      46.7237      46.7237      46.7237 
  335000    112.03666   -8813.8961   -8039.1089   -918.13851     102002.7      46.7237      46.7237      46.7237 
  336000    106.45291   -8816.1818   -8080.0089   -760.83442     102002.7      46.7237      46.7237      46.7237 
  337000    109.41923   -8844.7889   -8088.1025   -680.39006     102002.7      46.7237      46.7237      46.7237 
  338000    108.61286   -8806.0563   -8054.9463   -714.92032     102002.7      46.7237      46.7237      46.7237 
  339000    110.23196   -8828.0886   -8065.7818   -704.05217     102002.7      46.7237      46.7237      46.7237 
  340000    111.04249    -8836.494    -8068.582   -700.18995     102002.7      46.7237      46.7237      46.7237 
  341000    110.80408   -8836.6574   -8070.3941   -1059.6894     102002.7      46.7237      46.7237      46.7237 
  342000    110.08474   -8838.6504   -8077.3616   -1100.5144     102002.7      46.7237      46.7237      46.7237 
  343000    112.91851   -8834.1977   -8053.3121   -764.62731     102002.7      46.7237      46.7237      46.7237 
  344000     114.3157   -8843.5189   -8052.9711   -869.48601     102002.7      46.7237      46.7237      46.7237 
  345000     110.8566    -8835.685   -8069.0585   -761.61411     102002.7      46.7237      46.7237      46.7237 
  346000    111.79784   -8816.3948   -8043.2592   -914.70267     102002.7      46.7237      46.7237      46.7237 
  347000    109.76337   -8818.5753    -8059.509    -1055.302     102002.7      46.7237      46.7237      46.7237 
  348000    111.46381   -8820.6333   -8049.8077   -974.28604     102002.7      46.7237      46.7237      46.7237 
  349000    109.80594   -8819.2205   -8059.8598   -838.38827     102002.7      46.7237      46.7237      46.7237 
  350000    109.52398   -8812.5485   -8055.1377   -1130.9236     102002.7      46.7237      46.7237      46.7237 
  351000    109.97189   -8837.6531   -8077.1448   -880.49924     102002.7      46.7237      46.7237      46.7237 
  352000    111.82583   -8841.0593   -8067.7301   -965.04287     102002.7      46.7237      46.7237      46.7237 
  353000    111.12049    -8801.959   -8033.5075   -569.72617     102002.7      46.7237      46.7237      46.7237 
  354000    112.16825   -8803.5012    -8027.804   -964.39231     102002.7      46.7237      46.7237      46.7237 
  355000    109.37324    -8834.331   -8077.9626   -889.81512     102002.7      46.7237      46.7237      46.7237 
  356000    106.66114   -8831.8142   -8094.2013   -782.95904     102002.7      46.7237      46.7237      46.7237 
  357000    111.86706   -8825.5346   -8051.9202    -1114.469     102002.7      46.7237      46.7237      46.7237 
  358000    111.20701   -8824.2687   -8055.2189   -488.91132     102002.7      46.7237      46.7237      46.7237 
  359000     109.3921   -8811.4061   -8054.9073   -996.75509     102002.7      46.7237      46.7237      46.7237 
  360000    112.22697   -8804.7654    -8028.662   -768.12947     102002.7      46.7237      46.7237      46.7237 
  361000    109.21466   -8832.7774   -8077.5057   -798.56448     102002.7      46.7237      46.7237      46.7237 
  362000    106.09671   -8809.0412   -8075.3316   -721.83204     102002.7      46.7237      46.7237      46.7237 
  363000     109.7174    -8811.201   -8052.4526   -610.80099     102002.7      46.7237      46.7237      46.7237 
  364000    106.87971   -8829.9899   -8090.8655   -798.53138     102002.7      46.7237      46.7237      46.7237 
  365000    108.41801   -8808.0235    -8058.261   -507.37238     102002.7      46.7237      46.7237      46.7237 
  366000    107.90145   -8813.0615   -8066.8713   -798.82494     102002.7      46.7237      46.7237      46.7237 
  367000    106.45043   -8824.6212   -8088.4654   -1098.1218     102002.7      46.7237      46.7237      46.7237 
  368000    108.23672   -8826.0833   -8077.5745   -606.95964     102002.7      46.7237      46.7237      46.7237 
  369000    110.34779   -8851.4176   -8088.3097   -764.87359     102002.7      46.7237      46.7237      46.7237 
  370000    110.43433   -8820.6168   -8056.9105   -714.90667     102002.7      46.7237      46.7237      46.7237 
  371000    111.83717   -8810.5699   -8037.1622   -616.97755     102002.7      46.7237      46.7237      46.7237 
  372000    110.57041    -8827.937   -8063.2896   -1154.6019     102002.7      46.7237      46.7237      46.7237 
  373000    111.29278   -8832.5818   -8062.9388    -938.4511     102002.7      46.7237      46.7237      46.7237 
  374000    109.84573   -8796.6924   -8037.0565    -1157.505     102002.7      46.7237      46.7237      46.7237 
  375000    112.67029   -8815.2678   -8036.0987   -1010.5647     102002.7      46.7237      46.7237      46.7237 
  376000    110.55506   -8822.5514   -8058.0101    -835.2706     102002.7      46.7237      46.7237      46.7237 
  377000    108.15896   -8825.9259   -8077.9549    -931.7392     102002.7      46.7237      46.7237      46.7237 
  378000    106.03823   -8826.6887   -8093.3836   -606.80869     102002.7      46.7237      46.7237      46.7237 
  379000    114.20497   -8811.7237   -8021.9416    -707.0915     102002.7      46.7237      46.7237      46.7237 
  380000    108.20829    -8839.066   -8090.7538   -750.51565     102002.7      46.7237      46.7237      46.7237 
  381000    110.67722   -8817.4501   -8052.0641    -664.0768     102002.7      46.7237      46.7237      46.7237 
  382000    110.09856   -8830.8705   -8069.4862   -1007.8792     102002.7      46.7237      46.7237      46.7237 
  383000    110.45831   -8843.8866   -8080.0144   -965.76424     102002.7      46.7237      46.7237      46.7237 
  384000    111.03802   -8842.5725   -8074.6914   -836.95924     102002.7      46.7237      46.7237      46.7237 
  385000    112.16829   -8840.9416   -8065.2442   -996.00663     102002.7      46.7237      46.7237      46.7237 
  386000    111.56781   -8842.7904   -8071.2455   -611.27352     102002.7      46.7237      46.7237      46.7237 
  387000    108.52368   -8841.5203    -8091.027   -793.71173     102002.7      46.7237      46.7237      46.7237 
  388000    106.72006   -8835.7797   -8097.7593   -1042.7339     102002.7      46.7237      46.7237      46.7237 
  389000    109.34402   -8817.3759   -8061.2096   -723.92742     102002.7      46.7237      46.7237      46.7237 
  390000    107.26447    -8823.821   -8082.0357   -1063.8536     102002.7      46.7237      46.7237      46.7237 
  391000     109.3885   -8838.4253   -8081.9514   -1005.2621     102002.7      46.7237      46.7237      46.7237 
  392000    110.43252   -8849.1424   -8085.4485   -604.27479     102002.7      46.7237      46.7237      46.7237 
  393000     111.0552   -8801.0175   -8033.0176   -842.16378     102002.7      46.7237      46.7237      46.7237 
  394000    111.05526   -8841.3037   -8073.3034    -536.1779     102002.7      46.7237      46.7237      46.7237 
  395000    111.77966   -8798.9167   -8025.9068   -579.98852     102002.7      46.7237      46.7237      46.7237 
  396000    109.86807   -8846.5029   -8086.7125   -814.73569     102002.7      46.7237      46.7237      46.7237 
  397000    112.44157   -8836.7419   -8059.1546   -733.34442     102002.7      46.7237      46.7237      46.7237 
  398000    113.74964   -8828.7331   -8042.0998   -781.61316     102002.7      46.7237      46.7237      46.7237 
  399000    108.87952   -8825.7155   -8072.7615   -798.29485     102002.7      46.7237      46.7237      46.7237 
  400000    107.10957   -8818.1325   -8077.4185   -741.87333     102002.7      46.7237      46.7237      46.7237 
  401000    113.70067   -8816.0332   -8029.7385   -659.75594     102002.7      46.7237      46.7237      46.7237 
  402000    106.06287   -8829.8893   -8096.4137   -879.12919     102002.7      46.7237      46.7237      46.7237 
  403000    109.16809   -8814.7402   -8059.7905   -864.25699     102002.7      46.7237      46.7237      46.7237 
  404000    110.10105   -8819.1699   -8057.7684   -727.97347     102002.7      46.7237      46.7237      46.7237 
  405000    109.55345   -8843.4329   -8085.8183   -1008.3402     102002.7      46.7237      46.7237      46.7237 
  406000    108.98261   -8827.0951   -8073.4281     -1017.69     102002.7      46.7237      46.7237      46.7237 
  407000    109.04265   -8845.8224   -8091.7402   -943.44037     102002.7      46.7237      46.7237      46.7237 
  408000    109.95718   -8810.1584   -8049.7518    -1004.798     102002.7      46.7237      46.7237      46.7237 
  409000     110.9862   -8832.9983   -8065.4755   -813.91797     102002.7      46.7237      46.7237      46.7237 
  410000    110.29885   -8847.0821   -8084.3127   -613.79116     102002.7      46.7237      46.7237      46.7237 
  411000    107.83208   -8837.2683   -8091.5577   -1181.2319     102002.7      46.7237      46.7237      46.7237 
  412000    109.41298   -8809.1703   -8052.5271     -893.794     102002.7      46.7237      46.7237      46.7237 
  413000    112.63659   -8824.6404   -8045.7044   -826.36211     102002.7      46.7237      46.7237      46.7237 
  414000    112.36304   -8824.4617   -8047.4174   -1075.6037     102002.7      46.7237      46.7237      46.7237 
  415000    110.10925   -8844.4325   -8082.9742   -1109.7449     102002.7      46.7237      46.7237      46.7237 
  416000    109.62217   -8819.6246   -8061.5347   -973.45007     102002.7      46.7237      46.7237      46.7237 
  417000    110.74008   -8816.4466   -8050.6259   -828.19101     102002.7      46.7237      46.7237      46.7237 
  418000    109.23694   -8837.7627   -8082.3369   -664.40941     102002.7      46.7237      46.7237      46.7237 
  419000    110.73998   -8836.8914   -8071.0714   -723.34978     102002.7      46.7237      46.7237      46.7237 
  420000    111.06918   -8807.7974   -8039.7007   -1036.8771     102002.7      46.7237      46.7237      46.7237 
  421000    111.42543   -8831.0602   -8060.4999   -860.83392     102002.7      46.7237      46.7237      46.7237 
  422000    111.54793   -8828.4416   -8057.0342   -837.10561     102002.7      46.7237      46.7237      46.7237 
  423000    111.71944   -8835.3749   -8062.7815   -841.48958     102002.7      46.7237      46.7237      46.7237 
  424000    112.41656   -8810.2872   -8032.8728   -824.83605     102002.7      46.7237      46.7237      46.7237 
  425000    109.21353   -8826.6138   -8071.3499   -860.88878     102002.7      46.7237      46.7237      46.7237 
  426000    108.00507   -8810.4733   -8063.5664   -556.03069     102002.7      46.7237      46.7237      46.7237 
  427000    107.23879   -8820.5606    -8078.953   -921.20425     102002.7      46.7237      46.7237      46.7237 
  428000    112.10826   -8818.9639   -8043.6815   -706.69496     102002.7      46.7237      46.7237      46.7237 
  429000    108.57682   -8846.2145   -8095.3537   -735.94697     102002.7      46.7237      46.7237      46.7237 
  430000    112.82547    -8831.013   -8050.7708   -739.01319     102002.7      46.7237      46.7237      46.7237 
  431000      109.489   -8834.8563   -8077.6874   -552.77208     102002.7      46.7237      46.7237      46.7237 
  432000     110.4764   -8835.0877   -8071.0904   -832.35715     102002.7      46.7237      46.7237      46.7237 
  433000    111.71435   -8821.5729   -8049.0146   -641.46949     102002.7      46.7237      46.7237      46.7237 
  434000    108.86637   -8804.6234   -8051.7602   -863.00604     102002.7      46.7237      46.7237      46.7237 
  435000     110.3671   -8832.3341   -8069.0927   -998.82572     102002.7      46.7237      46.7237      46.7237 
  436000    114.33944   -8824.7401   -8034.0281   -616.91186     102002.7      46.7237      46.7237      46.7237 
  437000    110.89086    -8826.068   -8059.2045   -447.84619     102002.7      46.7237      46.7237      46.7237 
  438000    110.95349   -8826.1472   -8058.8506   -850.45365     102002.7      46.7237      46.7237      46.7237 
  439000    109.51629   -8798.9404   -8041.5827   -962.49603     102002.7      46.7237      46.7237      46.7237 
  440000    113.13571   -8824.2615   -8041.8739   -943.73938     102002.7      46.7237      46.7237      46.7237 
  441000     107.6768   -8826.5422   -8081.9055   -688.88813     102002.7      46.7237      46.7237      46.7237 
  442000    108.85523    -8817.849   -8065.0629   -703.87504     102002.7      46.7237      46.7237      46.7237 
  443000    109.91933   -8838.1424   -8077.9975   -893.64739     102002.7      46.7237      46.7237      46.7237 
  444000    109.08877   -8830.8007   -8076.3996   -661.42903     102002.7      46.7237      46.7237      46.7237 
  445000    113.25979   -8836.1864   -8052.9406     -842.159     102002.7      46.7237      46.7237      46.7237 
  446000    112.58362   -8849.8174   -8071.2477   -563.10398     102002.7      46.7237      46.7237      46.7237 
  447000    104.97026   -8830.9621   -8105.0425    -750.9775     102002.7      46.7237      46.7237      46.7237 
  448000    110.52279   -8849.6389   -8085.3209   -871.14917     102002.7      46.7237      46.7237      46.7237 
  449000    106.31691   -8831.7364    -8096.504   -1012.0246     102002.7      46.7237      46.7237      46.7237 
  450000    111.85721   -8833.7074   -8060.1612   -944.90921     102002.7      46.7237      46.7237      46.7237 
  451000    109.08381   -8840.2433   -8085.8764   -827.88347     102002.7      46.7237      46.7237      46.7237 
  452000    110.64431    -8814.601   -8049.4425   -827.45329     102002.7      46.7237      46.7237      46.7237 
  453000    110.00568   -8815.1081   -8054.3661   -745.78361     102002.7      46.7237      46.7237      46.7237 
  454000    107.95024   -8812.0878   -8065.5601    -975.8058     102002.7      46.7237      46.7237      46.7237 
  455000    108.76497   -8844.3389   -8092.1771   -864.21988     102002.7      46.7237      46.7237      46.7237 
  456000    109.33179   -8813.6901   -8057.6084   -1133.0896     102002.7      46.7237      46.7237      46.7237 
  457000    109.77671   -8844.0904   -8084.9318   -803.79039     102002.7      46.7237      46.7237      46.7237 
  458000    110.18766   -8838.1058   -8076.1054   -867.74075     102002.7      46.7237      46.7237      46.7237 
  459000      111.385   -8812.4486   -8042.1679   -691.26254     102002.7      46.7237      46.7237      46.7237 
  460000    110.12641   -8827.8846   -8066.3077    -652.6432     102002.7      46.7237      46.7237      46.7237 
  461000    110.94063   -8815.9159   -8048.7083   -839.48522     102002.7      46.7237      46.7237      46.7237 
  462000    108.78406   -8826.1046   -8073.8107   -1003.7448     102002.7      46.7237      46.7237      46.7237 
  463000    107.38035   -8836.5455   -8093.9589   -1012.5481     102002.7      46.7237      46.7237      46.7237 
  464000    111.12222   -8821.0566   -8052.5932   -756.34355     102002.7      46.7237      46.7237      46.7237 
  465000    113.92712   -8831.8243   -8043.9637   -1020.6815     102002.7      46.7237      46.7237      46.7237 
  466000    108.23374   -8831.3323   -8082.8441   -801.63798     102002.7      46.7237      46.7237      46.7237 
  467000    110.99994   -8824.0272   -8056.4094   -755.15623     102002.7      46.7237      46.7237      46.7237 
  468000    107.89205   -8822.8023   -8076.6771   -484.87896     102002.7      46.7237      46.7237      46.7237 
  469000    111.43358   -8835.7105   -8065.0939   -1051.5735     102002.7      46.7237      46.7237      46.7237 
  470000    108.90312   -8854.8322    -8101.715    -842.3522     102002.7      46.7237      46.7237      46.7237 
  471000    109.42008   -8811.2255   -8054.5333   -1075.9565     102002.7      46.7237      46.7237      46.7237 
  472000     113.3184   -8812.6498   -8028.9987   -1036.0395     102002.7      46.7237      46.7237      46.7237 
  473000    109.28386   -8805.1378   -8049.3876   -1048.2837     102002.7      46.7237      46.7237      46.7237 
  474000    111.35042   -8818.4426   -8048.4011   -946.44341     102002.7      46.7237      46.7237      46.7237 
  475000    111.64846    -8816.799   -8044.6964   -1066.8086     102002.7      46.7237      46.7237      46.7237 
  476000    108.89466   -8815.5894   -8062.5307   -867.10137     102002.7      46.7237      46.7237      46.7237 
  477000    104.66517   -8836.8532   -8113.0434   -1100.8696     102002.7      46.7237      46.7237      46.7237 
  478000    107.85766   -8813.2083   -8067.3209   -839.31571     102002.7      46.7237      46.7237      46.7237 
  479000    110.25818   -8809.3089   -8046.8207   -929.34151     102002.7      46.7237      46.7237      46.7237 
  480000    110.00986   -8809.9125   -8049.1415   -839.48637     102002.7      46.7237      46.7237      46.7237 
  481000    109.20529   -8833.1671   -8077.9602   -682.29337     102002.7      46.7237      46.7237      46.7237 
  482000    111.48179   -8832.8913   -8061.9413   -778.21892     102002.7      46.7237      46.7237      46.7237 
  483000    109.45631   -8797.6369    -8040.694   -1048.7526     102002.7      46.7237      46.7237      46.7237 
  484000    109.24421   -8838.9179   -8083.4418   -578.67634     102002.7      46.7237      46.7237      46.7237 
  485000    110.81701   -8817.6001   -8051.2473   -559.83659     102002.7      46.7237      46.7237      46.7237 
  486000     114.0065   -8820.3408   -8031.9312   -582.66738     102002.7      46.7237      46.7237      46.7237 
  487000    110.60541    -8813.952   -8049.0625   -649.41699     102002.7      46.7237      46.7237      46.7237 
  488000    107.95437   -8840.2866   -8093.7304   -987.69857     102002.7      46.7237      46.7237      46.7237 
  489000    113.67839   -8818.0269   -8031.8863   -609.63037     102002.7      46.7237      46.7237      46.7237 
  490000    113.85201    -8853.983   -8066.6418    -841.2214     102002.7      46.7237      46.7237      46.7237 
  491000    109.00572   -8841.2955   -8087.4687   -698.05249     102002.7      46.7237      46.7237      46.7237 
  492000    110.91455   -8820.9802   -8053.9529   -708.17049     102002.7      46.7237      46.7237      46.7237 
  493000    111.27019   -8818.1736   -8048.6869   -1105.9185     102002.7      46.7237      46.7237      46.7237 
  494000    110.03885   -8835.6769   -8074.7055   -989.49062     102002.7      46.7237      46.7237      46.7237 
  495000    106.87723   -8815.9845   -8076.8772   -974.81223     102002.7      46.7237      46.7237      46.7237 
  496000    107.94584    -8848.454   -8101.9567   -1078.7523     102002.7      46.7237      46.7237      46.7237 
  497000    111.46279   -8802.3374   -8031.5188   -1095.4246     102002.7      46.7237      46.7237      46.7237 
  498000    108.39625   -8815.0026   -8065.3905   -1123.7288     102002.7      46.7237      46.7237      46.7237 
  499000    110.66955   -8824.7233   -8059.3903   -784.20409     102002.7      46.7237      46.7237      46.7237 
  500000    110.98612   -8837.3653    -8069.843   -974.12003     102002.7      46.7237      46.7237      46.7237 
  500500    109.96579   -8841.6559   -8081.1898   -821.32347     102002.7      46.7237      46.7237      46.7237 
Loop time of 665 on 24 procs for 500000 steps with 2321 atoms

Performance: 64.962 ns/day, 0.369 hours/ns, 751.880 timesteps/s
98.6% CPU use with 24 MPI tasks x no OpenMP threads

MPI task timing breakdown:
Section |  min time  |  avg time  |  max time  |%varavg| %total
---------------------------------------------------------------
Pair    | 261.56     | 341.24     | 428.34     | 240.4 | 51.31
Bond    | 48.74      | 78.522     | 109.09     | 189.8 | 11.81
Neigh   | 4.5633     | 4.572      | 4.58       |   0.2 |  0.69
Comm    | 126.77     | 229.53     | 331.15     | 343.4 | 34.52
Output  | 0.37158    | 0.37195    | 0.37646    |   0.2 |  0.06
Modify  | 4.2132     | 4.5272     | 4.8047     |   7.9 |  0.68
Other   |            | 6.239      |            |       |  0.94

Nlocal:    96.7083 ave 134 max 63 min
Histogram: 3 2 1 3 4 5 1 0 3 2
Nghost:    2587.29 ave 2645 max 2535 min
Histogram: 1 2 2 6 3 3 3 1 1 2
Neighs:    7642.58 ave 9844 max 5091 min
Histogram: 3 1 2 1 3 4 1 4 1 4

Total # of neighbors = 183422
Ave neighs/atom = 79.0271
Ave special neighs/atom = 4.96338
Neighbor list builds = 4578
Dangerous builds = 0
Neighbor list info ...
  update every 1 steps, delay 10 steps, check yes
  max neighbors/atom: 2000, page size: 100000
  master list distance cutoff = 16
  ghost atom cutoff = 16
  binsize = 8, bins = 6 6 6
  3 neighbor lists, perpetual/occasional/extra = 3 0 0
  (1) pair buck6d/coul/gauss/dsf, perpetual, skip from (3)
      attributes: half, newton on
      pair build: skip
      stencil: none
      bin: none
  (2) pair lj/cut, perpetual, skip from (3)
      attributes: half, newton on
      pair build: skip
      stencil: none
      bin: none
  (3) neighbor class addition, perpetual
      attributes: half, newton on
      pair build: half/bin/newton
      stencil: half/bin/3d/newton
      bin: standard
Setting up Verlet run ...
  Unit style    : real
  Current step  : 500500
  Time step     : 1
WARNING: Inconsistent image flags (../domain.cpp:786)
Per MPI rank memory allocation (min/avg/max) = 24.14 | 24.51 | 24.61 Mbytes
Step Time TotEng KinEng PotEng E_mol E_pair Temp Pxx Pyy Pzz Pxy Pxz Pyz Cella Cellb Cellc CellAlpha CellBeta CellGamma Volume Press 
  500500       500000   -8081.1898    760.46612   -8841.6559    4287.5867   -13129.243    109.96579   -945.32655   -795.58748   -723.05639    130.97747   -68.730217    83.397403      46.7237      46.7237      46.7237           90           90           90     102002.7   -821.32347 
  501000       500500   -8051.4911    776.81384   -8828.3049    4289.1998   -13117.505    112.32972     -1503.16   -1303.1316   -1025.9361    90.651828    123.91574   -319.17634      46.7237      46.7237      46.7237           90           90           90     102002.7   -1277.4092 
  502000       501500   -8035.7648    773.06991   -8808.8347    4300.6857    -13109.52    111.78833   -792.30402   -790.15998   -933.10343    372.66121    182.54966    192.90103      46.7237      46.7237      46.7237           90           90           90     102002.7   -838.52248 
  503000       502500   -8079.4195    748.77061   -8828.1901    4275.6646   -13103.855    108.27458   -550.16952   -611.75148   -986.17044   -34.576186   -134.28233    33.953631      46.7237      46.7237      46.7237           90           90           90     102002.7   -716.03048 
  504000       503500   -8069.2204    762.56888   -8831.7893    4290.0825   -13121.872    110.26985   -583.75844   -621.52463   -861.36221    168.28248   -20.636689    133.03645      46.7237      46.7237      46.7237           90           90           90     102002.7   -688.88176 
  505000       504500    -8049.435    780.32728   -8829.7623    4294.8485   -13124.611    112.83777   -990.70441   -361.85599   -791.74664   -89.514165   -59.316666    113.51079      46.7237      46.7237      46.7237           90           90           90     102002.7   -714.76901 
  506000       505500   -8074.9824    777.82921   -8852.8116    4267.4301   -13120.242    112.47654   -930.91251   -683.80655   -933.92603   -25.510422   -172.29766   -81.665433      46.7237      46.7237      46.7237           90           90           90     102002.7   -849.54836 
  507000       506500   -8067.5488    760.61771   -8828.1666    4301.4519   -13129.618    109.98771   -1076.2706   -522.02479   -696.06724   -168.80337    247.21798   -161.20793      46.7237      46.7237      46.7237           90           90           90     102002.7   -764.78754 
  508000       507500   -8018.9715    786.61184   -8805.5833     4287.662   -13093.245    113.74654   -944.94393    -486.1461   -1109.5962   -89.661108    215.55245    87.339897      46.7237      46.7237      46.7237           90           90           90     102002.7   -846.89542 
  509000       508500   -8037.4984    769.90045   -8807.3989    4301.0017   -13108.401    111.33002   -443.86988    -754.7914    -910.9283    111.96167    74.924911    226.28252      46.7237      46.7237      46.7237           90           90           90     102002.7   -703.19653 
  510000       509500   -8075.8218    751.36449   -8827.1862    4278.2755   -13105.462    108.64966   -317.96471   -872.73548    -753.1485   0.48689687    71.105223    29.745142      46.7237      46.7237      46.7237           90           90           90     102002.7   -647.94956 
  511000       510500    -8064.723     765.9718   -8830.6948    4286.2508   -13116.946    110.76192   -767.46562   -775.52105   -860.14776    -52.50762   -118.02956   -30.044736      46.7237      46.7237      46.7237           90           90           90     102002.7   -801.04481 
  512000       511500   -8037.1383    779.15562   -8816.2939    4288.5956    -13104.89    112.66835   -1083.8118   -345.77989   -1201.8226    254.16496   -183.76311    2.5934871      46.7237      46.7237      46.7237           90           90           90     102002.7   -877.13808 
  513000       512500    -8067.084    764.34234   -8831.4263    4273.9929   -13105.419     110.5263   -817.26223   -1102.1409   -874.94654    103.87915   -132.11681    4.6228945      46.7237      46.7237      46.7237           90           90           90     102002.7    -931.4499 
  514000       513500    -8036.157    779.25698   -8815.4139    4293.9444   -13109.358      112.683    -1238.528   -1294.0353   -829.43381     151.5568    91.645394     116.2886      46.7237      46.7237      46.7237           90           90           90     102002.7   -1120.6657 
  515000       514500    -8056.839    766.47604    -8823.315    4298.1028   -13121.418    110.83484   -1186.1878   -1109.5878   -597.41145    96.184919   -24.597905   -118.27387      46.7237      46.7237      46.7237           90           90           90     102002.7   -964.39566 
  516000       515500    -8091.292    755.34317   -8846.6352      4287.75   -13134.385    109.22499   -790.13299   -720.85291   -986.33216    105.37033     31.32766   0.28912203      46.7237      46.7237      46.7237           90           90           90     102002.7   -832.43936 
  517000       516500   -8082.0196    753.56289   -8835.5825    4268.1001   -13103.683    108.96756   -977.60902   -1037.8173   -1343.6912   -47.705046   -245.38031      39.6123      46.7237      46.7237      46.7237           90           90           90     102002.7   -1119.7059 
  518000       517500   -8088.5727    757.91044   -8846.4831    4282.9161   -13129.399    109.59623   -707.13675   -557.32295    -700.3761   -41.197994    27.940559    274.54823      46.7237      46.7237      46.7237           90           90           90     102002.7   -654.94527 
  519000       518500   -8064.5544    771.87673   -8836.4312    4269.7739   -13106.205     111.6158   -1042.0972   -1108.5689   -576.34502   -55.628266    9.3045137   -43.598186      46.7237      46.7237      46.7237           90           90           90     102002.7   -909.00369 
  520000       519500   -8116.1945    744.67733   -8860.8718    4253.2935   -13114.165    107.68268   -648.37626   -955.42528   -763.48472    22.112958   -126.78156    33.942802      46.7237      46.7237      46.7237           90           90           90     102002.7   -789.09542 
  521000       520500   -8074.3573    748.18541   -8822.5427    4293.3868    -13115.93    108.18996   -1118.6289   -519.69868   -723.06233   -89.049114   -208.99774    60.868224      46.7237      46.7237      46.7237           90           90           90     102002.7   -787.12996 
  522000       521500   -8043.9485    778.41119   -8822.3597    4273.8339   -13096.194     112.5607   -1235.3321   -720.87258   -693.23988    75.606972   -47.366526   -22.853889      46.7237      46.7237      46.7237           90           90           90     102002.7   -883.14819 
  523000       522500   -8106.4775    747.92046    -8854.398    4281.9292   -13136.327    108.15164   -646.12064   -670.45776   -757.18586    -55.87695     132.5257    42.906229      46.7237      46.7237      46.7237           90           90           90     102002.7   -691.25475 
  524000       523500   -8061.8927    770.82854   -8832.7212    4297.2485    -13129.97    111.46423   -1079.8003    -1004.079   -1091.2508    13.333437   -189.92286    104.78749      46.7237      46.7237      46.7237           90           90           90     102002.7   -1058.3767 
  525000       524500   -8036.4594    778.80261   -8815.2621    4298.3883    -13113.65     112.6173    -1123.993   -640.35788   -1277.5975   -105.29604     24.32911   -310.82352      46.7237      46.7237      46.7237           90           90           90     102002.7   -1013.9828 
  526000       525500   -8049.0035    771.50848   -8820.5119    4284.9848   -13105.497    111.56255   -757.74421   -550.88122   -743.20903     5.880587    20.475851    233.92027      46.7237      46.7237      46.7237           90           90           90     102002.7   -683.94482 
  527000       526500   -8086.0173    756.28419   -8842.3015    4276.7993   -13119.101    109.36107   -943.61715   -990.00312   -1023.5921    291.68352    5.9784353   -224.45226      46.7237      46.7237      46.7237           90           90           90     102002.7   -985.73747 
  528000       527500   -8067.4538    764.88478   -8832.3386    4286.7026   -13119.041    110.60474   -654.56758   -866.10043   -63.145585    -27.23523    38.989867    56.273064      46.7237      46.7237      46.7237           90           90           90     102002.7   -527.93787 
  529000       528500   -8034.7599    769.69653   -8804.4564     4290.258   -13094.714    111.30053    -724.7866   -908.31015   -947.82453     177.4365   -233.65921    -66.91704      46.7237      46.7237      46.7237           90           90           90     102002.7   -860.30709 
  530000       529500   -8070.3646    749.02475   -8819.3893    4283.4205    -13102.81    108.31133   -690.01835   -1052.4561   -1260.5004    148.15993   -80.642348   -256.85243      46.7237      46.7237      46.7237           90           90           90     102002.7   -1000.9916 
  531000       530500   -8072.6759     755.4706   -8828.1465    4279.1559   -13107.302    109.24342     -775.738   -498.82585   -329.16381    4.6077972   -119.23654    70.500349      46.7237      46.7237      46.7237           90           90           90     102002.7   -534.57589 
  532000       531500   -8065.2973    772.13494   -8837.4323    4264.7977    -13102.23    111.65313    -998.8049   -590.02116   -979.30147   -166.20225   -202.74087    18.337318      46.7237      46.7237      46.7237           90           90           90     102002.7   -856.04251 
  533000       532500    -8081.595    737.34845   -8818.9435    4297.2871   -13116.231     106.6229   -166.23923   -969.23814   -391.00894   -206.00374   -24.793442    249.64725      46.7237      46.7237      46.7237           90           90           90     102002.7   -508.82877 
  534000       533500   -8053.0463    776.61033   -8829.6566    4279.3052   -13108.962    112.30029   -683.09693   -785.53559   -807.90333    19.155315   -1.0008546    7.0050456      46.7237      46.7237      46.7237           90           90           90     102002.7   -758.84528 
  535000       534500   -8009.4921    793.93089    -8803.423    4295.9634   -13099.386     114.8049   -690.03212   -733.96869   -1313.1131   0.39834283   -13.358884     45.08191      46.7237      46.7237      46.7237           90           90           90     102002.7   -912.37129 
  536000       535500   -8072.0882    751.29316   -8823.3814    4286.7031   -13110.085    108.63935    -262.3585   -537.04216   -531.54375    -7.751265    18.352022    348.95391      46.7237      46.7237      46.7237           90           90           90     102002.7   -443.64813 
  537000       536500   -8042.0644    773.16812   -8815.2326    4300.6703   -13115.903    111.80253   -789.21076   -535.96736    -623.0533    138.51423   -51.819508   -98.702697      46.7237      46.7237      46.7237           90           90           90     102002.7   -649.41047 
  538000       537500   -8068.7396     748.5857   -8817.3253    4281.5086   -13098.834    108.24784   -742.09634   -1012.5778   -566.74408    110.71829    56.433238    158.91335      46.7237      46.7237      46.7237           90           90           90     102002.7   -773.80608 
  539000       538500   -8063.9765     771.8455    -8835.822    4279.9084    -13115.73    111.61128   -255.71498   -1274.2597   -715.45323    93.269624    -165.8082   -73.845552      46.7237      46.7237      46.7237           90           90           90     102002.7   -748.47598 
  540000       539500   -8029.8371    776.24495    -8806.082    4302.1773   -13108.259    112.24745   -1233.0823   -1142.6035   -1211.3063     3.786506   -173.66358   -19.345065      46.7237      46.7237      46.7237           90           90           90     102002.7    -1195.664 
  541000       540500   -8072.8012    758.03743   -8830.8387    4301.6131   -13132.452    109.61459   -1177.4495   -726.93837   -622.11005    137.02054   -42.667306   -112.70393      46.7237      46.7237      46.7237           90           90           90     102002.7   -842.16597 
  542000       541500   -8063.6919    771.52263   -8835.2146    4276.0416   -13111.256    111.56459   -863.42771   -1268.7369   -885.73292   -44.409973    125.73247   -65.065053      46.7237      46.7237      46.7237           90           90           90     102002.7   -1005.9658 
  543000       542500   -8049.2951    774.27615   -8823.5712    4289.0856   -13112.657    111.96276   -742.84761   -606.98946    -842.6673   -289.81961    173.57899  -0.58744019      46.7237      46.7237      46.7237           90           90           90     102002.7   -730.83479 
  544000       543500   -8054.1798    754.43077   -8808.6106    4292.3365   -13100.947    109.09306   -455.41035   -943.81281   -664.06171    85.858628    113.44208   -268.71262      46.7237      46.7237      46.7237           90           90           90     102002.7   -687.76162 
  545000       544500   -8077.0946    769.99094   -8847.0856    4266.9702   -13114.056    111.34311   -891.61671   -853.83038   -923.76836    7.7019724   -144.78426    2.7885688      46.7237      46.7237      46.7237           90           90           90     102002.7   -889.73848 
  546000       545500   -8068.0005    762.14145    -8830.142    4264.7081    -13094.85    110.20804   -717.82884   -700.18535    -481.8922   -170.69125    149.02397    183.27676      46.7237      46.7237      46.7237           90           90           90     102002.7   -633.30213 
  547000       546500   -8082.0199    732.77739   -8814.7972     4291.997   -13106.794    105.96191   -863.35229   -1107.4982   -912.28608   -307.65099    167.69224   -166.10571      46.7237      46.7237      46.7237           90           90           90     102002.7   -961.04551 
  548000       547500   -8093.0933    749.00959   -8842.1029    4278.3312   -13120.434    108.30914   -744.87977   -403.14672   -530.24488    90.484542    13.337608    13.179163      46.7237      46.7237      46.7237           90           90           90     102002.7   -559.42379 
  549000       548500    -8056.964    768.78367   -8825.7477    4288.0437   -13113.791    111.16853   -54.156567   -361.67099   -637.93777    65.522136     265.4161   -125.42665      46.7237      46.7237      46.7237           90           90           90     102002.7   -351.25511 
  550000       549500   -8037.2486      772.084   -8809.3326    4285.2916   -13094.624    111.64577   -1151.3453   -807.91679   -1003.5436    153.71405    -182.1374    8.8048907      46.7237      46.7237      46.7237           90           90           90     102002.7    -987.6019 
  551000       550500   -8099.2951    752.05625   -8851.3514    4281.6181    -13132.97    108.74969   -776.93602   -344.42987   -317.41611    34.835386   -126.69106   -55.173871      46.7237      46.7237      46.7237           90           90           90     102002.7     -479.594 
  552000       551500   -8073.6509    770.71853   -8844.3694    4284.7018   -13129.071    111.44832   -959.32962   -887.69061    -850.1298    189.09734    328.31226   -189.07709      46.7237      46.7237      46.7237           90           90           90     102002.7   -899.05001 
  553000       552500   -8067.0735    770.29234   -8837.3658    4265.6498   -13103.016    111.38669   -1013.9908    -993.1372   -638.07187    158.04624    -1.564003   -87.880664      46.7237      46.7237      46.7237           90           90           90     102002.7   -881.73327 
  554000       553500    -8075.726    770.76386   -8846.4899    4289.5642   -13136.054    111.45487   -619.20604   -578.85412   -1263.2623    258.89219   -151.70693    272.82375      46.7237      46.7237      46.7237           90           90           90     102002.7   -820.44083 
  555000       554500   -8091.9433    737.33679   -8829.2801    4280.0132   -13109.293    106.62121   -1104.0792   -835.77787   -1016.7673   -25.798411    32.502551   -159.14984      46.7237      46.7237      46.7237           90           90           90     102002.7   -985.54145 
[...]
  936000       935500   -8079.8876    756.52388   -8836.4115    4279.3498   -13115.761    109.39573   -860.18537   -599.85567    -854.0661   -366.81984   -300.19312    -63.45595      46.7237      46.7237      46.7237           90           90           90     102002.7   -771.36905 
  937000       936500   -8063.1377    764.86353   -8828.0012    4277.0402   -13105.041    110.60167   -723.85208   -1114.1315    -858.8625    176.05938    94.755944   -58.844995      46.7237      46.7237      46.7237           90           90           90     102002.7   -898.94869 
  938000       937500   -8054.1426    764.39497   -8818.5376    4298.5706   -13117.108    110.53391   -530.92513   -1139.9214   -1183.6768   -40.072287   -174.74834   -321.02204      46.7237      46.7237      46.7237           90           90           90     102002.7   -951.50778 
  939000       938500   -8082.5413    731.86206   -8814.4034     4291.108   -13105.511    105.82955   -154.93467   -582.81569   -840.51501    127.26064   -124.92456   -102.47072      46.7237      46.7237      46.7237           90           90           90     102002.7   -526.08846 
  940000       939500   -8107.9704    758.16989   -8866.1403    4274.1931   -13140.333    109.63374     -1040.11   -884.10781   -681.49749    90.831898   -250.84566   -25.947877      46.7237      46.7237      46.7237           90           90           90     102002.7   -868.57175 
  941000       940500   -8084.3591    743.80637   -8828.1654    4287.7486   -13115.914    107.55673   -1121.2367   -955.90941   -1092.9844   -87.990042     100.0874   -82.579398      46.7237      46.7237      46.7237           90           90           90     102002.7   -1056.7102 
  942000       941500   -8081.7162    732.96106   -8814.6773    4305.1494   -13119.827    105.98847   -928.86086      -685.54   -1027.6602     133.6379   -12.188846   -80.795173      46.7237      46.7237      46.7237           90           90           90     102002.7   -880.68701 
  943000       942500    -8064.883    770.56979   -8835.4528    4281.5721   -13117.025    111.42681   -876.78743   -1170.2295   -641.26756    102.31351    198.46207   -119.48367      46.7237      46.7237      46.7237           90           90           90     102002.7   -896.09484 
  944000       943500   -8091.1736    764.90724   -8856.0808    4260.8784   -13116.959    110.60799   -1282.5723   -64.432867   -608.11956    91.698466    140.37629    -34.97104      46.7237      46.7237      46.7237           90           90           90     102002.7   -651.70825 
  945000       944500   -8072.1396    757.85931   -8829.9989    4305.8812    -13135.88    109.58883   -1009.2229   -940.87378   -815.94653   -31.796936   -6.0166956  -0.11358409      46.7237      46.7237      46.7237           90           90           90     102002.7   -922.01439 
  946000       945500   -8058.3377    758.14204   -8816.4797    4289.2778   -13105.758    109.62972   -1292.3426   -985.82882   -633.63583   -118.67828   -256.89291   -52.673868      46.7237      46.7237      46.7237           90           90           90     102002.7   -970.60242 
  947000       946500     -8076.96    759.44702    -8836.407    4300.0383   -13136.445    109.81842   -1402.0227   -691.60737   -866.46304    101.29152    42.818903   -5.1719385      46.7237      46.7237      46.7237           90           90           90     102002.7    -986.6977 
  948000       947500   -8063.0942    751.86021   -8814.9544    4283.0175   -13097.972    108.72134   -1016.8518   -1177.4778   -966.29273   -74.012625    350.01762   -173.37854      46.7237      46.7237      46.7237           90           90           90     102002.7   -1053.5408 
  949000       948500   -8079.6322    757.84814   -8837.4804    4268.2536   -13105.734    109.58722   -1229.5526   -1000.8568   -871.90616    11.302166   -119.93553    172.64422      46.7237      46.7237      46.7237           90           90           90     102002.7   -1034.1052 
  950000       949500   -8073.4575    757.27898   -8830.7365    4285.6723   -13116.409    109.50492   -761.96436   -698.78555   -1161.4744   -176.74503   -83.554204    138.35258      46.7237      46.7237      46.7237           90           90           90     102002.7   -874.07476 
  951000       950500   -8046.6424    775.51854   -8822.1609    4281.2662   -13103.427    112.14241   -914.65833   -684.09542   -862.46888    -168.5485     179.1204    117.96857      46.7237      46.7237      46.7237           90           90           90     102002.7   -820.40754 
  952000       951500   -8101.5463    742.77748   -8844.3238    4259.6575   -13103.981    107.40795    -451.8948   -703.96035   -555.60094   -13.345755    -125.5585   -204.58494      46.7237      46.7237      46.7237           90           90           90     102002.7   -570.48536 
  953000       952500    -8073.639    770.06533   -8843.7043    4278.3375   -13122.042    111.35386    -697.7529   -646.10888   -1078.9357    31.210565    112.85591    11.062442      46.7237      46.7237      46.7237           90           90           90     102002.7   -807.59917 
  954000       953500   -8059.3547    768.73065   -8828.0854    4294.1005   -13122.186    111.16086   -669.09678   -641.51206   -947.57451   -142.53318   -315.57624    43.842226      46.7237      46.7237      46.7237           90           90           90     102002.7   -752.72778 
  955000       954500   -8109.0052    746.23136   -8855.2365    4282.3465   -13137.583    107.90739   -568.10914   -1176.0112    -1000.403    179.28129    -81.91951    205.03609      46.7237      46.7237      46.7237           90           90           90     102002.7   -914.84111 
  956000       955500   -8078.3174    759.41616   -8837.7335    4277.6051   -13115.339    109.81396   -698.68788   -968.53777   -905.91914   -85.430224    60.154153    -32.34059      46.7237      46.7237      46.7237           90           90           90     102002.7   -857.71493 
  957000       956500   -8081.4975    752.59535   -8834.0929    4286.4301   -13120.523    108.82765   -647.68618   -930.55165   -598.06834    262.94909   -8.2430573   -97.038399      46.7237      46.7237      46.7237           90           90           90     102002.7   -725.43539 
  958000       957500    -8057.345    763.21602    -8820.561    4298.6543   -13119.215    110.36343   -943.50629   -747.01651   -680.08258   -129.76344    -61.34682   -349.77049      46.7237      46.7237      46.7237           90           90           90     102002.7   -790.20179 
  959000       958500   -8038.7742    780.21673   -8818.9909    4300.8668   -13119.858    112.82179   -623.23558   -260.03652   -826.72848    15.008415    149.24582    165.90044      46.7237      46.7237      46.7237           90           90           90     102002.7   -570.00019 
  960000       959500   -8061.7097    759.66652   -8821.3763    4291.5776   -13112.954    109.85016   -231.96506   -922.85532   -626.48469    58.788653   -341.30193   -2.0094676      46.7237      46.7237      46.7237           90           90           90     102002.7   -593.76835 
  961000       960500   -8063.7954    737.89004   -8801.6854    4296.8174   -13098.503    106.70121   -1360.3364   -835.79347   -381.87364    179.78773   -424.29078    61.878096      46.7237      46.7237      46.7237           90           90           90     102002.7   -859.33451 
  962000       961500   -8034.5059    791.35808    -8825.864     4305.093   -13130.957    114.43286   -886.53793    -839.8872   -789.86953   -33.530623   -195.87323   -73.173055      46.7237      46.7237      46.7237           90           90           90     102002.7   -838.76489 
  963000       962500    -8046.104    763.44049   -8809.5445    4308.3952    -13117.94    110.39589    -247.8351   -908.28704   -915.79001   -204.00341   -110.12574   -112.56614      46.7237      46.7237      46.7237           90           90           90     102002.7   -690.63738 
  964000       963500   -8097.4364    759.01611   -8856.4525    4296.8937   -13153.346    109.75611   -740.86042   -891.59906   -1316.6446    72.270186   -234.37309    171.42357      46.7237      46.7237      46.7237           90           90           90     102002.7    -983.0347 
  965000       964500   -8076.9115    758.86001   -8835.7715    4294.6416   -13130.413    109.73354   -1089.4179   -887.21137   -714.83186    90.024838    301.85481    46.535488      46.7237      46.7237      46.7237           90           90           90     102002.7   -897.15369 
  966000       965500    -8039.959    780.56755   -8820.5265    4283.5271   -13104.054    112.87252    -1189.206   -245.62443   -732.32286   -283.76731    -224.6022    34.075016      46.7237      46.7237      46.7237           90           90           90     102002.7   -722.38442 
  967000       966500   -8102.1756     734.9262   -8837.1018     4293.176   -13130.278    106.27263   -669.85481   -468.34484   -623.63061   -31.270697     255.8158    146.87856      46.7237      46.7237      46.7237           90           90           90     102002.7   -587.27675 
  968000       967500   -8079.0067    748.47122   -8827.4779    4287.8583   -13115.336    108.23129   -1100.3733   -777.28306   -747.43153   -14.921852    265.98613   -264.49839      46.7237      46.7237      46.7237           90           90           90     102002.7   -875.02928 
  969000       968500   -8068.0627    770.03961   -8838.1023    4268.0664   -13106.169    111.35014   -1116.2932   -839.55753   -756.28873    53.845653   -77.521345   -31.132466      46.7237      46.7237      46.7237           90           90           90     102002.7   -904.04648 
  970000       969500   -8078.8616     752.2317   -8831.0933    4285.9246   -13117.018    108.77506   -1035.9385    -1145.644    -977.1971    33.075277   -38.733621     83.78318      46.7237      46.7237      46.7237           90           90           90     102002.7   -1052.9265 
  971000       970500   -8101.4735    763.92024   -8865.3937    4266.4062     -13131.8    110.46526   -814.24803   -806.65318   -862.33389    85.059599    3.6357785    12.564422      46.7237      46.7237      46.7237           90           90           90     102002.7   -827.74503 
  972000       971500   -8072.3726     762.8371   -8835.2097    4287.7129   -13122.923    110.30864   -1124.0703    -771.2674   -699.75216    147.30684   -92.858293     139.8991      46.7237      46.7237      46.7237           90           90           90     102002.7   -865.02997 
  973000       972500   -8080.5146    752.46694   -8832.9815     4293.355   -13126.336    108.80908    -705.5898   -709.46636   -715.12171    -59.81196     155.4423   -39.350821      46.7237      46.7237      46.7237           90           90           90     102002.7   -710.05929 
  974000       973500   -8042.0608    767.47554   -8809.5364    4320.0628   -13129.599    110.97937    -1054.482   -979.72002   -568.79782    69.723935    299.60223   -70.063476      46.7237      46.7237      46.7237           90           90           90     102002.7   -867.66662 
  975000       974500   -8062.7802    760.75065   -8823.5309    4285.9751   -13109.506    110.00693   -886.01481   -739.90152   -896.53197   -84.175332    186.33002   -33.028671      46.7237      46.7237      46.7237           90           90           90     102002.7    -840.8161 
  976000       975500    -8055.514    763.60321   -8819.1172    4283.0199   -13102.137    110.41942   -772.18758   -911.64472    -919.7231    228.59608    164.37186    40.746517      46.7237      46.7237      46.7237           90           90           90     102002.7    -867.8518 
  977000       976500   -8072.3189     767.0672   -8839.3861    4287.0391   -13126.425    110.92032     -757.591   -834.68653    -893.4304   -227.74059   -389.05213   -84.635924      46.7237      46.7237      46.7237           90           90           90     102002.7   -828.56931 
  978000       977500   -8096.2887      770.594   -8866.8827    4256.8664   -13123.749    111.43031   -350.68422   -643.28351   -971.09792   -236.91416   -70.439064   -197.08867      46.7237      46.7237      46.7237           90           90           90     102002.7   -655.02188 
  979000       978500   -8066.8748    769.90692   -8836.7818    4292.3832   -13129.165    111.33096   -769.56551   -506.28828    -269.6505   0.87325097    336.30037    9.6668324      46.7237      46.7237      46.7237           90           90           90     102002.7    -515.1681 
  980000       979500   -8082.0499    766.09814    -8848.148    4265.2433   -13113.391    110.78019   -816.05062   -929.85166   -754.45266    51.741773   -144.79138   -169.20028      46.7237      46.7237      46.7237           90           90           90     102002.7   -833.45165 
  981000       980500   -8089.6106     753.0273   -8842.6379    4287.5364   -13130.174    108.89011   -867.70799   -1040.2457    -975.7573    117.02364   -64.464244   -104.33388      46.7237      46.7237      46.7237           90           90           90     102002.7   -961.23698 
  982000       981500   -8052.6615    745.71204   -8798.3735    4321.3911   -13119.765     107.8323    -871.3576   -624.98712   -872.89887   -52.382813   0.44280412    -77.51415      46.7237      46.7237      46.7237           90           90           90     102002.7   -789.74786 
  983000       982500   -8089.0107    754.40648   -8843.4172    4290.8626    -13134.28    109.08954   -640.68147   -1076.7395   -1040.6348   -335.49347   -63.661502   -115.68301      46.7237      46.7237      46.7237           90           90           90     102002.7   -919.35192 
  984000       983500   -8074.9501    771.92686    -8846.877    4274.1397   -13121.017    111.62304    -475.8169   -756.47527   -1059.3818   -72.683266   -74.836355   -88.890093      46.7237      46.7237      46.7237           90           90           90     102002.7   -763.89132 
  985000       984500   -8049.9881    767.54709   -8817.5352     4300.561   -13118.096    110.98972   -357.30412    -926.6485   -567.75145   -75.687295   -52.044045    54.417327      46.7237      46.7237      46.7237           90           90           90     102002.7   -617.23469 
  986000       985500   -8065.6005    759.55836   -8825.1589    4294.2821   -13119.441    109.83452   -946.35579   -843.76427   -910.47411    90.001484   -213.16368    250.43391      46.7237      46.7237      46.7237           90           90           90     102002.7   -900.19806 
  987000       986500   -8078.1649    758.98561   -8837.1505     4291.473   -13128.624     109.7517   -416.78271   -626.85132   -551.65474   -51.091824    80.818897    60.257462      46.7237      46.7237      46.7237           90           90           90     102002.7   -531.76292 
  988000       987500   -8064.5544     766.3964   -8830.9508    4291.2574   -13122.208    110.82332   -1273.3184   -848.26477     -510.776   -303.35685    76.920383   -65.614359      46.7237      46.7237      46.7237           90           90           90     102002.7   -877.45306 
  989000       988500   -8061.3673     760.2455   -8821.6128     4290.546   -13112.159    109.93388   -1062.2824   -809.48023   -589.77793    72.386166   -13.787703    184.04835      46.7237      46.7237      46.7237           90           90           90     102002.7   -820.51352 
  990000       989500   -8085.9185    759.80962   -8845.7281    4276.7835   -13122.512    109.87085   -361.41735   -859.72907   -879.75179   -78.108856   -23.299175   -5.7988275      46.7237      46.7237      46.7237           90           90           90     102002.7    -700.2994 
  991000       990500   -8066.1195     750.6313   -8816.7508    4288.3489     -13105.1    108.54364   -778.56914   -758.05365   -866.24391    72.924873    50.106343    56.980943      46.7237      46.7237      46.7237           90           90           90     102002.7   -800.95556 
  992000       991500   -8066.2402    776.65582    -8842.896    4288.1863   -13131.082    112.30687    -771.8679   -578.24855   -537.44286    7.1795315    127.57719   -3.3989641      46.7237      46.7237      46.7237           90           90           90     102002.7   -629.18643 
  993000       992500   -8071.4394    766.92294   -8838.3624    4290.3363   -13128.699    110.89946   -648.06628   -546.14211   -739.56511   -76.956858    130.44167   -46.296005      46.7237      46.7237      46.7237           90           90           90     102002.7   -644.59117 
  994000       993500   -8105.6963     718.5987    -8824.295    4301.1234   -13125.418    103.91163   -700.34664   -651.47509   -1202.4527    215.08942    309.01555    301.14726      46.7237      46.7237      46.7237           90           90           90     102002.7   -851.42481 
  995000       994500   -8058.9687    750.10226    -8809.071    4292.2712   -13101.342    108.46714   -1095.1227   -1174.0254   -524.87527    91.120125    133.10308    303.14623      46.7237      46.7237      46.7237           90           90           90     102002.7   -931.34111 
  996000       995500   -8086.4761    743.94262   -8830.4188     4280.266   -13110.685    107.57644   -991.04076   -818.39801   -1011.2129    90.382135    147.21695    96.651498      46.7237      46.7237      46.7237           90           90           90     102002.7   -940.21723 
  997000       996500   -8090.9961    754.16299   -8845.1591    4293.5335   -13138.693    109.05433    -665.3854   -701.96058   -835.22344   0.42772936    60.101748    91.587112      46.7237      46.7237      46.7237           90           90           90     102002.7   -734.18981 
  998000       997500   -8013.2861    787.96739   -8801.2535    4296.3278   -13097.581    113.94256   -1249.7608   -1000.2327   -538.32899    151.55727    257.11246   -137.65214      46.7237      46.7237      46.7237           90           90           90     102002.7   -929.44083 
  999000       998500   -8076.4964    748.00695   -8824.5034    4275.0075   -13099.511    108.16415   -889.94073   -580.58327   -638.83202    164.06347    91.812628    107.26337      46.7237      46.7237      46.7237           90           90           90     102002.7   -703.11867 
 1000000       999500   -8057.3383    751.01777   -8808.3561    4290.3231   -13098.679    108.59952   -888.74931   -295.82113   -840.62247   -149.26774   -215.85993    80.889681      46.7237      46.7237      46.7237           90           90           90     102002.7    -675.0643 
 1000500      1000000   -8013.0161    780.20194   -8793.2181    4286.6249   -13079.843    112.81965    -762.0047     -623.861   -654.95269    130.36561    57.109131   -183.87432      46.7237      46.7237      46.7237           90           90           90     102002.7    -680.2728 
Loop time of 750.556 on 24 procs for 500000 steps with 2321 atoms

Performance: 57.557 ns/day, 0.417 hours/ns, 666.173 timesteps/s
98.9% CPU use with 24 MPI tasks x no OpenMP threads

MPI task timing breakdown:
Section |  min time  |  avg time  |  max time  |%varavg| %total
---------------------------------------------------------------
Pair    | 265.97     | 395.43     | 478.89     | 265.0 | 52.68
Bond    | 37.567     | 82.364     | 136.68     | 318.0 | 10.97
Neigh   | 4.7352     | 4.7408     | 4.7467     |   0.2 |  0.63
Comm    | 124.7      | 248.17     | 419.56     | 485.6 | 33.06
Output  | 0.45657    | 0.50439    | 0.50659    |   1.4 |  0.07
Modify  | 12.407     | 13.193     | 13.808     |  10.6 |  1.76
Other   |            | 6.158      |            |       |  0.82

Nlocal:    96.7083 ave 144 max 55 min
Histogram: 2 3 2 3 4 3 1 4 0 2
Nghost:    2602.75 ave 2659 max 2548 min
Histogram: 2 3 2 2 3 3 2 4 0 3
Neighs:    7637.33 ave 10941 max 2805 min
Histogram: 2 0 2 2 4 1 3 3 3 4

Total # of neighbors = 183296
Ave neighs/atom = 78.9729
Ave special neighs/atom = 4.96338
Neighbor list builds = 4562
Dangerous builds = 0
Total wall time: 0:23:37
