LAMMPS (30 Mar 2018)
Reading data file ...
  orthogonal box = (0 0 0) to (46.7237 46.7237 46.7237)
  2 by 2 by 4 MPI processor grid
  reading atoms ...
  2958 atoms
  scanning bonds ...
  5 = max bonds/atom
  scanning angles ...
  10 = max angles/atom
  scanning dihedrals ...
  32 = max dihedrals/atom
  scanning impropers ...
  3 = max impropers/atom
  reading bonds ...
  2064 bonds
  reading angles ...
  3696 angles
  reading dihedrals ...
  6240 dihedrals
  reading impropers ...
  1008 impropers
Finding 1-2 1-3 1-4 neighbors ...
  special bond factors lj:   0          0          0         
  special bond factors coul: 0          0          0         
  5 = max # of 1-2 neighbors
  8 = max # of 1-3 neighbors
  20 = max # of 1-4 neighbors
  19 = max # of special neighbors
Finding 1-2 1-3 1-4 neighbors ...
  special bond factors lj:   0          0          1         
  special bond factors coul: 1          1          1         
  5 = max # of 1-2 neighbors
  8 = max # of 1-3 neighbors
  19 = max # of special neighbors
WARNING: Using 'neigh_modify every 1 delay 0 check yes' setting during minimization (../min.cpp:168)
Neighbor list info ...
  update every 1 steps, delay 0 steps, check yes
  max neighbors/atom: 2000, page size: 100000
  master list distance cutoff = 16
  ghost atom cutoff = 16
  binsize = 8, bins = 6 6 6
  3 neighbor lists, perpetual/occasional/extra = 3 0 0
  (1) pair buck6d/coul/gauss/dsf, perpetual, skip from (3)
      attributes: half, newton on
      pair build: skip
      stencil: none
      bin: none
  (2) pair lj/cut, perpetual, skip from (3)
      attributes: half, newton on
      pair build: skip
      stencil: none
      bin: none
  (3) neighbor class addition, perpetual
      attributes: half, newton on
      pair build: half/bin/newton
      stencil: half/bin/3d/newton
      bin: standard
Setting up cg style minimization ...
  Unit style    : real
  Current step  : 0
WARNING: Inconsistent image flags (../domain.cpp:786)
Per MPI rank memory allocation (min/avg/max) = 22.99 | 23.45 | 23.89 Mbytes
Step Temp E_pair E_mol TotEng Press 
       0            0   -14544.342    6482.8914   -8061.4503    5711.4507 
     500            0   -15024.087    3727.8368    -11296.25   -1651.5764 
Loop time of 4.22793 on 16 procs for 500 steps with 2958 atoms

99.9% CPU use with 16 MPI tasks x no OpenMP threads

Minimization stats:
  Stopping criterion = max force evaluations
  Energy initial, next-to-last, final = 
        -8061.45031055     -11295.9536692     -11296.2499715
  Force two-norm initial, final = 2575.63 24.8575
  Force max component initial, final = 152.304 3.309
  Final line search alpha, max atom move = 0.00347485 0.0114983
  Iterations, force evaluations = 500 1000

MPI task timing breakdown:
Section |  min time  |  avg time  |  max time  |%varavg| %total
---------------------------------------------------------------
Pair    | 2.1473     | 2.6831     | 3.1822     |  22.1 | 63.46
Bond    | 0.30059    | 0.36079    | 0.4208     |   6.1 |  8.53
Neigh   | 0.044273   | 0.044372   | 0.044457   |   0.0 |  1.05
Comm    | 0.55558    | 1.0944     | 1.6668     |  36.8 | 25.89
Output  | 0          | 0          | 0          |   0.0 |  0.00
Modify  | 0          | 0          | 0          |   0.0 |  0.00
Other   |            | 0.04531    |            |       |  1.07

Nlocal:    184.875 ave 218 max 163 min
Histogram: 2 3 2 3 1 1 1 1 0 2
Nghost:    3701.62 ave 3744 max 3640 min
Histogram: 2 0 1 2 0 2 1 4 2 2
Neighs:    11462.8 ave 16504 max 6261 min
Histogram: 1 3 1 1 1 2 3 1 2 1

Total # of neighbors = 183404
Ave neighs/atom = 62.0027
Ave special neighs/atom = 3.89452
Neighbor list builds = 14
Dangerous builds = 0
Neighbor list info ...
  update every 1 steps, delay 10 steps, check yes
  max neighbors/atom: 2000, page size: 100000
  master list distance cutoff = 16
  ghost atom cutoff = 16
  binsize = 8, bins = 6 6 6
  3 neighbor lists, perpetual/occasional/extra = 3 0 0
  (1) pair buck6d/coul/gauss/dsf, perpetual, skip from (3)
      attributes: half, newton on
      pair build: skip
      stencil: none
      bin: none
  (2) pair lj/cut, perpetual, skip from (3)
      attributes: half, newton on
      pair build: skip
      stencil: none
      bin: none
  (3) neighbor class addition, perpetual
      attributes: half, newton on
      pair build: half/bin/newton
      stencil: half/bin/3d/newton
      bin: standard
Setting up Verlet run ...
  Unit style    : real
  Current step  : 500
  Time step     : 1
WARNING: Inconsistent image flags (../domain.cpp:786)
Per MPI rank memory allocation (min/avg/max) = 22.64 | 22.73 | 22.96 Mbytes
Step Temp PotEng TotEng Press Volume Lx Ly Lz 
     500          130    -11296.25   -10150.397   -1138.0649     102002.7      46.7237      46.7237      46.7237 
    1000    112.55809   -10366.662   -9374.5462   -635.79843     102002.7      46.7237      46.7237      46.7237 
    2000     132.1256   -10177.816   -9013.2274   -694.23789     102002.7      46.7237      46.7237      46.7237 
    3000    129.67426    -10173.45   -9030.4682   -525.67148     102002.7      46.7237      46.7237      46.7237 
    4000    130.23709   -10189.174    -9041.231   -889.79359     102002.7      46.7237      46.7237      46.7237 
    5000    127.18221   -10141.131   -9020.1145   -1010.6195     102002.7      46.7237      46.7237      46.7237 
    6000    130.19243   -10177.647   -9030.0974   -804.64492     102002.7      46.7237      46.7237      46.7237 
    7000    129.63034   -10146.612   -9004.0173   -774.99741     102002.7      46.7237      46.7237      46.7237 
    8000    132.23691   -10135.871   -8970.3006   -871.28683     102002.7      46.7237      46.7237      46.7237 
    9000    129.66803   -10174.165   -9031.2376   -483.68293     102002.7      46.7237      46.7237      46.7237 
   10000    129.03925   -10181.048   -9043.6635   -1102.6418     102002.7      46.7237      46.7237      46.7237 
   11000    129.30779   -10155.828    -9016.076   -892.79989     102002.7      46.7237      46.7237      46.7237 
   12000    132.26322   -10119.631   -8953.8289    -493.1903     102002.7      46.7237      46.7237      46.7237 
   13000    130.35603    -10133.99    -8984.999   -1066.8198     102002.7      46.7237      46.7237      46.7237 
   14000    135.51133   -10157.526   -8963.0947   -783.95398     102002.7      46.7237      46.7237      46.7237 
   15000    132.30878   -10158.485   -8992.2812   -877.27638     102002.7      46.7237      46.7237      46.7237 
   16000    127.25432   -10150.133   -9028.4809   -1190.2912     102002.7      46.7237      46.7237      46.7237 
   17000    134.07036   -10154.667   -8972.9363   -1107.2999     102002.7      46.7237      46.7237      46.7237 
   18000      129.377   -10128.248   -8987.8865    -1011.758     102002.7      46.7237      46.7237      46.7237 
   19000      127.699   -10174.084   -9048.5126   -658.80593     102002.7      46.7237      46.7237      46.7237 
   20000    130.30646   -10149.254      -9000.7   -807.63031     102002.7      46.7237      46.7237      46.7237 
   21000    130.81166   -10153.948   -9000.9405   -934.54822     102002.7      46.7237      46.7237      46.7237 
   22000    130.09633   -10150.567   -9003.8646   -681.15362     102002.7      46.7237      46.7237      46.7237 
   23000    132.03287   -10182.554   -9018.7831   -580.21938     102002.7      46.7237      46.7237      46.7237 
   24000    134.54367   -10166.889    -8980.987   -1023.1188     102002.7      46.7237      46.7237      46.7237 
   25000    129.74705    -10132.54   -8988.9161   -479.07709     102002.7      46.7237      46.7237      46.7237 
   26000    128.84679   -10155.309   -9019.6201   -651.45313     102002.7      46.7237      46.7237      46.7237 
   27000    134.32772   -10166.165   -8982.1662   -641.07517     102002.7      46.7237      46.7237      46.7237 
   28000    126.30231   -10172.717    -9059.456   -890.64294     102002.7      46.7237      46.7237      46.7237 
   29000    129.28237   -10184.322   -9044.7938   -909.72747     102002.7      46.7237      46.7237      46.7237 
   30000    125.16295   -10119.624   -9016.4058   -758.23737     102002.7      46.7237      46.7237      46.7237 
   31000    128.81818   -10186.476     -9051.04   -695.82375     102002.7      46.7237      46.7237      46.7237 
   32000    129.57894   -10146.184    -9004.042   -788.46846     102002.7      46.7237      46.7237      46.7237 
   33000     128.1142   -10163.072   -9033.8412   -907.04061     102002.7      46.7237      46.7237      46.7237 
   34000     131.1637   -10134.984   -8978.8733   -963.77735     102002.7      46.7237      46.7237      46.7237 
   35000      131.304   -10171.217   -9013.8698   -880.95894     102002.7      46.7237      46.7237      46.7237 
   36000    129.25246   -10179.298   -9040.0336   -913.15852     102002.7      46.7237      46.7237      46.7237 
   37000    132.12369   -10180.547   -9015.9753   -853.54438     102002.7      46.7237      46.7237      46.7237 
   38000    132.14641   -10141.814   -8977.0417   -507.93011     102002.7      46.7237      46.7237      46.7237 
   39000    133.71636   -10177.634   -8999.0243   -646.41262     102002.7      46.7237      46.7237      46.7237 
   40000    130.03569   -10180.536   -9034.3685   -592.65453     102002.7      46.7237      46.7237      46.7237 
   41000    130.52107    -10144.24   -8993.7941   -914.99965     102002.7      46.7237      46.7237      46.7237 
   42000    131.81004   -10157.691    -8995.884   -1110.2596     102002.7      46.7237      46.7237      46.7237 
   43000     128.3699   -10134.554   -9003.0684   -863.92206     102002.7      46.7237      46.7237      46.7237 
   44000    127.94378   -10192.039   -9064.3094   -938.11251     102002.7      46.7237      46.7237      46.7237 
   45000    131.36447   -10157.386   -8999.5064   -778.02341     102002.7      46.7237      46.7237      46.7237 
   46000    131.72147   -10157.822   -8996.7953   -1169.8353     102002.7      46.7237      46.7237      46.7237 
   47000    130.14561   -10149.854   -9002.7173   -942.92838     102002.7      46.7237      46.7237      46.7237 
   48000    129.91972   -10135.224   -8990.0783   -825.33347     102002.7      46.7237      46.7237      46.7237 
   49000    130.37954   -10183.619   -9034.4207   -1172.4781     102002.7      46.7237      46.7237      46.7237 
   50000    125.79648   -10122.965   -9014.1623   -1047.3666     102002.7      46.7237      46.7237      46.7237 
   51000    128.70828   -10148.464    -9013.996   -946.91353     102002.7      46.7237      46.7237      46.7237 
   52000    129.74423   -10170.927   -9027.3285   -1034.0466     102002.7      46.7237      46.7237      46.7237 
   53000    126.93647   -10151.619   -9032.7681   -860.72133     102002.7      46.7237      46.7237      46.7237 
   54000    131.96929   -10121.295   -8958.0842   -725.12625     102002.7      46.7237      46.7237      46.7237 
   55000    127.26299   -10135.439   -9013.7102   -527.08738     102002.7      46.7237      46.7237      46.7237 
   56000    125.68111    -10160.04   -9052.2549   -940.51274     102002.7      46.7237      46.7237      46.7237 
   57000    127.65394   -10141.231   -9016.0563   -945.45765     102002.7      46.7237      46.7237      46.7237 
   58000    132.91528   -10149.584   -8978.0352   -680.26558     102002.7      46.7237      46.7237      46.7237 
   59000    128.73912   -10191.309   -9056.5698   -1174.1587     102002.7      46.7237      46.7237      46.7237 
   60000     128.5959   -10149.401   -9015.9241   -955.66925     102002.7      46.7237      46.7237      46.7237 
   61000    130.89745   -10146.943   -8993.1793   -721.04897     102002.7      46.7237      46.7237      46.7237 
   62000    131.80831   -10171.146   -9009.3541   -389.51203     102002.7      46.7237      46.7237      46.7237 
   63000    127.18736   -10190.965   -9069.9034   -589.17127     102002.7      46.7237      46.7237      46.7237 
   64000    129.15099   -10154.588   -9016.2183   -562.46246     102002.7      46.7237      46.7237      46.7237 
   65000    127.34124   -10137.583   -9015.1647   -683.73528     102002.7      46.7237      46.7237      46.7237 
   66000    129.66881   -10164.031   -9021.0972   -715.33942     102002.7      46.7237      46.7237      46.7237 
   67000    126.66814   -10162.679   -9046.1938   -940.40082     102002.7      46.7237      46.7237      46.7237 
   68000     130.6898   -10157.952   -9006.0186   -701.73187     102002.7      46.7237      46.7237      46.7237 
   69000    128.63418   -10145.195   -9011.3806   -497.52917     102002.7      46.7237      46.7237      46.7237 
   70000    128.83977   -10189.888   -9054.2617   -594.79978     102002.7      46.7237      46.7237      46.7237 
   71000    128.46036   -10162.939   -9030.6562   -929.54716     102002.7      46.7237      46.7237      46.7237 
   72000    132.98364   -10169.612   -8997.4599   -960.50186     102002.7      46.7237      46.7237      46.7237 
   73000    131.33229   -10182.758   -9025.1616   -846.54233     102002.7      46.7237      46.7237      46.7237 
   74000    133.38364   -10166.413   -8990.7352   -877.75993     102002.7      46.7237      46.7237      46.7237 
   75000    128.15684   -10152.965   -9023.3574   -956.27118     102002.7      46.7237      46.7237      46.7237 
   76000    131.20159   -10121.516   -8965.0713   -782.02723     102002.7      46.7237      46.7237      46.7237 
   77000     132.7971   -10152.316   -8981.8083   -974.29585     102002.7      46.7237      46.7237      46.7237 
   78000    127.20048   -10143.599   -9022.4219   -580.79973     102002.7      46.7237      46.7237      46.7237 
   79000    131.90969     -10155.9   -8993.2148   -741.69677     102002.7      46.7237      46.7237      46.7237 
   80000     129.7147   -10161.816   -9018.4771   -807.64696     102002.7      46.7237      46.7237      46.7237 
   81000    124.55863   -10133.722   -9035.8303   -493.87604     102002.7      46.7237      46.7237      46.7237 
   82000    130.09115   -10177.196   -9030.5398   -758.88577     102002.7      46.7237      46.7237      46.7237 
   83000    130.29428   -10166.083   -9017.6357   -1085.1392     102002.7      46.7237      46.7237      46.7237 
   84000    129.53473   -10150.328   -9008.5761   -743.22942     102002.7      46.7237      46.7237      46.7237 
   85000    131.13811   -10149.725   -8993.8407   -942.09781     102002.7      46.7237      46.7237      46.7237 
   86000    132.40641   -10115.719   -8948.6553   -778.22312     102002.7      46.7237      46.7237      46.7237 
   87000     130.3853   -10170.807   -9021.5573   -1065.9054     102002.7      46.7237      46.7237      46.7237 
   88000    126.84992   -10175.329   -9057.2412   -807.75256     102002.7      46.7237      46.7237      46.7237 
   89000    129.06928   -10173.846   -9036.1962   -872.25643     102002.7      46.7237      46.7237      46.7237 
   90000    129.21191   -10157.156   -9018.2489   -813.35488     102002.7      46.7237      46.7237      46.7237 
   91000    128.90968   -10150.124   -9013.8815   -787.50205     102002.7      46.7237      46.7237      46.7237 
   92000    131.38937   -10147.175   -8989.0757   -468.93518     102002.7      46.7237      46.7237      46.7237 
   93000    128.70641   -10162.503   -9028.0519   -698.41861     102002.7      46.7237      46.7237      46.7237 
   94000    131.81949   -10170.717   -9008.8261   -653.69889     102002.7      46.7237      46.7237      46.7237 
   95000    125.66923   -10157.952   -9050.2715   -762.93281     102002.7      46.7237      46.7237      46.7237 
   96000    126.64512   -10133.692     -9017.41   -748.35483     102002.7      46.7237      46.7237      46.7237 
   97000    129.46898   -10155.315   -9014.1421   -915.30381     102002.7      46.7237      46.7237      46.7237 
   98000    129.90047   -10180.413   -9035.4373   -1045.1643     102002.7      46.7237      46.7237      46.7237 
   99000    130.09938    -10145.76   -8999.0312   -813.51559     102002.7      46.7237      46.7237      46.7237 
  100000    131.04193   -10135.109   -8980.0715   -990.32432     102002.7      46.7237      46.7237      46.7237 
  101000    128.18384   -10188.379   -9058.5336    -1079.884     102002.7      46.7237      46.7237      46.7237 
  102000    128.29881   -10138.706   -9007.8479   -794.75594     102002.7      46.7237      46.7237      46.7237 
  103000    127.09182   -10153.976    -9033.756   -686.00135     102002.7      46.7237      46.7237      46.7237 
  104000    128.20116   -10146.673   -9016.6758   -1134.3505     102002.7      46.7237      46.7237      46.7237 
  105000     125.1976   -10155.008   -9051.4844   -834.41604     102002.7      46.7237      46.7237      46.7237 
  106000    132.32016   -10152.388   -8986.0843   -728.50691     102002.7      46.7237      46.7237      46.7237 
  107000    129.50046   -10141.526   -9000.0761   -818.43312     102002.7      46.7237      46.7237      46.7237 
  108000    128.78439    -10173.85   -9038.7114   -388.12011     102002.7      46.7237      46.7237      46.7237 
  109000    131.78652   -10143.809   -8982.2087   -553.63924     102002.7      46.7237      46.7237      46.7237 
  110000    133.24981   -10131.934   -8957.4361   -582.96786     102002.7      46.7237      46.7237      46.7237 
  111000    127.59928   -10179.021   -9054.3285   -393.16845     102002.7      46.7237      46.7237      46.7237 
  112000    132.18271   -10160.673    -8995.581   -703.95822     102002.7      46.7237      46.7237      46.7237 
  113000    131.68983   -10166.174   -9005.4264   -1072.8342     102002.7      46.7237      46.7237      46.7237 
  114000    130.01044   -10171.188   -9025.2427   -937.62899     102002.7      46.7237      46.7237      46.7237 
  115000    131.37716   -10160.408   -9002.4165   -1001.5056     102002.7      46.7237      46.7237      46.7237 
  116000    131.56142   -10162.643   -9003.0269    -569.0543     102002.7      46.7237      46.7237      46.7237 
  117000     132.0387   -10172.998   -9009.1755    -460.7087     102002.7      46.7237      46.7237      46.7237 
  118000    125.62967   -10136.844   -9029.5119   -700.36708     102002.7      46.7237      46.7237      46.7237 
  119000    129.63693    -10123.12   -8980.4669   -614.81516     102002.7      46.7237      46.7237      46.7237 
  120000    128.84174   -10138.709   -9003.0646     -996.957     102002.7      46.7237      46.7237      46.7237 
  121000    130.24125   -10175.355   -9027.3753   -671.12935     102002.7      46.7237      46.7237      46.7237 
  122000    132.71776   -10168.419   -8998.6109   -785.71047     102002.7      46.7237      46.7237      46.7237 
  123000    133.23949   -10158.142   -8983.7349   -596.29426     102002.7      46.7237      46.7237      46.7237 
  124000    128.55711   -10151.844   -9018.7088   -697.62185     102002.7      46.7237      46.7237      46.7237 
  125000    129.86148   -10173.786   -9029.1538   -675.37056     102002.7      46.7237      46.7237      46.7237 
  126000    130.03492   -10154.977   -9008.8158   -418.95284     102002.7      46.7237      46.7237      46.7237 
  127000     127.9056   -10166.751   -9039.3583   -649.20362     102002.7      46.7237      46.7237      46.7237 
  128000    126.45472   -10168.825   -9054.2206   -976.82473     102002.7      46.7237      46.7237      46.7237 
  129000    131.61394   -10192.662   -9032.5836   -831.01616     102002.7      46.7237      46.7237      46.7237 
  130000    133.21346   -10172.052   -8997.8745   -785.32538     102002.7      46.7237      46.7237      46.7237 
  131000    131.80843   -10156.701   -8994.9076   -732.26584     102002.7      46.7237      46.7237      46.7237 
  132000    129.36165   -10164.254   -9024.0272   -488.86457     102002.7      46.7237      46.7237      46.7237 
  133000    126.67799   -10161.995   -9045.4233   -851.83561     102002.7      46.7237      46.7237      46.7237 
  134000    131.91707   -10158.307   -8995.5559   -579.42997     102002.7      46.7237      46.7237      46.7237 
  135000    129.87928   -10138.191   -8993.4022   -720.42528     102002.7      46.7237      46.7237      46.7237 
  136000    130.90311   -10178.142   -9024.3285   -586.53626     102002.7      46.7237      46.7237      46.7237 
  137000    127.66201   -10153.931   -9028.6851    -1041.474     102002.7      46.7237      46.7237      46.7237 
  138000     132.4862   -10149.765   -8981.9977   -735.20654     102002.7      46.7237      46.7237      46.7237 
  139000    129.09741   -10151.632    -9013.734    -506.2817     102002.7      46.7237      46.7237      46.7237 
  140000    128.88476   -10178.943   -9042.9196   -653.40704     102002.7      46.7237      46.7237      46.7237 
  141000    128.87232   -10165.419   -9029.5057   -1061.6995     102002.7      46.7237      46.7237      46.7237 
  142000    131.82271   -10139.539   -8977.6198   -1057.9826     102002.7      46.7237      46.7237      46.7237 
  143000    129.86123   -10145.044   -9000.4139   -786.90334     102002.7      46.7237      46.7237      46.7237 
  144000     129.1268   -10144.901   -9006.7442   -976.74287     102002.7      46.7237      46.7237      46.7237 
  145000    134.32779   -10154.366   -8970.3664   -798.53015     102002.7      46.7237      46.7237      46.7237 
  146000    130.93498   -10139.293   -8985.1986   -875.01032     102002.7      46.7237      46.7237      46.7237 
  147000    132.19723   -10124.899   -8959.6792    -947.2022     102002.7      46.7237      46.7237      46.7237 
  148000    131.54862   -10151.236   -8991.7326   -617.20289     102002.7      46.7237      46.7237      46.7237 
  149000    128.59469   -10161.604   -9028.1371   -1038.3093     102002.7      46.7237      46.7237      46.7237 
  150000    129.62245   -10169.671    -9027.146   -983.96838     102002.7      46.7237      46.7237      46.7237 
  151000    129.87332   -10154.755   -9010.0185   -732.35742     102002.7      46.7237      46.7237      46.7237 
  152000    127.94056   -10180.065   -9052.3645   -913.41163     102002.7      46.7237      46.7237      46.7237 
  153000    130.43924   -10151.196   -9001.4715   -571.38714     102002.7      46.7237      46.7237      46.7237 
  154000    132.76269   -10161.819   -8991.6144    -583.0649     102002.7      46.7237      46.7237      46.7237 
  155000    128.50407   -10145.535   -9012.8674   -604.76135     102002.7      46.7237      46.7237      46.7237 
  156000    126.26456   -10186.883   -9073.9548   -1009.6682     102002.7      46.7237      46.7237      46.7237 
  157000    128.80293   -10121.902   -8986.6002   -1079.6074     102002.7      46.7237      46.7237      46.7237 
  158000     130.9968   -10156.782    -9002.143   -711.40481     102002.7      46.7237      46.7237      46.7237 
  159000    128.97752   -10153.315   -9016.4745   -1048.4535     102002.7      46.7237      46.7237      46.7237 
  160000    134.96203   -10189.554   -8999.9646   -762.86629     102002.7      46.7237      46.7237      46.7237 
  161000    131.75305   -10190.491   -9029.1864   -758.25398     102002.7      46.7237      46.7237      46.7237 
  162000     128.0585   -10153.944   -9025.2033   -833.41114     102002.7      46.7237      46.7237      46.7237 
  163000    130.04535   -10155.967   -9009.7138   -529.93916     102002.7      46.7237      46.7237      46.7237 
  164000    130.61804    -10148.22   -8996.9194   -684.26314     102002.7      46.7237      46.7237      46.7237 
  165000    132.76573   -10153.536   -8983.3045   -740.27462     102002.7      46.7237      46.7237      46.7237 
  166000    133.13378   -10153.241   -8979.7656   -681.87475     102002.7      46.7237      46.7237      46.7237 
  167000    125.83967   -10173.166   -9063.9833   -823.85911     102002.7      46.7237      46.7237      46.7237 
  168000    130.89968   -10145.919   -8992.1355   -807.12982     102002.7      46.7237      46.7237      46.7237 
  169000     128.5322   -10166.266   -9033.3505   -665.59616     102002.7      46.7237      46.7237      46.7237 
  170000    129.78686   -10145.519   -9001.5446   -769.10401     102002.7      46.7237      46.7237      46.7237 
  171000    127.31804   -10140.979    -9018.765    -754.0527     102002.7      46.7237      46.7237      46.7237 
  172000     132.4544   -10155.513   -8988.0258   -751.43387     102002.7      46.7237      46.7237      46.7237 
  173000    132.87995   -10163.738   -8992.5002   -1081.2167     102002.7      46.7237      46.7237      46.7237 
  174000    129.46766   -10172.944   -9031.7832   -693.21187     102002.7      46.7237      46.7237      46.7237 
  175000    127.60661   -10162.217   -9037.4596    -772.3745     102002.7      46.7237      46.7237      46.7237 
  176000     129.9167   -10169.438   -9024.3195   -1072.8152     102002.7      46.7237      46.7237      46.7237 
  177000    128.79757   -10140.205   -9004.9499   -872.31109     102002.7      46.7237      46.7237      46.7237 
  178000    133.16557   -10162.514   -8988.7582   -1049.4798     102002.7      46.7237      46.7237      46.7237 
  179000    131.35029   -10171.888   -9014.1326   -878.45892     102002.7      46.7237      46.7237      46.7237 
  180000    132.00113   -10144.371   -8980.8796    -1078.289     102002.7      46.7237      46.7237      46.7237 
  181000    130.70129    -10167.17   -9015.1351    -1259.162     102002.7      46.7237      46.7237      46.7237 
  182000    125.13564   -10158.925    -9055.948   -1003.9586     102002.7      46.7237      46.7237      46.7237 
  183000    131.84262   -10158.098   -8996.0033   -685.86557     102002.7      46.7237      46.7237      46.7237 
  184000    131.28384   -10167.741   -9010.5715    -620.8827     102002.7      46.7237      46.7237      46.7237 
  185000    128.01626   -10167.421   -9039.0528   -1014.0832     102002.7      46.7237      46.7237      46.7237 
  186000    130.56295     -10152.2   -9001.3852   -949.76604     102002.7      46.7237      46.7237      46.7237 
  187000    129.98234   -10170.739   -9025.0416    -901.0643     102002.7      46.7237      46.7237      46.7237 
  188000    129.42575   -10160.965   -9020.1732   -987.25209     102002.7      46.7237      46.7237      46.7237 
  189000    130.08516   -10156.446   -9009.8419   -760.78704     102002.7      46.7237      46.7237      46.7237 
  190000    131.09482   -10161.304   -9005.8008   -608.30075     102002.7      46.7237      46.7237      46.7237 
  191000    127.05312    -10143.81   -9023.9318   -1174.3523     102002.7      46.7237      46.7237      46.7237 
  192000    131.71474   -10141.113   -8980.1453   -602.18279     102002.7      46.7237      46.7237      46.7237 
  193000    132.67147   -10104.805   -8935.4044   -801.82146     102002.7      46.7237      46.7237      46.7237 
  194000    129.97907   -10172.744   -9027.0751   -735.77641     102002.7      46.7237      46.7237      46.7237 
  195000    129.12043   -10133.251   -8995.1506   -875.83149     102002.7      46.7237      46.7237      46.7237 
  196000    132.57738   -10148.495    -8979.924    -1042.709     102002.7      46.7237      46.7237      46.7237 
  197000     127.4531   -10181.074   -9057.6698   -929.73486     102002.7      46.7237      46.7237      46.7237 
  198000    127.08431    -10145.86   -9025.7062    -754.3805     102002.7      46.7237      46.7237      46.7237 
  199000    129.56877   -10148.423   -9006.3705    -779.4223     102002.7      46.7237      46.7237      46.7237 
  200000    127.30093   -10136.769   -9014.7061   -777.73397     102002.7      46.7237      46.7237      46.7237 
  201000    127.43334   -10147.501   -9024.2706   -923.56812     102002.7      46.7237      46.7237      46.7237 
  202000    127.89483   -10147.466   -9020.1685   -522.32076     102002.7      46.7237      46.7237      46.7237 
  203000    131.67658   -10157.102   -8996.4706   -743.52037     102002.7      46.7237      46.7237      46.7237 
  204000    129.11497   -10157.716   -9019.6639   -785.99602     102002.7      46.7237      46.7237      46.7237 
  205000    128.93446   -10146.457   -9009.9954   -827.91704     102002.7      46.7237      46.7237      46.7237 
  206000    129.59854   -10156.908   -9014.5933   -447.40688     102002.7      46.7237      46.7237      46.7237 
  207000     131.2412   -10169.296   -9012.5021   -891.71404     102002.7      46.7237      46.7237      46.7237 
  208000    130.95413   -10132.675   -8978.4119   -633.24422     102002.7      46.7237      46.7237      46.7237 
  209000    132.11858   -10175.383    -9010.856   -749.06414     102002.7      46.7237      46.7237      46.7237 
  210000    126.36678   -10178.135    -9064.306   -1090.8916     102002.7      46.7237      46.7237      46.7237 
  211000    130.75309   -10182.843   -9030.3519   -915.38628     102002.7      46.7237      46.7237      46.7237 
  212000    130.44939   -10153.603   -9003.7888   -1270.4532     102002.7      46.7237      46.7237      46.7237 
  213000    127.84888   -10167.089   -9040.1963   -902.27081     102002.7      46.7237      46.7237      46.7237 
  214000     129.6846   -10143.644    -9000.571   -998.89639     102002.7      46.7237      46.7237      46.7237 
  215000    131.98294   -10152.938   -8989.6068   -768.11305     102002.7      46.7237      46.7237      46.7237 
  216000    129.31635   -10181.248    -9041.421   -619.01177     102002.7      46.7237      46.7237      46.7237 
  217000    129.10896   -10162.284   -9024.2847   -585.60014     102002.7      46.7237      46.7237      46.7237 
  218000    128.55537   -10132.844   -8999.7243   -722.98809     102002.7      46.7237      46.7237      46.7237 
  219000    129.63636   -10178.419   -9035.7715   -432.74652     102002.7      46.7237      46.7237      46.7237 
  220000    131.42449   -10157.135   -8998.7261   -1114.4889     102002.7      46.7237      46.7237      46.7237 
  221000    128.20736   -10159.182   -9029.1293   -840.69309     102002.7      46.7237      46.7237      46.7237 
  222000    126.53775   -10166.923    -9051.587   -865.28347     102002.7      46.7237      46.7237      46.7237 
  223000    129.54456    -10162.87    -9021.031   -1257.6262     102002.7      46.7237      46.7237      46.7237 
  224000     128.6081   -10156.434   -9022.8489    -791.6402     102002.7      46.7237      46.7237      46.7237 
  225000    126.40788   -10146.693   -9032.5018   -1200.4764     102002.7      46.7237      46.7237      46.7237 
  226000    132.61648   -10156.883   -8987.9677   -702.99121     102002.7      46.7237      46.7237      46.7237 
  227000    132.17045   -10152.384   -8987.4001   -729.40819     102002.7      46.7237      46.7237      46.7237 
  228000    126.99849   -10155.654   -9036.2571   -966.10206     102002.7      46.7237      46.7237      46.7237 
  229000    135.35758   -10144.724   -8951.6481   -747.32422     102002.7      46.7237      46.7237      46.7237 
  230000    129.81512   -10124.417   -8980.1933   -874.72576     102002.7      46.7237      46.7237      46.7237 
  231000    132.19463   -10141.526   -8976.3291   -1116.1445     102002.7      46.7237      46.7237      46.7237 
  232000    130.50161   -10178.855   -9028.5808    -785.9211     102002.7      46.7237      46.7237      46.7237 
  233000    127.72189   -10135.915   -9010.1417   -967.11413     102002.7      46.7237      46.7237      46.7237 
  234000    126.57786   -10146.607   -9030.9176   -669.01579     102002.7      46.7237      46.7237      46.7237 
  235000    130.35406   -10163.248   -9014.2744   -842.42574     102002.7      46.7237      46.7237      46.7237 
  236000    132.29214   -10174.859   -9008.8026   -898.02737     102002.7      46.7237      46.7237      46.7237 
  237000    127.64999     -10130.4   -9005.2607   -791.92522     102002.7      46.7237      46.7237      46.7237 
  238000    129.64145   -10160.958   -9018.2656   -882.36415     102002.7      46.7237      46.7237      46.7237 
  239000    128.34721   -10134.886   -9003.6007   -984.72869     102002.7      46.7237      46.7237      46.7237 
  240000    128.36641   -10205.273    -9073.819   -748.89479     102002.7      46.7237      46.7237      46.7237 
  241000    129.55581   -10185.073   -9043.1355   -600.54289     102002.7      46.7237      46.7237      46.7237 
  242000    126.54998   -10161.339   -9045.8951   -984.57946     102002.7      46.7237      46.7237      46.7237 
  243000    132.10535   -10160.673   -8996.2626   -669.27158     102002.7      46.7237      46.7237      46.7237 
  244000    133.39076   -10147.637   -8971.8968   -530.38877     102002.7      46.7237      46.7237      46.7237 
  245000     132.5819    -10160.53    -8991.919   -729.91361     102002.7      46.7237      46.7237      46.7237 
  246000    131.29537    -10164.16   -9006.8891   -505.58026     102002.7      46.7237      46.7237      46.7237 
  247000    131.41072   -10163.224   -9004.9364   -823.67397     102002.7      46.7237      46.7237      46.7237 
  248000    128.76393   -10144.564   -9009.6063   -848.54462     102002.7      46.7237      46.7237      46.7237 
  249000    134.02603   -10144.406   -8963.0664   -1171.3024     102002.7      46.7237      46.7237      46.7237 
  250000     128.6513   -10166.786   -9032.8202    -1093.484     102002.7      46.7237      46.7237      46.7237 
  251000    128.96751   -10155.043   -9018.2902   -674.70821     102002.7      46.7237      46.7237      46.7237 
  252000    127.48255   -10126.711   -9003.0467   -964.86034     102002.7      46.7237      46.7237      46.7237 
  253000    124.69845   -10152.528   -9053.4044   -1238.1995     102002.7      46.7237      46.7237      46.7237 
  254000    130.33658   -10155.762   -9006.9422   -1055.5153     102002.7      46.7237      46.7237      46.7237 
  255000    128.16644   -10158.028   -9028.3365   -762.20616     102002.7      46.7237      46.7237      46.7237 
  256000    131.11716   -10156.831   -9001.1305   -1017.3579     102002.7      46.7237      46.7237      46.7237 
  257000    129.67112   -10170.312   -9027.3577   -791.70906     102002.7      46.7237      46.7237      46.7237 
  258000    127.92345   -10173.715   -9046.1652   -821.30703     102002.7      46.7237      46.7237      46.7237 
  259000    133.75757   -10171.156   -8992.1831   -669.23385     102002.7      46.7237      46.7237      46.7237 
  260000    128.09081   -10136.023   -9006.9974   -851.92548     102002.7      46.7237      46.7237      46.7237 
  261000    132.03624   -10180.919    -9017.118   -1159.5218     102002.7      46.7237      46.7237      46.7237 
  262000    128.59626    -10149.05   -9015.5701   -865.43003     102002.7      46.7237      46.7237      46.7237 
  263000     133.9621   -10173.847   -8993.0704   -1054.4631     102002.7      46.7237      46.7237      46.7237 
  264000    131.81896   -10176.804    -9014.918   -1294.4785     102002.7      46.7237      46.7237      46.7237 
  265000    131.91691    -10169.93   -9007.1803   -775.94143     102002.7      46.7237      46.7237      46.7237 
  266000    130.04783   -10153.348   -9007.0736   -757.01595     102002.7      46.7237      46.7237      46.7237 
  267000    129.24305   -10162.481   -9023.2997   -848.49441     102002.7      46.7237      46.7237      46.7237 
  268000    127.21837    -10157.19   -9035.8545   -691.58701     102002.7      46.7237      46.7237      46.7237 
  269000    135.50264   -10147.728   -8953.3735    -741.7612     102002.7      46.7237      46.7237      46.7237 
  270000    128.68324   -10172.516   -9038.2689   -883.28948     102002.7      46.7237      46.7237      46.7237 
  271000    129.59217    -10141.96   -8999.7018   -765.11099     102002.7      46.7237      46.7237      46.7237 
  272000    130.52284   -10187.822   -9037.3607   -691.89635     102002.7      46.7237      46.7237      46.7237 
  273000    132.73038   -10130.932    -8961.013   -608.51132     102002.7      46.7237      46.7237      46.7237 
  274000    127.35606   -10147.155   -9024.6065   -772.91148     102002.7      46.7237      46.7237      46.7237 
  275000    130.63458   -10153.091   -9001.6448   -928.10699     102002.7      46.7237      46.7237      46.7237 
  276000    128.31959   -10128.865   -8997.8236   -611.61216     102002.7      46.7237      46.7237      46.7237 
  277000    131.20677   -10155.322    -8998.832     -638.756     102002.7      46.7237      46.7237      46.7237 
  278000    131.65278   -10170.444   -9010.0228   -789.20873     102002.7      46.7237      46.7237      46.7237 
  279000    130.72777   -10152.917   -9000.6489   -776.42933     102002.7      46.7237      46.7237      46.7237 
  280000    125.53827   -10181.017   -9074.4909   -585.78795     102002.7      46.7237      46.7237      46.7237 
  281000    126.86559   -10138.771   -9020.5454   -772.20486     102002.7      46.7237      46.7237      46.7237 
  282000    127.71602   -10150.388   -9024.6668   -1117.9118     102002.7      46.7237      46.7237      46.7237 
  283000    131.29609   -10156.836    -8999.559   -543.35494     102002.7      46.7237      46.7237      46.7237 
  284000    128.56503    -10166.18   -9032.9748   -984.90733     102002.7      46.7237      46.7237      46.7237 
  285000    129.10024     -10177.2   -9039.2777   -292.93614     102002.7      46.7237      46.7237      46.7237 
  286000     131.1179   -10151.213   -8995.5062   -614.46471     102002.7      46.7237      46.7237      46.7237 
  287000    130.74983   -10142.412   -8989.9497   -1017.3658     102002.7      46.7237      46.7237      46.7237 
  288000    128.81134   -10168.253   -9032.8767   -452.03569     102002.7      46.7237      46.7237      46.7237 
  289000    131.59452   -10160.288   -9000.3802   -721.77602     102002.7      46.7237      46.7237      46.7237 
  290000    129.65851   -10145.093   -9002.2494   -561.47083     102002.7      46.7237      46.7237      46.7237 
  291000    131.90916   -10144.369   -8981.6875   -573.44858     102002.7      46.7237      46.7237      46.7237 
  292000     129.4597   -10153.829   -9012.7383      -806.27     102002.7      46.7237      46.7237      46.7237 
  293000    130.28518   -10171.645   -9023.2779   -547.13069     102002.7      46.7237      46.7237      46.7237 
  294000    127.99985   -10159.075   -9030.8512   -748.17422     102002.7      46.7237      46.7237      46.7237 
  295000     129.6643   -10130.931   -8988.0365   -886.43197     102002.7      46.7237      46.7237      46.7237 
  296000    126.60281   -10167.243   -9051.3336   -948.64172     102002.7      46.7237      46.7237      46.7237 
  297000     131.0078   -10141.235   -8986.4985   -1250.9122     102002.7      46.7237      46.7237      46.7237 
  298000     126.7351   -10148.467   -9031.3915   -1120.5432     102002.7      46.7237      46.7237      46.7237 
  299000    129.95801   -10179.597   -9034.1139   -697.83703     102002.7      46.7237      46.7237      46.7237 
  300000    128.37809    -10149.39   -9017.8323   -1148.1023     102002.7      46.7237      46.7237      46.7237 
  301000    134.49015   -10171.967   -8986.5365   -749.08223     102002.7      46.7237      46.7237      46.7237 
  302000    126.48248   -10139.112   -9024.2629   -1020.7362     102002.7      46.7237      46.7237      46.7237 
  303000    132.00934    -10162.84   -8999.2758   -658.06903     102002.7      46.7237      46.7237      46.7237 
  304000     126.7197   -10165.661   -9048.7209   -969.90716     102002.7      46.7237      46.7237      46.7237 
  305000    131.01516    -10149.82   -8995.0188   -808.90806     102002.7      46.7237      46.7237      46.7237 
  306000    129.36576   -10162.315   -9022.0524   -668.82276     102002.7      46.7237      46.7237      46.7237 
  307000    130.41598    -10167.53   -9018.0102    -1089.336     102002.7      46.7237      46.7237      46.7237 
  308000    130.78799   -10173.897    -9021.098   -889.58409     102002.7      46.7237      46.7237      46.7237 
  309000    128.94671     -10165.8   -9029.2308   -669.16461     102002.7      46.7237      46.7237      46.7237 
  310000    130.47466   -10172.157   -9022.1201   -664.72643     102002.7      46.7237      46.7237      46.7237 
  311000     131.7772   -10139.269   -8977.7507   -793.66339     102002.7      46.7237      46.7237      46.7237 
  312000    129.38412   -10197.888   -9057.4638   -929.89215     102002.7      46.7237      46.7237      46.7237 
  313000    131.49002   -10160.131   -9001.1448   -762.10826     102002.7      46.7237      46.7237      46.7237 
  314000    130.20143   -10141.853   -8994.2242    -701.8781     102002.7      46.7237      46.7237      46.7237 
  315000    130.41602   -10185.999   -9036.4788   -899.26231     102002.7      46.7237      46.7237      46.7237 
  316000    130.52217   -10161.145   -9010.6893    -888.3237     102002.7      46.7237      46.7237      46.7237 
  317000    130.22367   -10184.262   -9036.4372    -992.1114     102002.7      46.7237      46.7237      46.7237 
  318000    127.81521   -10143.327   -9016.7315    -1113.467     102002.7      46.7237      46.7237      46.7237 
  319000    128.16991   -10176.049   -9046.3271   -1155.9083     102002.7      46.7237      46.7237      46.7237 
  320000    130.19801   -10152.354   -9004.7557   -1003.2098     102002.7      46.7237      46.7237      46.7237 
  321000    129.60783   -10167.968   -9025.5717   -959.95851     102002.7      46.7237      46.7237      46.7237 
  322000    126.75536   -10161.182   -9043.9281   -945.20218     102002.7      46.7237      46.7237      46.7237 
  323000    130.61515   -10134.296   -8983.0203    -946.1861     102002.7      46.7237      46.7237      46.7237 
  324000    129.30061   -10189.002   -9049.3139   -1090.3251     102002.7      46.7237      46.7237      46.7237 
  325000    128.93546   -10133.948   -8997.4777   -554.33615     102002.7      46.7237      46.7237      46.7237 
  326000    132.43029   -10163.069   -8995.7941   -850.50434     102002.7      46.7237      46.7237      46.7237 
  327000    128.23765   -10145.707   -9015.3878   -718.98191     102002.7      46.7237      46.7237      46.7237 
  328000    128.28253   -10156.642   -9025.9273    -1108.865     102002.7      46.7237      46.7237      46.7237 
  329000    128.14389   -10191.972    -9062.479   -940.81776     102002.7      46.7237      46.7237      46.7237 
  330000    127.58568   -10135.847   -9011.2744   -668.65222     102002.7      46.7237      46.7237      46.7237 
  331000    131.29673   -10153.889   -8996.6057   -827.11454     102002.7      46.7237      46.7237      46.7237 
  332000    126.80259   -10146.093   -9028.4231    -555.6967     102002.7      46.7237      46.7237      46.7237 
  333000    131.12872   -10172.018   -9016.2159   -763.55672     102002.7      46.7237      46.7237      46.7237 
  334000    131.94238   -10142.363   -8979.3894   -660.57708     102002.7      46.7237      46.7237      46.7237 
  335000    128.60951   -10145.443    -9011.846   -543.57327     102002.7      46.7237      46.7237      46.7237 
  336000    131.58357   -10149.401   -8989.5899   -528.12675     102002.7      46.7237      46.7237      46.7237 
  337000    128.06629   -10170.896   -9042.0874   -662.21766     102002.7      46.7237      46.7237      46.7237 
  338000    127.72684   -10139.832   -9014.0149   -600.39758     102002.7      46.7237      46.7237      46.7237 
  339000    128.23017   -10133.143   -9002.8893   -738.51199     102002.7      46.7237      46.7237      46.7237 
  340000    128.42772   -10178.311   -9046.3158   -830.51498     102002.7      46.7237      46.7237      46.7237 
  341000    132.30706   -10173.887    -9007.699   -978.98822     102002.7      46.7237      46.7237      46.7237 
  342000    128.38175   -10153.322    -9021.733   -594.39728     102002.7      46.7237      46.7237      46.7237 
  343000    131.29563   -10165.191   -9007.9174   -825.27845     102002.7      46.7237      46.7237      46.7237 
  344000    129.34604   -10156.889   -9016.8003    -812.4084     102002.7      46.7237      46.7237      46.7237 
  345000    133.32818   -10142.253   -8967.0647   -658.57839     102002.7      46.7237      46.7237      46.7237 
  346000    133.29706   -10178.976    -9004.062   -946.13462     102002.7      46.7237      46.7237      46.7237 
  347000    131.37532   -10165.357    -9007.381    -820.6629     102002.7      46.7237      46.7237      46.7237 
  348000    129.08358    -10159.46   -9021.6839   -976.58031     102002.7      46.7237      46.7237      46.7237 
  349000    130.48672   -10183.409   -9033.2654   -583.43532     102002.7      46.7237      46.7237      46.7237 
  350000    127.39766   -10150.824   -9027.9081   -477.12652     102002.7      46.7237      46.7237      46.7237 
  351000    127.16584   -10211.303   -9090.4307   -694.83714     102002.7      46.7237      46.7237      46.7237 
  352000    131.59192   -10166.995   -9007.1103   -467.38792     102002.7      46.7237      46.7237      46.7237 
  353000    130.41082   -10174.401   -9024.9268   -788.85476     102002.7      46.7237      46.7237      46.7237 
  354000    130.49097   -10136.428   -8986.2476   -1069.6883     102002.7      46.7237      46.7237      46.7237 
  355000    127.22909   -10155.346   -9033.9166   -958.87527     102002.7      46.7237      46.7237      46.7237 
  356000    129.57001   -10155.004   -9012.9408   -935.42113     102002.7      46.7237      46.7237      46.7237 
  357000     127.5026   -10157.069   -9033.2282   -1077.3973     102002.7      46.7237      46.7237      46.7237 
  358000    129.78456   -10122.677   -8978.7232   -843.80293     102002.7      46.7237      46.7237      46.7237 
  359000    134.45472   -10149.498   -8964.3801   -884.97277     102002.7      46.7237      46.7237      46.7237 
  360000    128.62739   -10187.251   -9053.4965   -922.17942     102002.7      46.7237      46.7237      46.7237 
  361000    131.17294   -10142.702   -8986.5104   -709.53953     102002.7      46.7237      46.7237      46.7237 
  362000    128.08653   -10136.519   -9007.5321   -780.88307     102002.7      46.7237      46.7237      46.7237 
  363000    129.41609   -10180.237     -9039.53   -1105.5255     102002.7      46.7237      46.7237      46.7237 
  364000     133.5293   -10162.934   -8985.9723   -655.91548     102002.7      46.7237      46.7237      46.7237 
  365000    128.90908   -10152.064   -9015.8266   -615.37794     102002.7      46.7237      46.7237      46.7237 
  366000    131.51506   -10162.265   -9003.0572    -607.1674     102002.7      46.7237      46.7237      46.7237 
  367000    128.44467   -10160.597   -9028.4524    -523.6368     102002.7      46.7237      46.7237      46.7237 
  368000    131.73048   -10172.887   -9011.7807    -992.7427     102002.7      46.7237      46.7237      46.7237 
  369000    129.94276   -10140.813   -8995.4645   -828.04482     102002.7      46.7237      46.7237      46.7237 
  370000    132.27471   -10147.877   -8981.9741   -702.46996     102002.7      46.7237      46.7237      46.7237 
  371000    131.65602    -10171.81   -9011.3606   -877.06756     102002.7      46.7237      46.7237      46.7237 
  372000    129.82261   -10144.401   -9000.1111    -835.2365     102002.7      46.7237      46.7237      46.7237 
  373000    128.08105   -10143.352   -9014.4134   -598.34956     102002.7      46.7237      46.7237      46.7237 
  374000    131.27982   -10136.964   -8979.8299   -652.63398     102002.7      46.7237      46.7237      46.7237 
  375000    131.28199   -10171.336   -9014.1831   -763.52532     102002.7      46.7237      46.7237      46.7237 
  376000    131.64838    -10128.05   -8967.6678   -861.90411     102002.7      46.7237      46.7237      46.7237 
  377000    130.13869   -10167.263   -9020.1869    -819.1225     102002.7      46.7237      46.7237      46.7237 
  378000    128.97694   -10137.825   -9000.9894   -796.31011     102002.7      46.7237      46.7237      46.7237 
  379000    130.72045    -10145.99   -8993.7868    -967.9457     102002.7      46.7237      46.7237      46.7237 
  380000     129.4983   -10110.092   -8968.6612   -951.13508     102002.7      46.7237      46.7237      46.7237 
  381000    130.03222   -10157.535   -9011.3976    -832.7551     102002.7      46.7237      46.7237      46.7237 
  382000    128.40956   -10136.456    -9004.621   -949.70146     102002.7      46.7237      46.7237      46.7237 
  383000    129.52465   -10157.502    -9015.839   -1211.2102     102002.7      46.7237      46.7237      46.7237 
  384000    134.34526   -10132.633   -8948.4799   -998.73093     102002.7      46.7237      46.7237      46.7237 
  385000    130.94059   -10158.268   -9004.1239   -1211.3118     102002.7      46.7237      46.7237      46.7237 
  386000    130.26101   -10180.883   -9032.7295   -938.05017     102002.7      46.7237      46.7237      46.7237 
  387000    129.81035   -10178.425   -9034.2435    -766.0186     102002.7      46.7237      46.7237      46.7237 
  388000    133.00495   -10144.682   -8972.3428   -1008.9432     102002.7      46.7237      46.7237      46.7237 
  389000    128.89407   -10151.298   -9015.1931   -566.50951     102002.7      46.7237      46.7237      46.7237 
  390000    127.20494   -10145.639   -9024.4225   -429.01231     102002.7      46.7237      46.7237      46.7237 
  391000    130.93454    -10165.71   -9011.6197   -958.84943     102002.7      46.7237      46.7237      46.7237 
  392000    127.62279   -10191.718   -9066.8182    -652.1235     102002.7      46.7237      46.7237      46.7237 
  393000    129.05786   -10173.413   -9035.8636   -665.46658     102002.7      46.7237      46.7237      46.7237 
  394000    129.18546   -10137.326   -8998.6527   -713.69524     102002.7      46.7237      46.7237      46.7237 
  395000    127.00709   -10167.721   -9048.2483   -861.82543     102002.7      46.7237      46.7237      46.7237 
  396000    132.78605   -10145.794   -8975.3835   -926.59907     102002.7      46.7237      46.7237      46.7237 
  397000    124.21744   -10163.362   -9068.4779   -1035.9647     102002.7      46.7237      46.7237      46.7237 
  398000    130.63693   -10146.958   -8995.4911   -840.64611     102002.7      46.7237      46.7237      46.7237 
  399000    133.71285   -10172.693   -8994.1143   -730.23035     102002.7      46.7237      46.7237      46.7237 
  400000    128.57394   -10144.698   -9011.4145   -1111.8816     102002.7      46.7237      46.7237      46.7237 
  401000    128.94447   -10161.975   -9025.4251   -719.20916     102002.7      46.7237      46.7237      46.7237 
  402000    130.93504   -10155.268   -9001.1734   -847.84657     102002.7      46.7237      46.7237      46.7237 
  403000    130.63209    -10158.63   -9007.2054   -916.70151     102002.7      46.7237      46.7237      46.7237 
  404000    128.29112   -10172.121   -9041.3308    -1096.186     102002.7      46.7237      46.7237      46.7237 
  405000    129.77926   -10142.318   -8998.4102   -583.12177     102002.7      46.7237      46.7237      46.7237 
  406000    129.65356   -10130.583    -8987.783   -1159.4719     102002.7      46.7237      46.7237      46.7237 
  407000    125.84145   -10184.345   -9075.1464   -821.20457     102002.7      46.7237      46.7237      46.7237 
  408000    131.33404   -10139.509   -8981.8973   -970.10399     102002.7      46.7237      46.7237      46.7237 
  409000    128.63323   -10154.391   -9020.5853   -1216.6381     102002.7      46.7237      46.7237      46.7237 
  410000    131.10719   -10150.416    -8994.804   -1226.0295     102002.7      46.7237      46.7237      46.7237 
  411000    124.46301   -10153.337   -9056.2886   -1056.0315     102002.7      46.7237      46.7237      46.7237 
  412000    127.01299   -10133.433   -9013.9083   -682.63557     102002.7      46.7237      46.7237      46.7237 
  413000    128.07032   -10163.259   -9034.4141    -913.3825     102002.7      46.7237      46.7237      46.7237 
  414000    128.66696   -10186.305   -9052.2012   -971.83441     102002.7      46.7237      46.7237      46.7237 
  415000    131.62015   -10149.474   -8989.3402   -762.71857     102002.7      46.7237      46.7237      46.7237 
  416000    131.45417   -10175.345   -9016.6745   -1016.3727     102002.7      46.7237      46.7237      46.7237 
  417000    126.68118   -10142.626   -9026.0259   -604.83438     102002.7      46.7237      46.7237      46.7237 
  418000    130.41857   -10145.702   -8996.1598   -893.73358     102002.7      46.7237      46.7237      46.7237 
  419000    134.86235   -10154.033   -8965.3221   -888.71356     102002.7      46.7237      46.7237      46.7237 
  420000    131.56141   -10173.884    -9014.268   -992.60561     102002.7      46.7237      46.7237      46.7237 
  421000     127.4622   -10163.348   -9039.8634   -823.58638     102002.7      46.7237      46.7237      46.7237 
  422000    130.54895   -10163.441   -9012.7495   -587.99363     102002.7      46.7237      46.7237      46.7237 
  423000     130.7926   -10168.495   -9015.6559   -1268.3525     102002.7      46.7237      46.7237      46.7237 
  424000    130.82967   -10137.622   -8984.4559   -780.53788     102002.7      46.7237      46.7237      46.7237 
  425000    130.11575   -10157.199   -9010.3259    -657.1547     102002.7      46.7237      46.7237      46.7237 
  426000    131.69217   -10125.997   -8965.2288   -1018.1166     102002.7      46.7237      46.7237      46.7237 
  427000     132.3734   -10163.836   -8997.0632   -1008.4944     102002.7      46.7237      46.7237      46.7237 
  428000    128.64978   -10135.245   -9001.2931    -797.1215     102002.7      46.7237      46.7237      46.7237 
  429000     129.7447   -10133.275   -8989.6722   -1095.1352     102002.7      46.7237      46.7237      46.7237 
  430000    130.57437   -10170.155   -9019.2391   -1154.2879     102002.7      46.7237      46.7237      46.7237 
  431000    130.80072   -10175.152   -9022.2407   -750.68517     102002.7      46.7237      46.7237      46.7237 
  432000    127.83942   -10142.584   -9015.7746   -788.10288     102002.7      46.7237      46.7237      46.7237 
  433000     130.7387   -10146.228   -8993.8636    -706.8352     102002.7      46.7237      46.7237      46.7237 
  434000    126.59889   -10196.643   -9080.7685   -719.97261     102002.7      46.7237      46.7237      46.7237 
  435000    131.59671   -10170.491   -9010.5639   -731.76456     102002.7      46.7237      46.7237      46.7237 
  436000    128.28151   -10180.796   -9050.0903   -686.45184     102002.7      46.7237      46.7237      46.7237 
  437000    127.32617   -10137.574   -9015.2888   -980.06855     102002.7      46.7237      46.7237      46.7237 
  438000    127.85718   -10121.921   -8994.9554   -738.81997     102002.7      46.7237      46.7237      46.7237 
  439000    131.31508   -10132.772   -8975.3278   -913.60324     102002.7      46.7237      46.7237      46.7237 
  440000    130.84569   -10149.889   -8996.5818   -999.78146     102002.7      46.7237      46.7237      46.7237 
  441000    129.94556   -10137.377   -8992.0041   -1023.3589     102002.7      46.7237      46.7237      46.7237 
  442000     126.8928   -10157.553    -9039.087   -892.76394     102002.7      46.7237      46.7237      46.7237 
  443000    133.58265   -10149.155   -8971.7237   -726.18137     102002.7      46.7237      46.7237      46.7237 
  444000    128.33926   -10120.616   -8989.4007    -1051.614     102002.7      46.7237      46.7237      46.7237 
  445000    129.61368   -10179.804    -9037.356   -765.17201     102002.7      46.7237      46.7237      46.7237 
  446000    127.85643   -10158.923   -9031.9635   -1280.7634     102002.7      46.7237      46.7237      46.7237 
  447000    132.82967   -10174.693   -9003.8988   -806.48634     102002.7      46.7237      46.7237      46.7237 
  448000    133.98641   -10178.221   -8997.2301   -737.81933     102002.7      46.7237      46.7237      46.7237 
  449000    129.10003   -10150.459   -9012.5388   -937.29226     102002.7      46.7237      46.7237      46.7237 
  450000    132.20035   -10142.271   -8977.0229   -683.84539     102002.7      46.7237      46.7237      46.7237 
  451000     131.4163   -10149.322   -8990.9853   -1253.6159     102002.7      46.7237      46.7237      46.7237 
  452000    129.26266   -10152.189    -9012.835    -675.0064     102002.7      46.7237      46.7237      46.7237 
  453000    130.79576   -10150.551   -8997.6839   -903.42822     102002.7      46.7237      46.7237      46.7237 
  454000     128.7763    -10139.78    -9004.713   -837.37917     102002.7      46.7237      46.7237      46.7237 
  455000    132.71161   -10172.181   -9002.4271   -443.97393     102002.7      46.7237      46.7237      46.7237 
  456000    131.67329   -10174.987   -9014.3849   -1046.5845     102002.7      46.7237      46.7237      46.7237 
  457000    129.19363   -10140.616   -9001.8701   -782.22944     102002.7      46.7237      46.7237      46.7237 
  458000    129.37421   -10175.748   -9035.4103   -980.82343     102002.7      46.7237      46.7237      46.7237 
  459000    126.58801   -10141.797   -9026.0185   -748.46038     102002.7      46.7237      46.7237      46.7237 
  460000    129.21247   -10161.708   -9022.7966   -747.62188     102002.7      46.7237      46.7237      46.7237 
  461000    129.60709   -10154.647    -9012.257   -829.53553     102002.7      46.7237      46.7237      46.7237 
  462000    133.28062   -10181.776   -9007.0064   -937.85843     102002.7      46.7237      46.7237      46.7237 
  463000    126.50345   -10132.203   -9017.1698   -735.31251     102002.7      46.7237      46.7237      46.7237 
  464000    132.68687   -10131.636   -8962.0998   -769.42628     102002.7      46.7237      46.7237      46.7237 
  465000    131.37482   -10156.104    -8998.133   -956.84576     102002.7      46.7237      46.7237      46.7237 
  466000    131.21028   -10150.916   -8994.3947   -1444.2225     102002.7      46.7237      46.7237      46.7237 
  467000    129.33524   -10139.048   -8999.0546   -1250.8143     102002.7      46.7237      46.7237      46.7237 
  468000    129.29357   -10151.081   -9011.4548   -952.12346     102002.7      46.7237      46.7237      46.7237 
  469000    131.95151   -10147.299    -8984.245   -992.93456     102002.7      46.7237      46.7237      46.7237 
  470000    128.33752   -10158.914   -9027.7146    -984.3011     102002.7      46.7237      46.7237      46.7237 
  471000    132.47047   -10159.011   -8991.3827   -922.16823     102002.7      46.7237      46.7237      46.7237 
  472000    127.56599   -10172.339   -9047.9398   -907.10662     102002.7      46.7237      46.7237      46.7237 
  473000    130.38561   -10148.465   -8999.2134   -697.07383     102002.7      46.7237      46.7237      46.7237 
  474000    131.19997   -10195.793   -9039.3632    -957.2141     102002.7      46.7237      46.7237      46.7237 
  475000    128.85504    -10169.48   -9033.7193   -676.44631     102002.7      46.7237      46.7237      46.7237 
  476000     129.5867   -10192.808   -9050.5982   -335.73876     102002.7      46.7237      46.7237      46.7237 
  477000    130.41988   -10171.963   -9022.4092   -724.18746     102002.7      46.7237      46.7237      46.7237 
  478000    132.16819   -10163.642   -8998.6782   -732.22568     102002.7      46.7237      46.7237      46.7237 
  479000    130.06467   -10174.509   -9028.0858   -992.51391     102002.7      46.7237      46.7237      46.7237 
  480000    132.56271   -10136.603   -8968.1611   -973.19127     102002.7      46.7237      46.7237      46.7237 
  481000    129.86121   -10156.548   -9011.9186   -901.25169     102002.7      46.7237      46.7237      46.7237 
  482000     128.1782   -10168.263   -9038.4681   -677.13418     102002.7      46.7237      46.7237      46.7237 
  483000    129.43349   -10155.408   -9014.5478   -577.60755     102002.7      46.7237      46.7237      46.7237 
  484000    126.10813   -10169.195   -9057.6461   -774.86769     102002.7      46.7237      46.7237      46.7237 
  485000    132.21969   -10175.932   -9010.5142   -1028.4314     102002.7      46.7237      46.7237      46.7237 
  486000    127.12902   -10170.389   -9049.8419   -1003.8504     102002.7      46.7237      46.7237      46.7237 
  487000    130.03414   -10143.895   -8997.7407   -1139.3367     102002.7      46.7237      46.7237      46.7237 
  488000    127.93114   -10130.411   -9002.7929   -620.80553     102002.7      46.7237      46.7237      46.7237 
  489000    129.01514   -10159.511   -9022.3384   -924.72435     102002.7      46.7237      46.7237      46.7237 
  490000    129.48671   -10131.917   -8990.5886   -507.46374     102002.7      46.7237      46.7237      46.7237 
  491000    131.20725   -10141.732   -8985.2381   -560.17354     102002.7      46.7237      46.7237      46.7237 
  492000    128.57807   -10170.158   -9036.8378   -533.58418     102002.7      46.7237      46.7237      46.7237 
  493000    131.57357   -10171.131    -9011.408     -793.646     102002.7      46.7237      46.7237      46.7237 
  494000    128.95153   -10170.249   -9033.6376   -691.77574     102002.7      46.7237      46.7237      46.7237 
  495000    130.28053   -10143.943   -8995.6167   -657.41348     102002.7      46.7237      46.7237      46.7237 
  496000     131.1432   -10158.014   -9002.0844   -738.74853     102002.7      46.7237      46.7237      46.7237 
  497000    127.69098   -10163.676   -9038.1749   -784.82137     102002.7      46.7237      46.7237      46.7237 
  498000    129.34392   -10158.903   -9018.8323   -490.73561     102002.7      46.7237      46.7237      46.7237 
  499000    129.83048   -10164.561   -9020.2023   -783.65964     102002.7      46.7237      46.7237      46.7237 
  500000    130.11693   -10172.229   -9025.3452   -896.43568     102002.7      46.7237      46.7237      46.7237 
  500500    131.45968   -10167.456   -9008.7367   -469.23365     102002.7      46.7237      46.7237      46.7237 
Loop time of 1842.47 on 16 procs for 500000 steps with 2958 atoms

Performance: 23.447 ns/day, 1.024 hours/ns, 271.374 timesteps/s
99.8% CPU use with 16 MPI tasks x no OpenMP threads

MPI task timing breakdown:
Section |  min time  |  avg time  |  max time  |%varavg| %total
---------------------------------------------------------------
Pair    | 746.78     | 1064.2     | 1377.1     | 693.0 | 57.76
Bond    | 142.49     | 174.59     | 207.67     | 205.6 |  9.48
Neigh   | 16.355     | 16.402     | 16.439     |   0.7 |  0.89
Comm    | 232.23     | 569.99     | 910.95     |1051.8 | 30.94
Output  | 0.02115    | 0.021579   | 0.025441   |   0.7 |  0.00
Modify  | 9.5159     | 10.621     | 11.635     |  21.7 |  0.58
Other   |            | 6.67       |            |       |  0.36

Nlocal:    184.875 ave 210 max 152 min
Histogram: 1 0 2 2 1 2 3 1 2 2
Nghost:    3781.88 ave 3829 max 3748 min
Histogram: 4 2 0 1 2 2 3 1 0 1
Neighs:    11465.4 ave 16986 max 5475 min
Histogram: 2 1 3 1 1 0 2 1 2 3

Total # of neighbors = 183447
Ave neighs/atom = 62.0172
Ave special neighs/atom = 3.89452
Neighbor list builds = 5219
Dangerous builds = 0
Neighbor list info ...
  update every 1 steps, delay 10 steps, check yes
  max neighbors/atom: 2000, page size: 100000
  master list distance cutoff = 16
  ghost atom cutoff = 16
  binsize = 8, bins = 6 6 6
  3 neighbor lists, perpetual/occasional/extra = 3 0 0
  (1) pair buck6d/coul/gauss/dsf, perpetual, skip from (3)
      attributes: half, newton on
      pair build: skip
      stencil: none
      bin: none
  (2) pair lj/cut, perpetual, skip from (3)
      attributes: half, newton on
      pair build: skip
      stencil: none
      bin: none
  (3) neighbor class addition, perpetual
      attributes: half, newton on
      pair build: half/bin/newton
      stencil: half/bin/3d/newton
      bin: standard
Setting up Verlet run ...
  Unit style    : real
  Current step  : 500500
  Time step     : 1
WARNING: Inconsistent image flags (../domain.cpp:786)
Per MPI rank memory allocation (min/avg/max) = 22.77 | 23.33 | 23.42 Mbytes
Step Time TotEng KinEng PotEng E_mol E_pair Temp Pxx Pyy Pzz Pxy Pxz Pyz Cella Cellb Cellc CellAlpha CellBeta CellGamma Volume Press 
  500500       500000   -9008.7367    1158.7192   -10167.456    4386.3875   -14553.843    131.45968   -452.22857   -280.44814   -675.02424    137.99441    95.887176    41.346222      46.7237      46.7237      46.7237           90           90           90     102002.7   -469.23365 
  501000       500500   -9034.9632    1134.0298   -10168.993    4352.5546   -14521.548    128.65861   -548.32801   -545.97396    -616.8197    20.608845   -169.26785   -56.112956      46.7237      46.7237      46.7237           90           90           90     102002.7   -570.37389 
  502000       501500   -8955.9231    1206.1921   -10162.115    4367.3627   -14529.478    136.84561   -606.64528   -762.33084   -648.00606    146.48624   -119.81756   -130.83959      46.7237      46.7237      46.7237           90           90           90     102002.7   -672.32739 
  503000       502500   -8978.6994     1177.817   -10156.516    4373.6178   -14530.134    133.62638   -863.22204   -530.53766   -851.28437    72.629196    153.13723   -269.69467      46.7237      46.7237      46.7237           90           90           90     102002.7   -748.34802 
  504000       503500   -9029.4215    1123.9118   -10153.333    4382.8463    -14536.18    127.51069   -224.59742   -220.09176   -266.69357    160.61079    30.814113    3.1528913      46.7237      46.7237      46.7237           90           90           90     102002.7   -237.12759 
  505000       504500   -8984.1818    1160.9318   -10145.114    4363.5917   -14508.705    131.71071   -549.53827   -1003.6258   -613.46414    -105.2741     41.47086   -235.30474      46.7237      46.7237      46.7237           90           90           90     102002.7    -722.2094 
  506000       505500   -9032.3369    1118.6499   -10150.987    4384.8628    -14535.85    126.91371   -902.94075   -660.42643   -1257.1545   -276.18855    17.908857    55.754561      46.7237      46.7237      46.7237           90           90           90     102002.7   -940.17389 
  507000       506500   -9031.2857    1122.8007   -10154.086    4356.8249   -14510.911    127.38464   -1061.6387   -429.52508   -912.38155   -25.174827    287.84103   -34.457676      46.7237      46.7237      46.7237           90           90           90     102002.7   -801.18179 
  508000       507500   -8986.7888    1151.8023   -10138.591    4393.4398   -14532.031    130.67494   -1359.1198   -937.27591    -1352.509     192.7446    -307.6705   -37.257942      46.7237      46.7237      46.7237           90           90           90     102002.7   -1216.3016 
  509000       508500   -8931.0182    1184.4736   -10115.492    4400.0281    -14515.52    134.38159   -705.82716   -661.57698   -1096.5775     94.59595   -214.00366   -177.00134      46.7237      46.7237      46.7237           90           90           90     102002.7   -821.32722 
  510000       509500   -9016.9416    1162.8021   -10179.744    4354.0847   -14533.828     131.9229   -987.42743   -957.81967   -712.73833    81.207829    167.12869    166.26944      46.7237      46.7237      46.7237           90           90           90     102002.7   -885.99514 
  511000       510500   -9037.4959    1130.2155   -10167.711    4369.3925   -14537.104    128.22587   -1509.3826   -774.00177   -944.41809    112.50611   -14.048378   -41.351123      46.7237      46.7237      46.7237           90           90           90     102002.7   -1075.9341 
  512000       511500   -8964.2974    1183.5827    -10147.88    4398.4911   -14546.371    134.28051   -1158.4884   -1025.0911   -628.37275   -261.22759    270.32199    25.505729      46.7237      46.7237      46.7237           90           90           90     102002.7    -937.3174 
  513000       512500   -9005.5412    1163.6014   -10169.143    4374.4076    -14543.55    132.01358    -1222.433   -899.56624    -1059.776   -547.16448   -86.173094   -59.288251      46.7237      46.7237      46.7237           90           90           90     102002.7   -1060.5918 
  514000       513500   -9034.8895    1129.7732   -10164.663    4387.7408   -14552.403    128.17568   -396.74743   -1263.9193   -834.91231   -92.639577    95.209855     219.6993      46.7237      46.7237      46.7237           90           90           90     102002.7   -831.85967 
  515000       514500   -9034.9558     1127.986   -10162.942    4375.1113   -14538.053    127.97292   -1233.3683   -925.99152    98.869507   -129.28775    17.949883    74.025976      46.7237      46.7237      46.7237           90           90           90     102002.7   -686.83011 
  516000       515500   -9011.5481    1178.6191   -10190.167    4335.6937   -14525.861    133.71738   -1198.7956   -715.67189   -835.24086   -391.45971    175.56953    65.228758      46.7237      46.7237      46.7237           90           90           90     102002.7   -916.56944 
  517000       516500   -9017.6145     1136.957   -10154.571    4362.7489    -14517.32    128.99071   -1220.4046   -940.72765    -391.5344    378.50847   -15.335858    -278.0182      46.7237      46.7237      46.7237           90           90           90     102002.7   -850.88888 
  518000       517500     -9024.93    1121.6891   -10146.619    4377.5625   -14524.182    127.25852   -791.29646   -828.79794   -742.32627    14.901956    98.434254   -313.24548      46.7237      46.7237      46.7237           90           90           90     102002.7   -787.47355 
  519000       518500   -8990.1262     1149.682   -10139.808    4367.3203   -14507.128    130.43439   -903.07645   -1289.1396   -1060.9674     36.29556   -88.392823    303.92813      46.7237      46.7237      46.7237           90           90           90     102002.7   -1084.3945 
  520000       519500   -8989.1683    1150.8175   -10139.986    4372.0735   -14512.059    130.56321   -769.33448   -1065.0987   -1009.0201    138.46938     9.095471   -161.76415      46.7237      46.7237      46.7237           90           90           90     102002.7   -947.81777 
  521000       520500   -9022.3187    1105.6587   -10127.977    4373.2875   -14501.265    125.43983   -892.69002   -774.94015   -993.00326   -38.943272   -7.7603167   -76.345646      46.7237      46.7237      46.7237           90           90           90     102002.7   -886.87781 
  522000       521500   -9039.9413    1123.6253   -10163.567    4353.4714   -14517.038    127.47818    -534.6843    -378.1541   -570.50364   -307.61183   -120.98403   -80.335151      46.7237      46.7237      46.7237           90           90           90     102002.7   -494.44735 
  523000       522500   -9025.4216    1144.7838   -10170.205     4368.228   -14538.433    129.87867   -603.56066     -640.526   -230.68612   -151.52271    126.48275    59.727233      46.7237      46.7237      46.7237           90           90           90     102002.7   -491.59093 
  524000       523500   -8949.3628    1173.1064   -10122.469    4386.2854   -14508.755    133.09195   -527.69695   -1295.9128   -861.89264    141.40364    131.49745   -41.118514      46.7237      46.7237      46.7237           90           90           90     102002.7   -895.16745 
  525000       524500   -9026.3838    1125.1724   -10151.556    4383.4034    -14534.96    127.65371   -680.69209   -217.33213   -487.19879   -119.45908   -274.97582     -94.4717      46.7237      46.7237      46.7237           90           90           90     102002.7     -461.741 
  526000       525500   -9019.3747    1154.8877   -10174.262    4351.3793   -14525.642    131.02499   -826.24161    -878.8765   -1078.2121   -67.109914    34.822961     122.9201      46.7237      46.7237      46.7237           90           90           90     102002.7   -927.77675 
  527000       526500   -9056.3256    1119.1804   -10175.506    4356.9081   -14532.414     126.9739   -660.61997   -842.90714   -605.93419   -2.4120063   -43.966544   -272.94107      46.7237      46.7237      46.7237           90           90           90     102002.7   -703.15377 
  528000       527500   -9001.4919    1157.5619   -10159.054      4365.37   -14524.424    131.32838   -686.92489    -815.4276   -393.81396    158.40581   -67.818683    250.50303      46.7237      46.7237      46.7237           90           90           90     102002.7   -632.05548 
  529000       528500   -9020.6309    1131.5596    -10152.19    4383.9617   -14536.152    128.37835   -656.32823   -469.47489   -500.07159   -68.612694    193.77564   -55.503747      46.7237      46.7237      46.7237           90           90           90     102002.7   -541.95824 
  530000       529500     -9019.69    1135.7461   -10155.436    4348.7287   -14504.165    128.85332   -490.31627   -1366.7968   -220.14735    18.009186   -71.093548    120.44743      46.7237      46.7237      46.7237           90           90           90     102002.7   -692.42015 
  531000       530500   -9030.4882    1157.2571   -10187.745    4352.2224   -14539.968    131.29381     -1334.46   -1222.1732   -701.63219    308.17117   -159.19638    12.268193      46.7237      46.7237      46.7237           90           90           90     102002.7   -1086.0885 
  532000       531500   -8999.7506    1133.4912   -10133.242     4399.332   -14532.574     128.5975     -449.668   -782.03558   -810.87113   -224.80695    54.318309   -127.11464      46.7237      46.7237      46.7237           90           90           90     102002.7   -680.85824 
  533000       532500   -9033.1482    1124.4146   -10157.563    4384.2754   -14541.838    127.56774   -800.91435   -417.26232   -912.23599      -220.07   -180.73258    193.91231      46.7237      46.7237      46.7237           90           90           90     102002.7   -710.13755 
  534000       533500    -8975.871    1163.7932   -10139.664    4396.5981   -14536.262    132.03534   -931.65943   -1210.3775   -960.13227   -67.430869    157.85054   -2.1964282      46.7237      46.7237      46.7237           90           90           90     102002.7   -1034.0564 
  535000       534500   -9033.5161    1156.4627   -10189.979    4350.2821   -14540.261    131.20368   -1015.0295   -530.67899    -1165.214    328.24315    -81.92665   -57.852132      46.7237      46.7237      46.7237           90           90           90     102002.7   -903.64084 
  536000       535500   -9008.3653    1148.8741   -10157.239    4368.0791   -14525.319    130.34272   -93.817712   -750.53167   -558.58433    154.84268    180.47114    173.35249      46.7237      46.7237      46.7237           90           90           90     102002.7   -467.64457 
  537000       536500    -9037.545    1134.8841   -10172.429    4349.1666   -14521.596    128.75553    -665.2923   -935.43125   -342.75955   -151.49356   -394.11185   -59.962362      46.7237      46.7237      46.7237           90           90           90     102002.7    -647.8277 
  538000       537500   -9018.2723    1152.1062   -10170.379    4357.1441   -14527.523    130.70942   -427.90398   -1005.2283   -895.30899    26.437903   -216.02348     -9.04316      46.7237      46.7237      46.7237           90           90           90     102002.7   -776.14709 
  539000       538500   -8987.5792    1183.7052   -10171.284    4366.7021   -14537.987    134.29441   -796.39866   -1070.5472   -915.25836   -94.945531   -20.459702   -35.888591      46.7237      46.7237      46.7237           90           90           90     102002.7   -927.40142 
  540000       539500   -9007.3871    1143.1731    -10150.56    4394.3419   -14544.902    129.69593   -717.40978   -607.70367   -1166.9438   -68.268019   -274.09336   -115.28391      46.7237      46.7237      46.7237           90           90           90     102002.7   -830.68574 
  541000       540500   -9026.6536    1136.3164    -10162.97    4384.0729   -14547.043    128.91803   -618.35315   -1038.5879   -1116.7195    95.885873    50.804219    -96.64102      46.7237      46.7237      46.7237           90           90           90     102002.7   -924.55351 
  542000       541500   -9008.6494    1138.7997   -10147.449    4377.3841   -14524.833    129.19976   -961.28423   -868.33884   -1424.8751   -9.8185274    98.506939    18.823458      46.7237      46.7237      46.7237           90           90           90     102002.7   -1084.8327 
  543000       542500   -8999.4951    1137.8033   -10137.298    4383.4386   -14520.737    129.08672   -1215.6869   -795.90636   -439.34966   -88.988464    348.66426    -85.68281      46.7237      46.7237      46.7237           90           90           90     102002.7   -816.98099 
  544000       543500   -9052.9913    1111.9253   -10164.917    4344.2792   -14509.196    126.15079    -681.9786   -821.83052   -964.21736    2.7313219    6.0440227    363.63673      46.7237      46.7237      46.7237           90           90           90     102002.7   -822.67549 
  545000       544500   -9018.4812    1141.7305   -10160.212    4377.9169   -14538.129    129.53227   -697.55005   -450.87227   -685.40378    100.98832    302.92706   -162.46858      46.7237      46.7237      46.7237           90           90           90     102002.7   -611.27536 
  546000       545500   -9006.7806    1125.9282   -10132.709    4393.4262   -14526.135    127.73946   -752.23059   -760.50715   -638.02225    -133.5411   -119.14011    -206.9133      46.7237      46.7237      46.7237           90           90           90     102002.7      -716.92 
  547000       546500   -9018.3647    1124.5759   -10142.941    4382.2269   -14525.168    127.58604   -906.98466   -1168.3398   -554.94039   -350.30514    270.42773   -165.89217      46.7237      46.7237      46.7237           90           90           90     102002.7   -876.75494 
  548000       547500   -9004.6763    1160.8328   -10165.509    4392.7056   -14558.215    131.69948   -727.93821   -727.81727   -1042.8136   -131.23622    30.996534    149.64223      46.7237      46.7237      46.7237           90           90           90     102002.7   -832.85636 
  549000       548500   -8982.9829    1159.9086   -10142.891    4367.8178   -14510.709    131.59462   -843.67265   -746.98818    -718.5583    -84.00834   -97.619857   -75.929905      46.7237      46.7237      46.7237           90           90           90     102002.7   -769.73971 
  550000       549500   -8981.6157    1172.0548    -10153.67    4366.3602   -14520.031    132.97264   -834.04913   -718.82033   -724.59537    -165.9136    -247.9317    -168.0868      46.7237      46.7237      46.7237           90           90           90     102002.7   -759.15494 
  551000       550500   -8977.6814    1175.7388    -10153.42    4374.2408   -14527.661     133.3906   -563.14132   -795.03258   -428.43931     250.2194     82.86396    165.22393      46.7237      46.7237      46.7237           90           90           90     102002.7   -595.53774 
  552000       551500   -9007.2974    1149.4061   -10156.704    4376.9645   -14533.668    130.40309   -817.40921   -189.82439   -607.37384    161.57719    88.796765    187.82611      46.7237      46.7237      46.7237           90           90           90     102002.7   -538.20248 
  553000       552500   -8986.8895    1155.4068   -10142.296     4391.065   -14533.361    131.08388   -1084.8368   -339.87128   -991.46151    104.36612     61.44426   -7.7949534      46.7237      46.7237      46.7237           90           90           90     102002.7   -805.38988 
  554000       553500   -9013.0899    1139.6312   -10152.721    4378.7889    -14531.51     129.2941   -1058.2318   -1157.5895   -886.86735   -44.442779     100.1456    67.507188      46.7237      46.7237      46.7237           90           90           90     102002.7   -1034.2296 
  555000       554500   -9003.5653    1135.4733   -10139.039    4384.9863   -14524.025    128.82237   -937.66172   -1221.8102   -1093.2013    -142.4381    109.52548    36.259211      46.7237      46.7237      46.7237           90           90           90     102002.7   -1084.2244 
[...]
  936000       935500   -9001.1614    1136.6212   -10137.783    4383.2039   -14520.986     128.9526   -1134.3609   -687.36076   -503.23686     73.35366    233.35419    131.18387      46.7237      46.7237      46.7237           90           90           90     102002.7   -774.98618 
  937000       936500   -9011.0552     1153.687   -10164.742    4373.5817   -14538.324    130.88876   -655.91457   -938.84665   -359.91932    -213.3065   -11.488682    211.93981      46.7237      46.7237      46.7237           90           90           90     102002.7   -651.56018 
  938000       937500   -9042.2546    1135.1962   -10177.451    4372.2603   -14549.711    128.79093   -678.41353   -687.64277   -567.40683    208.53667    49.112775   -284.99682      46.7237      46.7237      46.7237           90           90           90     102002.7   -644.48771 
  939000       938500   -8996.3837    1161.4703   -10157.854    4353.0784   -14510.932     131.7718   -1009.5982   -795.84144   -844.48977     32.17293   -103.77652   -8.7999224      46.7237      46.7237      46.7237           90           90           90     102002.7    -883.3098 
  940000       939500   -9021.8861    1151.7235    -10173.61    4357.0528   -14530.662      130.666   -671.20266   -975.92855   -638.63175    -76.06647   -29.156673   -142.17834      46.7237      46.7237      46.7237           90           90           90     102002.7   -761.92099 
  941000       940500   -9037.6866    1116.9316   -10154.618    4381.7028   -14536.321    126.71877   -423.32501   -545.12342   -1212.3722    204.95626    110.48195   -154.41268      46.7237      46.7237      46.7237           90           90           90     102002.7    -726.9402 
  942000       941500   -9008.9262    1137.6976   -10146.624    4398.9126   -14545.536    129.07473   -778.65938   -710.74337   -687.86841   -173.32761   -52.566806    158.01679      46.7237      46.7237      46.7237           90           90           90     102002.7   -725.75705 
  943000       942500   -9015.0057    1153.6966   -10168.702    4396.2625   -14564.965    130.88986   -703.44447   -909.29754   -612.33621    164.31411    258.72466    102.72389      46.7237      46.7237      46.7237           90           90           90     102002.7   -741.69274 
  944000       943500   -9068.6337    1108.0606   -10176.694    4353.1546   -14529.849    125.71234    -679.9606   -1086.7735    -1083.345   -310.46638    177.92974     38.79908      46.7237      46.7237      46.7237           90           90           90     102002.7   -950.02636 
  945000       944500   -9033.1341    1141.8693   -10175.003    4349.8153   -14524.819    129.54802   -541.16813   -871.47474   -630.67175   -319.78471   -179.12807    21.427429      46.7237      46.7237      46.7237           90           90           90     102002.7   -681.10487 
  946000       945500   -9010.3275    1136.2823    -10146.61    4390.8093   -14537.419    128.91415   -1344.7387   -912.99792   -1502.0945    7.8011695   -186.37331    203.74743      46.7237      46.7237      46.7237           90           90           90     102002.7    -1253.277 
  947000       946500   -9055.8948    1110.3937   -10166.288    4402.3992   -14568.688    125.97703   -997.40795   -1073.3064   -561.06258    279.07559   -106.02741    -334.8173      46.7237      46.7237      46.7237           90           90           90     102002.7   -877.25897 
  948000       947500   -9013.1592    1159.6239   -10172.783    4359.6224   -14532.406    131.56232   -1048.2398   -554.26062   -1071.7834    85.714491    92.353935   -213.33586      46.7237      46.7237      46.7237           90           90           90     102002.7   -891.42794 
  949000       948500   -8991.4279     1169.868   -10161.296     4375.157   -14536.453    132.72454   -775.77997    -1097.282   -833.01439   -49.888618   -23.847526    52.899025      46.7237      46.7237      46.7237           90           90           90     102002.7   -902.02545 
  950000       949500   -8978.9504    1161.6606   -10140.611    4361.7025   -14502.314     131.7934   -420.22886    6.0295454   -639.72159   -49.812841   -161.89531    -197.6749      46.7237      46.7237      46.7237           90           90           90     102002.7   -351.30697 
  951000       950500   -9027.5587    1129.1136   -10156.672    4361.4234   -14518.096    128.10085    -830.8899   -1091.5589   -797.79784    234.94083    41.467891   -170.75222      46.7237      46.7237      46.7237           90           90           90     102002.7   -906.74889 
  952000       951500   -9023.5043    1139.7024   -10163.207    4381.6677   -14544.874    129.30218   -439.19401   -1029.5461   -1192.2135    68.426657   -70.375359    -41.27846      46.7237      46.7237      46.7237           90           90           90     102002.7   -886.98452 
  953000       952500   -9045.4306    1122.0129   -10167.443    4380.9677   -14548.411    127.29526   -1111.9428    -734.7408    -1029.262   -217.79781    239.34814   -89.463823      46.7237      46.7237      46.7237           90           90           90     102002.7   -958.64853 
  954000       953500   -9008.3808    1159.3067   -10167.687    4382.4558   -14550.143    131.52633   -747.67156   -1244.6837   -918.47754   -87.778057     27.77398   -171.76584      46.7237      46.7237      46.7237           90           90           90     102002.7   -970.27761 
  955000       954500   -8998.8569    1150.3426     -10149.2     4387.748   -14536.947    130.50934   -362.00332    -166.6974   -1063.0722   -64.119485   -41.669166   -11.400159      46.7237      46.7237      46.7237           90           90           90     102002.7   -530.59098 
  956000       955500   -9004.8304    1146.3756   -10151.206    4351.6069   -14502.813    130.05926   -1062.8997   -503.00162   -254.47192    -159.0221   -177.56676   -119.15305      46.7237      46.7237      46.7237           90           90           90     102002.7   -606.79108 
  957000       956500   -8990.0914    1174.0113   -10164.103    4364.2134   -14528.316    133.19461   -558.61468   -604.13254   -445.54179     24.76501    265.15381    316.00357      46.7237      46.7237      46.7237           90           90           90     102002.7   -536.09634 
  958000       957500   -9041.4904    1124.1115   -10165.602    4364.7984     -14530.4    127.53335   -1313.6011   -904.34555   -753.42893    271.42102   -345.70621    121.91697      46.7237      46.7237      46.7237           90           90           90     102002.7   -990.45851 
  959000       958500   -8966.4287    1157.6942   -10124.123    4410.3095   -14534.433     131.3434   -1056.2586   -868.69654   -1240.3403    260.21117   -263.37366    -43.20562      46.7237      46.7237      46.7237           90           90           90     102002.7   -1055.0985 
  960000       959500   -8995.6834    1151.6427   -10147.326    4378.0599   -14525.386    130.65683   -688.30523   -760.78904   -633.64021   -282.64944    54.676236   -253.00616      46.7237      46.7237      46.7237           90           90           90     102002.7   -694.24483 
  961000       960500   -8997.2936    1153.5783   -10150.872    4375.0457   -14525.918    130.87643   -686.46399   -799.39613   -534.74257    152.94002    40.030398    16.219206      46.7237      46.7237      46.7237           90           90           90     102002.7   -673.53423 
  962000       961500   -8992.6094    1154.7617   -10147.371    4397.0888    -14544.46     131.0107    -662.5633   -1092.4208   -666.87979   -230.78218   -396.73933    220.27038      46.7237      46.7237      46.7237           90           90           90     102002.7   -807.28795 
  963000       962500    -8977.581    1140.8857   -10118.467    4406.7353   -14525.202    129.43643   -677.78035   -522.76431   -520.96021    45.086142    93.314237   -39.351518      46.7237      46.7237      46.7237           90           90           90     102002.7   -573.83496 
  964000       963500   -9038.6692    1128.5864   -10167.256    4355.8113   -14523.067    128.04104   -1191.7199   -907.26234   -1210.6781   -240.30664    106.46222   -225.21347      46.7237      46.7237      46.7237           90           90           90     102002.7   -1103.2201 
  965000       964500    -9005.757    1153.3972   -10159.154    4359.4843   -14518.638    130.85589   -894.28064   -939.26839   -1363.0931    457.79284    67.595863   -81.725056      46.7237      46.7237      46.7237           90           90           90     102002.7   -1065.5474 
  966000       965500   -9026.0801    1124.7192   -10150.799     4379.048   -14529.847     127.6023   -761.40185    -1079.038   -886.76862    83.187655    141.22763    195.82204      46.7237      46.7237      46.7237           90           90           90     102002.7   -909.06949 
  967000       966500   -8989.8103    1158.5383   -10148.349    4387.6394   -14535.988    131.43916   -1553.5544   -995.25733   -1252.5273   -55.313569   -93.518357    -113.4075      46.7237      46.7237      46.7237           90           90           90     102002.7    -1267.113 
  968000       967500   -9013.0214    1156.9269   -10169.948     4337.366   -14507.314    131.25634   -776.01334    -895.1197   -1545.4884   -272.95759    -61.67916   -88.134713      46.7237      46.7237      46.7237           90           90           90     102002.7   -1072.2072 
  969000       968500   -9041.3377     1121.579   -10162.917     4359.757   -14522.674    127.24603   -1352.7076   -922.69169    -1149.123    153.62063   -232.68297   -75.332506      46.7237      46.7237      46.7237           90           90           90     102002.7   -1141.5074 
  970000       969500   -8976.2073    1166.2766   -10142.484    4375.9147   -14518.399    132.31709    -848.1178   -743.53075    -707.5474   -21.068011   -108.05768    141.81674      46.7237      46.7237      46.7237           90           90           90     102002.7   -766.39865 
  971000       970500   -8993.2669    1166.8485   -10160.115    4368.1548    -14528.27    132.38197   -1252.6986    -1245.111   -825.28242    89.735534   -246.33147    218.35461      46.7237      46.7237      46.7237           90           90           90     102002.7   -1107.6974 
  972000       971500   -9063.9272    1113.6312   -10177.558    4388.3207   -14565.879    126.34434   -1257.2527   -844.16519   -1391.6258    236.53152   -250.39352    67.710173      46.7237      46.7237      46.7237           90           90           90     102002.7   -1164.3479 
  973000       972500   -8990.4877    1125.0885   -10115.576    4398.3346   -14513.911    127.64419   -537.98433   -1172.7734   -1138.1127   -42.730005   -289.91778   -205.98642      46.7237      46.7237      46.7237           90           90           90     102002.7   -949.62346 
  974000       973500   -8970.9547     1175.485    -10146.44    4366.8987   -14513.338    133.36181   -309.17222   -663.29884   -707.00931    253.90701    16.289876    115.13646      46.7237      46.7237      46.7237           90           90           90     102002.7   -559.82679 
  975000       974500   -8999.7672    1159.4184   -10159.186    4366.1077   -14525.293    131.53901    -839.8024   -1284.0168   -594.79333    163.60112   -96.498658    38.463821      46.7237      46.7237      46.7237           90           90           90     102002.7   -906.20418 
  976000       975500   -9019.0559    1150.5629   -10169.619    4363.4176   -14533.036    130.53432   -878.57332   -672.16871   -828.16599   -172.02574    307.47867    19.051962      46.7237      46.7237      46.7237           90           90           90     102002.7   -792.96934 
  977000       976500   -9001.6327    1136.5523   -10138.185    4379.3225   -14517.507    128.94479    -483.4522   -379.83015   -839.34381    38.644144   -95.399522   -65.858286      46.7237      46.7237      46.7237           90           90           90     102002.7   -567.54205 
  978000       977500   -9012.5945      1143.06   -10155.655    4358.9608   -14514.615    129.68311   -695.50119   -231.44139   -532.72509    159.44545   -371.64408    10.030814      46.7237      46.7237      46.7237           90           90           90     102002.7   -486.55589 
  979000       978500   -9083.5125     1105.765   -10189.278    4351.3824    -14540.66    125.45189    -1067.632   -172.66592   -736.60185      343.051    72.916433  -0.82532175      46.7237      46.7237      46.7237           90           90           90     102002.7   -658.96659 
  980000       979500   -8978.8141    1166.4722   -10145.286     4389.272   -14534.558    132.33928   -1199.7348    -637.5649   -836.38421    9.1436692   -123.28298   -204.05073      46.7237      46.7237      46.7237           90           90           90     102002.7   -891.22797 
  981000       980500   -9032.1378    1119.6597   -10151.797    4393.6812   -14545.479    127.02828   -1039.1105   -985.85404   -560.79547    43.103623   -74.281918     130.7493      46.7237      46.7237      46.7237           90           90           90     102002.7   -861.92001 
  982000       981500   -9015.2617    1125.3844   -10140.646    4392.0881   -14532.734    127.67776   -487.26432   -757.22069   -816.74714    37.935542    35.167324    -95.62081      46.7237      46.7237      46.7237           90           90           90     102002.7   -687.07738 
  983000       982500   -8981.7212    1172.5691    -10154.29    4385.4822   -14539.773    133.03099   -1104.0031    -925.3489   -703.98715    -63.21499    278.74355   -50.402883      46.7237      46.7237      46.7237           90           90           90     102002.7   -911.11305 
  984000       983500   -8996.4414    1149.0016   -10145.443    4378.4087   -14523.852     130.3572    -716.1654   -359.77711   -946.45911    13.068077    408.93175    -18.47181      46.7237      46.7237      46.7237           90           90           90     102002.7   -674.13387 
  985000       984500   -9034.6859    1136.0593   -10170.745    4369.3016   -14540.047    128.88886    -918.7428   -1277.9652   -574.42761      198.866    128.39947    -39.76589      46.7237      46.7237      46.7237           90           90           90     102002.7   -923.71186 
  986000       985500   -8999.1801    1154.0425   -10153.223    4374.2554   -14527.478     130.9291   -773.10518   -830.28047    -932.9134    14.488563     152.1358    162.56616      46.7237      46.7237      46.7237           90           90           90     102002.7   -845.43302 
  987000       986500   -9038.0172    1123.1963   -10161.213    4364.3852   -14525.599    127.42952   -456.43979   -1237.6161   -984.05537    24.057545   -88.687426   -128.55887      46.7237      46.7237      46.7237           90           90           90     102002.7   -892.70375 
  988000       987500   -9027.8307    1134.1325   -10161.963    4364.9848   -14526.948    128.67026   -877.28145      -735.43   -1050.9121   -11.502678   -7.8001822    89.429548      46.7237      46.7237      46.7237           90           90           90     102002.7   -887.87451 
  989000       988500   -9011.9082    1140.4567   -10152.365     4374.674   -14527.039    129.38776   -945.62837   -1530.4968   -1200.1663    203.30261   -309.10161   -99.046522      46.7237      46.7237      46.7237           90           90           90     102002.7   -1225.4305 
  990000       989500   -8962.1269    1157.7115   -10119.838    4382.0774   -14501.916    131.34536   -589.07812   -552.97156   -934.41239   -121.95938     162.9025    110.25134      46.7237      46.7237      46.7237           90           90           90     102002.7   -692.15402 
  991000       990500    -9015.199    1134.4512    -10149.65    4368.5804   -14518.231    128.70641   -709.81002   -1136.9717   -554.69116    267.92161    149.01926    23.955043      46.7237      46.7237      46.7237           90           90           90     102002.7   -800.49095 
  992000       991500   -8969.2503    1151.1676   -10120.418    4405.5009   -14525.919    130.60293   -681.31761    -1353.203   -434.42764   -62.153391    101.83122   -52.096332      46.7237      46.7237      46.7237           90           90           90     102002.7   -822.98275 
  993000       992500   -8973.9422    1162.9858   -10136.928    4391.4803   -14528.408    131.94374    -991.4234   -1094.0267   -1036.8338    56.726858    52.339904    26.584705      46.7237      46.7237      46.7237           90           90           90     102002.7   -1040.7613 
  994000       993500   -9010.8143    1146.0424   -10156.857    4378.3701   -14535.227    130.02147   -873.90329   -559.44416   -866.24308   -79.634316     44.55804    219.63125      46.7237      46.7237      46.7237           90           90           90     102002.7   -766.53018 
  995000       994500   -9031.6956    1149.5578   -10181.253    4360.3622   -14541.616     130.4203   -390.40946   -843.10025   -310.23146   -58.290614    -75.37215    219.22617      46.7237      46.7237      46.7237           90           90           90     102002.7   -514.58039 
  996000       995500   -8980.8059    1159.3433   -10140.149    4383.5058   -14523.655    131.53049   -651.98222   -782.40838   -1028.6145    73.889287   -171.23104    297.10155      46.7237      46.7237      46.7237           90           90           90     102002.7    -821.0017 
  997000       996500   -9069.5313    1119.5261   -10189.057    4352.9934   -14542.051    127.01313   -852.21016   -631.87722    -1085.117    102.73714   -47.946297   -254.72375      46.7237      46.7237      46.7237           90           90           90     102002.7   -856.40145 
  998000       997500   -9032.5571    1125.1097   -10157.667    4370.8851   -14528.552     127.6466   -595.13232   -846.78693   -649.78265   -276.94123   -133.19574    -155.9682      46.7237      46.7237      46.7237           90           90           90     102002.7   -697.23396 
  999000       998500   -9023.3597    1127.6245   -10150.984    4399.7418   -14550.726    127.93191   -1388.4642   -990.98866   -1053.8299    36.296491   -50.772806    210.87224      46.7237      46.7237      46.7237           90           90           90     102002.7   -1144.4276 
 1000000       999500   -9047.0823    1112.8544   -10159.937    4386.5041   -14546.441     126.2562   -657.17713   -822.80675   -576.54957   -85.120975    15.583118    140.33792      46.7237      46.7237      46.7237           90           90           90     102002.7   -685.51115 
 1000500      1000000   -8995.5764    1160.2409   -10155.817    4381.7873   -14537.605    131.63232   -1087.9419   -777.45645   -1148.7301     6.898445    171.47604    235.32869      46.7237      46.7237      46.7237           90           90           90     102002.7   -1004.7095 
Loop time of 2070.46 on 16 procs for 500000 steps with 2958 atoms

Performance: 20.865 ns/day, 1.150 hours/ns, 241.492 timesteps/s
99.8% CPU use with 16 MPI tasks x no OpenMP threads

MPI task timing breakdown:
Section |  min time  |  avg time  |  max time  |%varavg| %total
---------------------------------------------------------------
Pair    | 1146.1     | 1323.2     | 1459.8     | 225.4 | 63.91
Bond    | 159.32     | 183.84     | 207.8      | 150.0 |  8.88
Neigh   | 16.158     | 16.211     | 16.262     |   0.8 |  0.78
Comm    | 396.97     | 516.31     | 675.17     | 322.8 | 24.94
Output  | 0.12573    | 0.13219    | 0.13274    |   0.5 |  0.01
Modify  | 23.749     | 24.366     | 25.155     |   7.8 |  1.18
Other   |            | 6.438      |            |       |  0.31

Nlocal:    184.875 ave 241 max 134 min
Histogram: 1 0 5 1 2 1 3 1 1 1
Nghost:    3763.19 ave 3817 max 3702 min
Histogram: 1 0 2 1 2 3 3 3 0 1
Neighs:    11463.5 ave 15742 max 6728 min
Histogram: 1 0 0 2 6 3 0 2 1 1

Total # of neighbors = 183416
Ave neighs/atom = 62.0068
Ave special neighs/atom = 3.89452
Neighbor list builds = 5197
Dangerous builds = 0
Total wall time: 1:05:17
