LAMMPS (30 Mar 2018)
Reading data file ...
  orthogonal box = (0 0 0) to (46.7237 46.7237 46.7237)
  2 by 2 by 4 MPI processor grid
  reading atoms ...
  3027 atoms
  scanning bonds ...
  5 = max bonds/atom
  scanning angles ...
  10 = max angles/atom
  scanning dihedrals ...
  32 = max dihedrals/atom
  scanning impropers ...
  3 = max impropers/atom
  reading bonds ...
  2064 bonds
  reading angles ...
  3696 angles
  reading dihedrals ...
  6240 dihedrals
  reading impropers ...
  1008 impropers
Finding 1-2 1-3 1-4 neighbors ...
  special bond factors lj:   0          0          0         
  special bond factors coul: 0          0          0         
  5 = max # of 1-2 neighbors
  8 = max # of 1-3 neighbors
  20 = max # of 1-4 neighbors
  19 = max # of special neighbors
Finding 1-2 1-3 1-4 neighbors ...
  special bond factors lj:   0          0          1         
  special bond factors coul: 1          1          1         
  5 = max # of 1-2 neighbors
  8 = max # of 1-3 neighbors
  19 = max # of special neighbors
WARNING: Using 'neigh_modify every 1 delay 0 check yes' setting during minimization (../min.cpp:168)
Neighbor list info ...
  update every 1 steps, delay 0 steps, check yes
  max neighbors/atom: 2000, page size: 100000
  master list distance cutoff = 16
  ghost atom cutoff = 16
  binsize = 8, bins = 6 6 6
  3 neighbor lists, perpetual/occasional/extra = 3 0 0
  (1) pair buck6d/coul/gauss/dsf, perpetual, skip from (3)
      attributes: half, newton on
      pair build: skip
      stencil: none
      bin: none
  (2) pair lj/cut, perpetual, skip from (3)
      attributes: half, newton on
      pair build: skip
      stencil: none
      bin: none
  (3) neighbor class addition, perpetual
      attributes: half, newton on
      pair build: half/bin/newton
      stencil: half/bin/3d/newton
      bin: standard
Setting up cg style minimization ...
  Unit style    : real
  Current step  : 0
WARNING: Inconsistent image flags (../domain.cpp:786)
Per MPI rank memory allocation (min/avg/max) = 23 | 23.46 | 23.9 Mbytes
Step Temp E_pair E_mol TotEng Press 
       0            0   -14772.746    6482.8914   -8289.8543     5875.071 
     500            0   -15231.755    3725.0227   -11506.732   -1854.7689 
Loop time of 4.09297 on 16 procs for 500 steps with 3027 atoms

99.9% CPU use with 16 MPI tasks x no OpenMP threads

Minimization stats:
  Stopping criterion = max force evaluations
  Energy initial, next-to-last, final = 
        -8289.85425117       -11506.49995     -11506.7324179
  Force two-norm initial, final = 2575.39 21.6232
  Force max component initial, final = 152.098 4.30461
  Final line search alpha, max atom move = 0.00457493 0.0196933
  Iterations, force evaluations = 500 1000

MPI task timing breakdown:
Section |  min time  |  avg time  |  max time  |%varavg| %total
---------------------------------------------------------------
Pair    | 2.2932     | 2.7779     | 3.22       |  16.0 | 67.87
Bond    | 0.30344    | 0.36203    | 0.4446     |   6.3 |  8.85
Neigh   | 0.036778   | 0.036971   | 0.037317   |   0.1 |  0.90
Comm    | 0.42657    | 0.87174    | 1.3769     |  28.4 | 21.30
Output  | 0          | 0          | 0          |   0.0 |  0.00
Modify  | 0          | 0          | 0          |   0.0 |  0.00
Other   |            | 0.04431    |            |       |  1.08

Nlocal:    189.188 ave 212 max 160 min
Histogram: 1 1 1 0 3 4 1 2 1 2
Nghost:    3782.38 ave 3817 max 3738 min
Histogram: 1 1 1 1 2 4 1 2 0 3
Neighs:    11477 ave 16985 max 7613 min
Histogram: 3 1 2 2 1 2 3 1 0 1

Total # of neighbors = 183632
Ave neighs/atom = 60.6647
Ave special neighs/atom = 3.80575
Neighbor list builds = 12
Dangerous builds = 0
Neighbor list info ...
  update every 1 steps, delay 10 steps, check yes
  max neighbors/atom: 2000, page size: 100000
  master list distance cutoff = 16
  ghost atom cutoff = 16
  binsize = 8, bins = 6 6 6
  3 neighbor lists, perpetual/occasional/extra = 3 0 0
  (1) pair buck6d/coul/gauss/dsf, perpetual, skip from (3)
      attributes: half, newton on
      pair build: skip
      stencil: none
      bin: none
  (2) pair lj/cut, perpetual, skip from (3)
      attributes: half, newton on
      pair build: skip
      stencil: none
      bin: none
  (3) neighbor class addition, perpetual
      attributes: half, newton on
      pair build: half/bin/newton
      stencil: half/bin/3d/newton
      bin: standard
Setting up Verlet run ...
  Unit style    : real
  Current step  : 500
  Time step     : 1
WARNING: Inconsistent image flags (../domain.cpp:786)
Per MPI rank memory allocation (min/avg/max) = 22.65 | 22.73 | 22.97 Mbytes
Step Temp PotEng TotEng Press Volume Lx Ly Lz 
     500          130   -11506.732   -10334.141   -1329.2749     102002.7      46.7237      46.7237      46.7237 
    1000    112.42217   -10556.502   -9542.4614   -336.26599     102002.7      46.7237      46.7237      46.7237 
    2000    128.97999   -10377.555   -9214.1648   -645.17998     102002.7      46.7237      46.7237      46.7237 
    3000    133.81288   -10408.919   -9201.9364   -329.57059     102002.7      46.7237      46.7237      46.7237 
    4000    129.63225   -10404.525   -9235.2506   -259.50325     102002.7      46.7237      46.7237      46.7237 
    5000    132.80111   -10374.428   -9176.5715   -393.04144     102002.7      46.7237      46.7237      46.7237 
    6000    129.72963   -10379.346   -9209.1937   -252.84604     102002.7      46.7237      46.7237      46.7237 
    7000    130.78864   -10393.772   -9214.0679   -344.55287     102002.7      46.7237      46.7237      46.7237 
    8000    131.73234    -10395.73   -9207.5135   -511.55801     102002.7      46.7237      46.7237      46.7237 
    9000     131.8873   -10384.991   -9195.3762   -440.54492     102002.7      46.7237      46.7237      46.7237 
   10000    132.11547   -10399.718   -9208.0451    -647.4538     102002.7      46.7237      46.7237      46.7237 
   11000    129.20813   -10398.815   -9233.3668   -742.65094     102002.7      46.7237      46.7237      46.7237 
   12000    130.00094   -10396.964   -9224.3643   -762.03372     102002.7      46.7237      46.7237      46.7237 
   13000    129.36638   -10392.135   -9225.2587   -434.68929     102002.7      46.7237      46.7237      46.7237 
   14000    128.63084   -10402.296   -9242.0551   -623.46272     102002.7      46.7237      46.7237      46.7237 
   15000    127.72307   -10385.542   -9233.4889   -592.03617     102002.7      46.7237      46.7237      46.7237 
   16000    127.93828   -10375.912    -9221.918   -592.94783     102002.7      46.7237      46.7237      46.7237 
   17000    133.37051   -10387.037   -9184.0446   -473.01317     102002.7      46.7237      46.7237      46.7237 
   18000    134.04996   -10408.586   -9199.4643    -465.1199     102002.7      46.7237      46.7237      46.7237 
   19000    127.86245    -10390.93   -9237.6191   -544.74503     102002.7      46.7237      46.7237      46.7237 
   20000    128.20686   -10403.177   -9246.7601   -293.43611     102002.7      46.7237      46.7237      46.7237 
   21000    126.92078   -10408.787   -9263.9699   -492.77956     102002.7      46.7237      46.7237      46.7237 
   22000    131.37338   -10382.527   -9197.5481   -761.94403     102002.7      46.7237      46.7237      46.7237 
   23000    131.74737   -10393.295   -9204.9429   -696.43725     102002.7      46.7237      46.7237      46.7237 
   24000     131.4563   -10371.636   -9185.9088   -371.12782     102002.7      46.7237      46.7237      46.7237 
   25000    127.25631   -10378.462   -9230.6189   -353.63503     102002.7      46.7237      46.7237      46.7237 
   26000    131.58637   -10421.472   -9234.5721   -736.37595     102002.7      46.7237      46.7237      46.7237 
   27000    128.07176   -10414.342   -9259.1431   -684.72817     102002.7      46.7237      46.7237      46.7237 
   28000    132.90687   -10425.411   -9226.5999   -956.67849     102002.7      46.7237      46.7237      46.7237 
   29000    131.18983   -10368.538   -9185.2147    -569.6515     102002.7      46.7237      46.7237      46.7237 
   30000     128.3258   -10401.038    -9243.548   -138.27608     102002.7      46.7237      46.7237      46.7237 
   31000    134.95567   -10371.375    -9154.084   -425.39097     102002.7      46.7237      46.7237      46.7237 
   32000    133.16149   -10379.892    -9178.785   -685.87104     102002.7      46.7237      46.7237      46.7237 
   33000    129.50619   -10388.757     -9220.62    -902.7659     102002.7      46.7237      46.7237      46.7237 
   34000    125.57476   -10355.663   -9222.9868   -453.00468     102002.7      46.7237      46.7237      46.7237 
   35000     129.0423   -10358.113   -9194.1608   -527.29895     102002.7      46.7237      46.7237      46.7237 
   36000    129.02313   -10391.847   -9228.0677    -289.6924     102002.7      46.7237      46.7237      46.7237 
   37000     130.1541   -10384.196   -9210.2151   -82.545106     102002.7      46.7237      46.7237      46.7237 
   38000    128.16754   -10393.987   -9237.9244   -601.27667     102002.7      46.7237      46.7237      46.7237 
   39000    130.22804   -10381.638   -9206.9902   -851.15923     102002.7      46.7237      46.7237      46.7237 
   40000    131.35765    -10379.22   -9194.3829   -784.65964     102002.7      46.7237      46.7237      46.7237 
   41000    130.14534   -10366.644   -9192.7416   -565.19811     102002.7      46.7237      46.7237      46.7237 
   42000    128.73781   -10387.462   -9226.2562   -617.90188     102002.7      46.7237      46.7237      46.7237 
   43000    131.80308   -10376.533   -9187.6783   -647.49755     102002.7      46.7237      46.7237      46.7237 
   44000     127.5328   -10410.525   -9260.1877   -560.95242     102002.7      46.7237      46.7237      46.7237 
   45000    127.27915   -10394.399   -9246.3496   -657.17342     102002.7      46.7237      46.7237      46.7237 
   46000    133.40028    -10417.77   -9214.5085   -787.28087     102002.7      46.7237      46.7237      46.7237 
   47000    132.51304   -10401.942   -9206.6839   -992.20231     102002.7      46.7237      46.7237      46.7237 
   48000    133.48592   -10377.168   -9173.1339   -833.25551     102002.7      46.7237      46.7237      46.7237 
   49000    127.47266   -10385.783   -9235.9886   -619.15601     102002.7      46.7237      46.7237      46.7237 
   50000    125.64206   -10397.417   -9264.1341   -772.26215     102002.7      46.7237      46.7237      46.7237 
   51000    126.98799   -10385.963   -9240.5405   -317.21429     102002.7      46.7237      46.7237      46.7237 
   52000    130.54028   -10387.485   -9210.0203   -652.64091     102002.7      46.7237      46.7237      46.7237 
   53000     130.1358   -10408.804   -9234.9877    -559.7513     102002.7      46.7237      46.7237      46.7237 
   54000    129.28499   -10433.727   -9267.5857   -655.10091     102002.7      46.7237      46.7237      46.7237 
   55000    124.61876   -10344.061   -9220.0082   -671.93598     102002.7      46.7237      46.7237      46.7237 
   56000    130.21167   -10350.203    -9175.703   -433.45882     102002.7      46.7237      46.7237      46.7237 
   57000    128.46259   -10364.598   -9205.8745   -622.74618     102002.7      46.7237      46.7237      46.7237 
   58000      132.136    -10360.67   -9168.8128   -849.39107     102002.7      46.7237      46.7237      46.7237 
   59000    132.18165   -10394.333   -9202.0634   -622.91399     102002.7      46.7237      46.7237      46.7237 
   60000    124.62552   -10361.592   -9237.4785   -482.83284     102002.7      46.7237      46.7237      46.7237 
   61000    126.70257   -10390.428   -9247.5799   -586.22696     102002.7      46.7237      46.7237      46.7237 
   62000    127.62041   -10387.966   -9236.8387   -5.9958111     102002.7      46.7237      46.7237      46.7237 
   63000    129.05716   -10388.119   -9224.0324   -728.31105     102002.7      46.7237      46.7237      46.7237 
   64000    130.13204   -10405.389    -9231.607   -444.61747     102002.7      46.7237      46.7237      46.7237 
   65000    130.91999   -10411.951   -9231.0613   -357.65035     102002.7      46.7237      46.7237      46.7237 
   66000    134.07668    -10388.28   -9178.9172   -803.82264     102002.7      46.7237      46.7237      46.7237 
   67000     129.3692   -10385.843   -9218.9417    -690.8142     102002.7      46.7237      46.7237      46.7237 
   68000    127.31505   -10416.939    -9268.566   -666.76493     102002.7      46.7237      46.7237      46.7237 
   69000     129.6074   -10381.525   -9212.4757   -864.20789     102002.7      46.7237      46.7237      46.7237 
   70000    130.01502   -10390.542   -9217.8157   -594.55485     102002.7      46.7237      46.7237      46.7237 
   71000     130.4445   -10400.686   -9224.0852   -559.34277     102002.7      46.7237      46.7237      46.7237 
   72000    131.20278   -10391.128   -9207.6878   -855.21176     102002.7      46.7237      46.7237      46.7237 
   73000    130.38258   -10417.305   -9241.2629   -705.07044     102002.7      46.7237      46.7237      46.7237 
   74000    129.28797   -10389.067   -9222.8985   -400.45677     102002.7      46.7237      46.7237      46.7237 
   75000    131.52177   -10415.196   -9228.8785   -588.66351     102002.7      46.7237      46.7237      46.7237 
   76000    130.19027   -10400.957   -9226.6498   -525.99325     102002.7      46.7237      46.7237      46.7237 
   77000    132.44682   -10396.218   -9201.5566   -271.15096     102002.7      46.7237      46.7237      46.7237 
   78000    130.98261   -10383.902   -9202.4475   -188.00918     102002.7      46.7237      46.7237      46.7237 
   79000    128.26806   -10399.659   -9242.6904   -386.69487     102002.7      46.7237      46.7237      46.7237 
   80000    131.65819   -10397.129    -9209.581   -786.21521     102002.7      46.7237      46.7237      46.7237 
   81000    127.88559   -10400.092   -9246.5729   -539.71209     102002.7      46.7237      46.7237      46.7237 
   82000    130.69506   -10400.353   -9221.4928   -518.22511     102002.7      46.7237      46.7237      46.7237 
   83000    132.60528   -10408.033   -9211.9426   -558.57814     102002.7      46.7237      46.7237      46.7237 
   84000    129.13822   -10381.912   -9217.0943   -312.49209     102002.7      46.7237      46.7237      46.7237 
   85000     129.3823   -10390.894   -9223.8744   -815.25485     102002.7      46.7237      46.7237      46.7237 
   86000    129.92254   -10383.313   -9211.4208   -614.45894     102002.7      46.7237      46.7237      46.7237 
   87000    126.35528   -10403.498   -9263.7822   -719.93754     102002.7      46.7237      46.7237      46.7237 
   88000     131.9951   -10401.368   -9210.7813   -759.64418     102002.7      46.7237      46.7237      46.7237 
   89000    127.91449   -10429.507   -9275.7267   -890.39819     102002.7      46.7237      46.7237      46.7237 
   90000    129.59354   -10402.367   -9233.4421   -536.11718     102002.7      46.7237      46.7237      46.7237 
   91000    134.37686   -10377.263   -9165.1934   -541.23053     102002.7      46.7237      46.7237      46.7237 
   92000    125.77733   -10380.022   -9245.5189   -599.16169     102002.7      46.7237      46.7237      46.7237 
   93000     128.6499   -10359.017   -9198.6037   -766.00925     102002.7      46.7237      46.7237      46.7237 
   94000    128.07547   -10374.343    -9219.111   -404.12482     102002.7      46.7237      46.7237      46.7237 
   95000    134.52832   -10388.095   -9174.6584   -522.40975     102002.7      46.7237      46.7237      46.7237 
   96000    132.25057   -10393.611   -9200.7195    -449.3098     102002.7      46.7237      46.7237      46.7237 
   97000    127.11687   -10415.561   -9268.9754   -493.96029     102002.7      46.7237      46.7237      46.7237 
   98000    127.57966   -10403.204    -9252.444   -832.67047     102002.7      46.7237      46.7237      46.7237 
   99000    127.88007   -10380.384   -9226.9147   -620.57687     102002.7      46.7237      46.7237      46.7237 
  100000    127.35987   -10384.281   -9235.5034   -472.91586     102002.7      46.7237      46.7237      46.7237 
  101000    128.62947   -10422.388   -9262.1594   -770.95516     102002.7      46.7237      46.7237      46.7237 
  102000      128.063   -10362.942   -9207.8228   -648.04451     102002.7      46.7237      46.7237      46.7237 
  103000    127.27462    -10387.76   -9239.7512   -454.37518     102002.7      46.7237      46.7237      46.7237 
  104000    133.27936    -10403.63   -9201.4595   -327.01886     102002.7      46.7237      46.7237      46.7237 
  105000    128.57706   -10367.628   -9207.8716   -444.50749     102002.7      46.7237      46.7237      46.7237 
  106000    133.13304   -10405.548   -9204.6967   -526.74933     102002.7      46.7237      46.7237      46.7237 
  107000    131.22405   -10370.805   -9187.1731   -564.37267     102002.7      46.7237      46.7237      46.7237 
  108000    130.28075   -10392.638   -9217.5145   -758.22905     102002.7      46.7237      46.7237      46.7237 
  109000    127.67947   -10367.597   -9215.9373    -400.6639     102002.7      46.7237      46.7237      46.7237 
  110000    131.81489   -10399.861   -9210.8999   -557.67696     102002.7      46.7237      46.7237      46.7237 
  111000    129.83737   -10392.023   -9220.8986   -802.99324     102002.7      46.7237      46.7237      46.7237 
  112000     129.8884   -10379.547   -9207.9628   -666.05729     102002.7      46.7237      46.7237      46.7237 
  113000    129.61894    -10429.16   -9260.0061   -599.99476     102002.7      46.7237      46.7237      46.7237 
  114000    130.43811   -10374.936   -9198.3927   -584.22564     102002.7      46.7237      46.7237      46.7237 
  115000    128.70062   -10400.842   -9239.9709   -606.38375     102002.7      46.7237      46.7237      46.7237 
  116000    125.26923   -10401.339   -9271.4191   -832.43305     102002.7      46.7237      46.7237      46.7237 
  117000    132.36001   -10384.673   -9190.7945   -716.12157     102002.7      46.7237      46.7237      46.7237 
  118000    128.31959    -10372.62   -9215.1861   -1026.7654     102002.7      46.7237      46.7237      46.7237 
  119000     127.4443   -10377.274    -9227.735    -872.9522     102002.7      46.7237      46.7237      46.7237 
  120000    130.46663   -10388.851   -9212.0515   -568.83223     102002.7      46.7237      46.7237      46.7237 
  121000    132.87207    -10396.75   -9198.2527   -302.45439     102002.7      46.7237      46.7237      46.7237 
  122000    128.99838   -10385.249   -9221.6926   -734.74168     102002.7      46.7237      46.7237      46.7237 
  123000    130.44335   -10379.325   -9202.7345   -472.37939     102002.7      46.7237      46.7237      46.7237 
  124000    131.58392   -10384.594   -9197.7156   -765.80774     102002.7      46.7237      46.7237      46.7237 
  125000    128.34999   -10372.728   -9215.0203   -849.75291     102002.7      46.7237      46.7237      46.7237 
  126000    128.41934   -10372.938   -9214.6045    -837.0161     102002.7      46.7237      46.7237      46.7237 
  127000    129.91431   -10397.217   -9225.3989   -627.17919     102002.7      46.7237      46.7237      46.7237 
  128000    130.75199   -10359.144   -9179.7701   -488.80698     102002.7      46.7237      46.7237      46.7237 
  129000    131.18427   -10410.083   -9226.8101   -550.17823     102002.7      46.7237      46.7237      46.7237 
  130000    128.49963   -10390.455   -9231.3974   -830.73499     102002.7      46.7237      46.7237      46.7237 
  131000    131.02025   -10411.895   -9230.1011   -832.88782     102002.7      46.7237      46.7237      46.7237 
  132000    130.07312   -10408.841   -9235.5905   -473.74436     102002.7      46.7237      46.7237      46.7237 
  133000    129.38437   -10357.787   -9190.7484   -553.87101     102002.7      46.7237      46.7237      46.7237 
  134000    130.83816   -10394.807   -9214.6556   -656.26457     102002.7      46.7237      46.7237      46.7237 
  135000    130.80429   -10367.317   -9187.4717   -729.15525     102002.7      46.7237      46.7237      46.7237 
  136000    129.68789    -10375.96   -9206.1845   -489.53678     102002.7      46.7237      46.7237      46.7237 
  137000    130.30472   -10403.981   -9228.6409   -578.30557     102002.7      46.7237      46.7237      46.7237 
  138000    129.15534   -10386.042   -9221.0695   -545.91002     102002.7      46.7237      46.7237      46.7237 
  139000    130.43834   -10389.199   -9212.6546   -638.74744     102002.7      46.7237      46.7237      46.7237 
  140000    130.35022    -10417.58   -9241.8299   -700.58689     102002.7      46.7237      46.7237      46.7237 
  141000     129.7656   -10376.549   -9206.0721   -645.38946     102002.7      46.7237      46.7237      46.7237 
  142000    131.20617    -10397.22   -9213.7496   -443.57164     102002.7      46.7237      46.7237      46.7237 
  143000     133.7189   -10374.487    -9168.352    64.122166     102002.7      46.7237      46.7237      46.7237 
  144000    128.10594   -10380.924   -9225.4175   -431.48778     102002.7      46.7237      46.7237      46.7237 
  145000    131.07348    -10374.61   -9192.3364    -927.3847     102002.7      46.7237      46.7237      46.7237 
  146000    127.53438   -10387.346   -9236.9951   -717.80692     102002.7      46.7237      46.7237      46.7237 
  147000    132.69123   -10391.433   -9194.5669   -520.70055     102002.7      46.7237      46.7237      46.7237 
  148000    130.74576   -10410.744   -9231.4265   -511.78255     102002.7      46.7237      46.7237      46.7237 
  149000    130.16006   -10364.758   -9190.7229   -930.80007     102002.7      46.7237      46.7237      46.7237 
  150000    127.86853    -10395.28   -9241.9148   -387.87009     102002.7      46.7237      46.7237      46.7237 
  151000    129.67336   -10390.393   -9220.7478   -545.09162     102002.7      46.7237      46.7237      46.7237 
  152000    127.77889    -10386.37    -9233.813   -731.17372     102002.7      46.7237      46.7237      46.7237 
  153000    126.58202   -10370.256   -9228.4953    -390.2718     102002.7      46.7237      46.7237      46.7237 
  154000    126.73071   -10354.302      -9211.2   -337.78683     102002.7      46.7237      46.7237      46.7237 
  155000    128.58558   -10392.302   -9232.4688   -323.09857     102002.7      46.7237      46.7237      46.7237 
  156000    131.18549   -10376.183   -9192.8991   -679.45002     102002.7      46.7237      46.7237      46.7237 
  157000    130.91594   -10369.243     -9188.39   -481.26184     102002.7      46.7237      46.7237      46.7237 
  158000    131.00248   -10367.537   -9185.9035   -500.51091     102002.7      46.7237      46.7237      46.7237 
  159000    127.73574   -10374.282   -9222.1146   -556.34968     102002.7      46.7237      46.7237      46.7237 
  160000    131.59777   -10393.205   -9206.2025   -158.52658     102002.7      46.7237      46.7237      46.7237 
  161000    130.80463   -10370.965   -9191.1161   -685.52225     102002.7      46.7237      46.7237      46.7237 
  162000    126.48065    -10398.38   -9257.5337   -665.34995     102002.7      46.7237      46.7237      46.7237 
  163000    128.62756   -10364.648   -9204.4358   -257.28394     102002.7      46.7237      46.7237      46.7237 
  164000    131.50434   -10409.837   -9223.6771   -756.97041     102002.7      46.7237      46.7237      46.7237 
  165000    129.72114   -10396.119   -9226.0429    -556.7852     102002.7      46.7237      46.7237      46.7237 
  166000    129.42509   -10351.851   -9184.4458   -841.71126     102002.7      46.7237      46.7237      46.7237 
  167000    127.48159   -10389.153   -9239.2783     -876.008     102002.7      46.7237      46.7237      46.7237 
  168000    132.36755   -10412.032    -9218.086   -640.05684     102002.7      46.7237      46.7237      46.7237 
  169000    130.02638   -10396.554   -9223.7249   -476.15569     102002.7      46.7237      46.7237      46.7237 
  170000    132.90967   -10396.075   -9197.2388   -611.56382     102002.7      46.7237      46.7237      46.7237 
  171000    130.19293   -10409.283   -9234.9514   -991.30154     102002.7      46.7237      46.7237      46.7237 
  172000     127.3375   -10400.522   -9251.9461   -496.95401     102002.7      46.7237      46.7237      46.7237 
  173000    129.01555   -10376.552   -9212.8404   -650.81683     102002.7      46.7237      46.7237      46.7237 
  174000    128.90518       -10376   -9213.2838   -535.91089     102002.7      46.7237      46.7237      46.7237 
  175000    129.82575   -10375.784   -9204.7646   -371.64592     102002.7      46.7237      46.7237      46.7237 
  176000    129.44285   -10386.707   -9219.1414   -559.03857     102002.7      46.7237      46.7237      46.7237 
  177000    132.31635   -10381.373   -9187.8885   -446.07816     102002.7      46.7237      46.7237      46.7237 
  178000     129.1002   -10408.023   -9243.5479   -784.16877     102002.7      46.7237      46.7237      46.7237 
  179000    129.28846   -10376.026   -9209.8534   -330.61779     102002.7      46.7237      46.7237      46.7237 
  180000     129.3078   -10375.081   -9208.7335   -456.88019     102002.7      46.7237      46.7237      46.7237 
  181000    125.91156   -10407.581   -9271.8672   -972.40293     102002.7      46.7237      46.7237      46.7237 
  182000    127.86594   -10390.705   -9237.3631   -511.17296     102002.7      46.7237      46.7237      46.7237 
  183000    130.72342   -10390.507   -9211.3903   -500.08247     102002.7      46.7237      46.7237      46.7237 
  184000     130.6467   -10359.911   -9181.4868   -176.61695     102002.7      46.7237      46.7237      46.7237 
  185000    128.80443   -10376.565   -9214.7575   -635.06123     102002.7      46.7237      46.7237      46.7237 
  186000    129.58189   -10390.058   -9221.2383   -685.13877     102002.7      46.7237      46.7237      46.7237 
  187000    131.47206   -10379.618   -9193.7491   -442.30617     102002.7      46.7237      46.7237      46.7237 
  188000    132.73629   -10384.842     -9187.57   -716.35943     102002.7      46.7237      46.7237      46.7237 
  189000    131.59664     -10382.9   -9195.9074   -813.29221     102002.7      46.7237      46.7237      46.7237 
  190000    131.18257   -10410.664   -9227.4065   -436.63656     102002.7      46.7237      46.7237      46.7237 
  191000    128.78616    -10379.27   -9217.6281   -789.72281     102002.7      46.7237      46.7237      46.7237 
  192000    129.00965   -10355.491   -9191.8326   -359.91097     102002.7      46.7237      46.7237      46.7237 
  193000    130.00322   -10393.564   -9220.9436   -439.20912     102002.7      46.7237      46.7237      46.7237 
  194000    130.79083   -10398.744   -9219.0198   -799.93502     102002.7      46.7237      46.7237      46.7237 
  195000    129.96604   -10385.869   -9213.5841    -760.5593     102002.7      46.7237      46.7237      46.7237 
  196000    128.62617   -10395.652   -9235.4531   -606.21434     102002.7      46.7237      46.7237      46.7237 
  197000    130.08778   -10418.568   -9245.1848    -541.0786     102002.7      46.7237      46.7237      46.7237 
  198000     130.4504   -10373.998   -9197.3448   -590.79704     102002.7      46.7237      46.7237      46.7237 
  199000    130.86892   -10382.678   -9202.2495   -921.51209     102002.7      46.7237      46.7237      46.7237 
  200000    129.25026   -10370.467   -9204.6385   -685.72242     102002.7      46.7237      46.7237      46.7237 
  201000     130.8494   -10385.876   -9205.6236   -490.28696     102002.7      46.7237      46.7237      46.7237 
  202000    132.21772   -10367.299   -9174.7044   -454.69919     102002.7      46.7237      46.7237      46.7237 
  203000    132.55173   -10402.622   -9207.0144   -828.28549     102002.7      46.7237      46.7237      46.7237 
  204000    130.01195   -10361.675   -9188.9762   -285.41528     102002.7      46.7237      46.7237      46.7237 
  205000    130.61691   -10399.938   -9221.7828   -492.60882     102002.7      46.7237      46.7237      46.7237 
  206000    128.37434   -10403.514   -9245.5862   -451.10177     102002.7      46.7237      46.7237      46.7237 
  207000    129.23016   -10369.677     -9204.03   -447.64758     102002.7      46.7237      46.7237      46.7237 
  208000    132.75274   -10403.235   -9205.8142   -563.14643     102002.7      46.7237      46.7237      46.7237 
  209000    130.28577   -10395.953   -9220.7848   -674.20524     102002.7      46.7237      46.7237      46.7237 
  210000    129.86183   -10364.665   -9193.3206   -731.00045     102002.7      46.7237      46.7237      46.7237 
  211000    130.91489    -10369.54   -9188.6964   -864.09656     102002.7      46.7237      46.7237      46.7237 
  212000    128.71337   -10364.984   -9203.9978   -803.76872     102002.7      46.7237      46.7237      46.7237 
  213000    127.88052   -10404.217   -9250.7437   -613.84824     102002.7      46.7237      46.7237      46.7237 
  214000    128.68657    -10361.85   -9201.1057    -541.5148     102002.7      46.7237      46.7237      46.7237 
  215000    131.38948   -10369.126   -9184.0015   -668.75182     102002.7      46.7237      46.7237      46.7237 
  216000     129.4478   -10361.414   -9193.8039   -740.61871     102002.7      46.7237      46.7237      46.7237 
  217000    127.85006   -10372.149   -9218.9498   -623.48517     102002.7      46.7237      46.7237      46.7237 
  218000     129.0129   -10378.957   -9215.2697   -432.85253     102002.7      46.7237      46.7237      46.7237 
  219000    131.70728   -10380.888   -9192.8971    -682.7748     102002.7      46.7237      46.7237      46.7237 
  220000    131.74195   -10375.191   -9186.8879   -875.64897     102002.7      46.7237      46.7237      46.7237 
  221000    128.69751   -10414.018   -9253.1757   -842.25964     102002.7      46.7237      46.7237      46.7237 
  222000    130.25227    -10388.42   -9213.5534   -744.04574     102002.7      46.7237      46.7237      46.7237 
  223000    129.64916   -10387.267   -9217.8406   -396.40627     102002.7      46.7237      46.7237      46.7237 
  224000    129.94952   -10386.227   -9214.0914    -890.8379     102002.7      46.7237      46.7237      46.7237 
  225000    130.52038   -10378.367   -9201.0819   -323.44116     102002.7      46.7237      46.7237      46.7237 
  226000    128.72286   -10409.267   -9248.1957   -483.42707     102002.7      46.7237      46.7237      46.7237 
  227000    133.81757   -10363.077    -9156.052   -228.43968     102002.7      46.7237      46.7237      46.7237 
  228000     130.4454     -10380.3   -9203.6916   -225.43853     102002.7      46.7237      46.7237      46.7237 
  229000    133.42909   -10354.484   -9150.9633   -667.97378     102002.7      46.7237      46.7237      46.7237 
  230000    130.90664   -10359.909   -9179.1404   -887.96129     102002.7      46.7237      46.7237      46.7237 
  231000    131.24446   -10388.714    -9204.898   -569.70631     102002.7      46.7237      46.7237      46.7237 
  232000    128.11593   -10399.483   -9243.8865   -546.89678     102002.7      46.7237      46.7237      46.7237 
  233000    128.78083     -10350.7   -9189.1055    -224.4012     102002.7      46.7237      46.7237      46.7237 
  234000    129.87019   -10380.451   -9209.0304   -865.33209     102002.7      46.7237      46.7237      46.7237 
  235000    128.05607   -10398.398   -9243.3414   -473.03763     102002.7      46.7237      46.7237      46.7237 
  236000    128.69159   -10376.153   -9215.3633    -597.8437     102002.7      46.7237      46.7237      46.7237 
  237000    131.20794    -10359.99   -9176.5033   -532.48625     102002.7      46.7237      46.7237      46.7237 
  238000    133.10689   -10404.868   -9204.2532   -459.28984     102002.7      46.7237      46.7237      46.7237 
  239000    132.32537   -10376.047   -9182.4816   -457.38413     102002.7      46.7237      46.7237      46.7237 
  240000    127.39162   -10397.928    -9248.864   -621.40041     102002.7      46.7237      46.7237      46.7237 
  241000     130.7734   -10394.822   -9215.2549   -703.66029     102002.7      46.7237      46.7237      46.7237 
  242000    130.06868   -10413.683   -9240.4724   -630.38939     102002.7      46.7237      46.7237      46.7237 
  243000    130.20626   -10382.482   -9208.0307   -500.46657     102002.7      46.7237      46.7237      46.7237 
  244000     131.2944   -10403.409   -9219.1428   -668.33259     102002.7      46.7237      46.7237      46.7237 
  245000    131.24963   -10396.157   -9212.2943   -519.40828     102002.7      46.7237      46.7237      46.7237 
  246000    130.86253    -10388.03   -9207.6594   -564.97107     102002.7      46.7237      46.7237      46.7237 
  247000    129.62212   -10385.547   -9216.3644   -293.84982     102002.7      46.7237      46.7237      46.7237 
  248000    130.31405   -10399.232   -9223.8087   -311.34583     102002.7      46.7237      46.7237      46.7237 
  249000    129.88405   -10337.636   -9166.0909   -654.27861     102002.7      46.7237      46.7237      46.7237 
  250000    130.36787   -10378.151   -9202.2422    -509.8338     102002.7      46.7237      46.7237      46.7237 
  251000    126.35072   -10401.768   -9262.0936   -773.12453     102002.7      46.7237      46.7237      46.7237 
  252000    130.83357   -10365.149   -9185.0395   -432.40047     102002.7      46.7237      46.7237      46.7237 
  253000    129.59228   -10403.792   -9234.8786   -670.29148     102002.7      46.7237      46.7237      46.7237 
  254000    128.99457   -10391.738   -9228.2156   -566.15131     102002.7      46.7237      46.7237      46.7237 
  255000    126.72451   -10357.679   -9214.6327   -318.19126     102002.7      46.7237      46.7237      46.7237 
  256000    132.39355   -10404.551   -9210.3698    -731.7244     102002.7      46.7237      46.7237      46.7237 
  257000    133.59744   -10391.497   -9186.4568   -454.43118     102002.7      46.7237      46.7237      46.7237 
  258000    125.33633   -10365.915   -9235.3896   -502.22796     102002.7      46.7237      46.7237      46.7237 
  259000    131.47722   -10393.899   -9207.9833    -670.1211     102002.7      46.7237      46.7237      46.7237 
  260000     131.7172   -10413.708   -9225.6274   -448.35861     102002.7      46.7237      46.7237      46.7237 
  261000    127.61891   -10374.631   -9223.5169   -822.66493     102002.7      46.7237      46.7237      46.7237 
  262000    130.07432    -10361.18   -9187.9182   -214.64158     102002.7      46.7237      46.7237      46.7237 
  263000    128.02015   -10397.345   -9242.6121   -248.28902     102002.7      46.7237      46.7237      46.7237 
  264000    131.30274   -10388.947   -9204.6052   -432.83024     102002.7      46.7237      46.7237      46.7237 
  265000    127.79994   -10375.153   -9222.4066   -482.83129     102002.7      46.7237      46.7237      46.7237 
  266000     129.5856   -10373.811   -9204.9578   -508.53301     102002.7      46.7237      46.7237      46.7237 
  267000    129.72391   -10364.639   -9194.5382   -304.94663     102002.7      46.7237      46.7237      46.7237 
  268000    128.24551   -10361.886   -9205.1202   -457.89112     102002.7      46.7237      46.7237      46.7237 
  269000    130.87593   -10377.828   -9197.3362   -535.24447     102002.7      46.7237      46.7237      46.7237 
  270000    132.07483   -10360.605   -9169.2991   -611.54475     102002.7      46.7237      46.7237      46.7237 
  271000    130.35119   -10395.774   -9220.0153   -929.80591     102002.7      46.7237      46.7237      46.7237 
  272000    129.91294   -10394.141   -9222.3349   -855.14493     102002.7      46.7237      46.7237      46.7237 
  273000    134.23427   -10398.495   -9187.7115   -497.43593     102002.7      46.7237      46.7237      46.7237 
  274000     130.0885   -10366.989   -9193.6001   -644.09208     102002.7      46.7237      46.7237      46.7237 
  275000    132.40648   -10376.813   -9182.5155   -369.01641     102002.7      46.7237      46.7237      46.7237 
  276000    131.00184   -10365.003   -9183.3754   -658.01637     102002.7      46.7237      46.7237      46.7237 
  277000    129.99026   -10402.147   -9229.6439   -887.52018     102002.7      46.7237      46.7237      46.7237 
  278000    131.91253    -10373.31   -9183.4684   -546.07384     102002.7      46.7237      46.7237      46.7237 
  279000    128.82986   -10390.956   -9228.9199   -443.12609     102002.7      46.7237      46.7237      46.7237 
  280000    129.84521   -10374.255   -9203.0606   -1129.4531     102002.7      46.7237      46.7237      46.7237 
  281000    132.57271   -10371.623   -9175.8262    -517.5284     102002.7      46.7237      46.7237      46.7237 
  282000    127.20487   -10381.106   -9233.7267   -716.71587     102002.7      46.7237      46.7237      46.7237 
  283000    129.17567   -10385.335   -9220.1789   -819.39647     102002.7      46.7237      46.7237      46.7237 
  284000    129.05494   -10412.087   -9248.0199   -497.26431     102002.7      46.7237      46.7237      46.7237 
  285000    133.05661   -10419.668   -9219.5068   -671.71451     102002.7      46.7237      46.7237      46.7237 
  286000     131.0957   -10404.679   -9222.2051   -354.19409     102002.7      46.7237      46.7237      46.7237 
  287000    129.37659   -10407.725   -9240.7575   -597.76766     102002.7      46.7237      46.7237      46.7237 
  288000    128.52595   -10385.148   -9225.8526   -668.67653     102002.7      46.7237      46.7237      46.7237 
  289000    129.57077   -10399.302   -9230.5821   -389.77433     102002.7      46.7237      46.7237      46.7237 
  290000    131.30559   -10395.531    -9211.164   -226.38519     102002.7      46.7237      46.7237      46.7237 
  291000    132.17101   -10406.557   -9214.3832   -272.89893     102002.7      46.7237      46.7237      46.7237 
  292000    130.60785   -10402.644   -9224.5703   -517.82729     102002.7      46.7237      46.7237      46.7237 
  293000    129.57247   -10380.321   -9211.5865   -583.77607     102002.7      46.7237      46.7237      46.7237 
  294000    128.17742   -10361.819   -9205.6673   -991.43502     102002.7      46.7237      46.7237      46.7237 
  295000    128.34923    -10397.75   -9240.0487   -465.97255     102002.7      46.7237      46.7237      46.7237 
  296000    132.26183   -10397.547   -9204.5541   -742.30924     102002.7      46.7237      46.7237      46.7237 
  297000    126.53766   -10374.066   -9232.7047   -1135.2614     102002.7      46.7237      46.7237      46.7237 
  298000    128.12966   -10382.697   -9226.9767   -855.46161     102002.7      46.7237      46.7237      46.7237 
  299000    131.41662   -10382.661   -9197.2926   -607.16484     102002.7      46.7237      46.7237      46.7237 
  300000     129.8753   -10390.741   -9219.2744   -773.46929     102002.7      46.7237      46.7237      46.7237 
  301000    134.91124   -10380.498   -9163.6078   -459.72077     102002.7      46.7237      46.7237      46.7237 
  302000    130.29642   -10395.253   -9219.9881   -684.95799     102002.7      46.7237      46.7237      46.7237 
  303000    129.19842   -10358.083   -9192.7217   -286.80344     102002.7      46.7237      46.7237      46.7237 
  304000    128.78425   -10394.719   -9233.0934   -432.17862     102002.7      46.7237      46.7237      46.7237 
  305000    130.79861   -10388.737   -9208.9429    -656.9855     102002.7      46.7237      46.7237      46.7237 
  306000    130.58222   -10367.755   -9189.9121    -649.7998     102002.7      46.7237      46.7237      46.7237 
  307000    130.12055   -10393.552   -9219.8732   -676.22846     102002.7      46.7237      46.7237      46.7237 
  308000    127.87116   -10377.872   -9224.4828   -609.10137     102002.7      46.7237      46.7237      46.7237 
  309000    128.10475   -10386.904   -9231.4077   -795.73636     102002.7      46.7237      46.7237      46.7237 
  310000    130.55823   -10359.373   -9181.7469   -541.19996     102002.7      46.7237      46.7237      46.7237 
  311000    126.68753   -10369.671   -9226.9582   -491.45588     102002.7      46.7237      46.7237      46.7237 
  312000    129.80472   -10408.586   -9237.7566   -655.04161     102002.7      46.7237      46.7237      46.7237 
  313000    125.10663   -10352.592    -9224.139   -496.70379     102002.7      46.7237      46.7237      46.7237 
  314000    129.99172   -10405.487   -9232.9702   -667.30738     102002.7      46.7237      46.7237      46.7237 
  315000    131.44592   -10380.111   -9194.4774    -476.1515     102002.7      46.7237      46.7237      46.7237 
  316000    128.07435   -10379.912   -9224.6901    -425.1332     102002.7      46.7237      46.7237      46.7237 
  317000    127.05351   -10403.089   -9257.0756   -794.97026     102002.7      46.7237      46.7237      46.7237 
  318000    131.87571   -10386.811   -9197.3016   -626.97514     102002.7      46.7237      46.7237      46.7237 
  319000    132.06899   -10391.001   -9199.7483    -524.9804     102002.7      46.7237      46.7237      46.7237 
  320000    129.98545   -10403.373   -9230.9128     -511.794     102002.7      46.7237      46.7237      46.7237 
  321000    130.11963   -10349.388   -9175.7183   -192.27599     102002.7      46.7237      46.7237      46.7237 
  322000    131.11616   -10383.135   -9200.4765   -616.50125     102002.7      46.7237      46.7237      46.7237 
  323000    128.56678   -10398.052    -9238.388   -699.44381     102002.7      46.7237      46.7237      46.7237 
  324000     130.1145   -10356.543   -9182.9194   -503.12266     102002.7      46.7237      46.7237      46.7237 
  325000    131.23839   -10421.313   -9237.5518   -875.91533     102002.7      46.7237      46.7237      46.7237 
  326000     132.1413   -10391.822   -9199.9169   -491.63118     102002.7      46.7237      46.7237      46.7237 
  327000    129.20183   -10374.335    -9208.943    -461.6477     102002.7      46.7237      46.7237      46.7237 
  328000    126.16113   -10402.987   -9265.0225   -630.34668     102002.7      46.7237      46.7237      46.7237 
  329000    129.37898   -10352.808   -9185.8186    -134.3081     102002.7      46.7237      46.7237      46.7237 
  330000    133.35725   -10409.319   -9206.4454    -317.5275     102002.7      46.7237      46.7237      46.7237 
  331000    129.94944   -10354.609   -9182.4744   -273.90259     102002.7      46.7237      46.7237      46.7237 
  332000    129.97146   -10389.496   -9217.1622    -267.5758     102002.7      46.7237      46.7237      46.7237 
  333000    131.94007   -10411.025   -9220.9348   -798.29788     102002.7      46.7237      46.7237      46.7237 
  334000    133.10092   -10395.414   -9194.8527   -443.09999     102002.7      46.7237      46.7237      46.7237 
  335000    130.61306   -10380.545   -9202.4237   -536.28134     102002.7      46.7237      46.7237      46.7237 
  336000    129.98772   -10404.992   -9232.5116   -860.85066     102002.7      46.7237      46.7237      46.7237 
  337000     127.3433    -10408.55   -9259.9223    -624.1048     102002.7      46.7237      46.7237      46.7237 
  338000    128.26764   -10381.451   -9224.4857   -594.69917     102002.7      46.7237      46.7237      46.7237 
  339000    130.79092   -10379.867   -9200.1422    -301.8099     102002.7      46.7237      46.7237      46.7237 
  340000    129.95286   -10394.666   -9222.5006   -545.79042     102002.7      46.7237      46.7237      46.7237 
  341000    130.21436   -10380.135   -9205.6101   -599.26384     102002.7      46.7237      46.7237      46.7237 
  342000    126.97417   -10397.887   -9252.5882   -536.22787     102002.7      46.7237      46.7237      46.7237 
  343000     128.3875   -10380.558   -9222.5115    -809.7089     102002.7      46.7237      46.7237      46.7237 
  344000    130.71107   -10411.592   -9232.5875   -774.33884     102002.7      46.7237      46.7237      46.7237 
  345000    128.99314   -10387.387   -9223.8781   -311.81148     102002.7      46.7237      46.7237      46.7237 
  346000    130.57357   -10390.021   -9212.2568   -812.06238     102002.7      46.7237      46.7237      46.7237 
  347000    128.77592   -10417.913   -9256.3631   -647.14507     102002.7      46.7237      46.7237      46.7237 
  348000    126.42393   -10353.441   -9213.1061   -623.61817     102002.7      46.7237      46.7237      46.7237 
  349000    129.66148   -10381.144   -9211.6061   -412.45558     102002.7      46.7237      46.7237      46.7237 
  350000    129.31727   -10398.369   -9231.9357   -221.08172     102002.7      46.7237      46.7237      46.7237 
  351000     127.9527    -10377.77   -9223.6459   -609.93264     102002.7      46.7237      46.7237      46.7237 
  352000    129.77367   -10373.356   -9202.8068   -441.26301     102002.7      46.7237      46.7237      46.7237 
  353000    131.68437   -10380.913   -9193.1285   -579.29778     102002.7      46.7237      46.7237      46.7237 
  354000    129.81702   -10397.193   -9226.2524   -489.30518     102002.7      46.7237      46.7237      46.7237 
  355000    131.66567   -10370.295   -9182.6793   -528.89061     102002.7      46.7237      46.7237      46.7237 
  356000    132.13726   -10395.461   -9203.5917   -582.20809     102002.7      46.7237      46.7237      46.7237 
  357000    129.83549   -10372.916   -9201.8085   -683.13076     102002.7      46.7237      46.7237      46.7237 
  358000    128.08953   -10403.424   -9248.0648   -688.31596     102002.7      46.7237      46.7237      46.7237 
  359000     129.9641   -10369.521   -9197.2533   -423.46876     102002.7      46.7237      46.7237      46.7237 
  360000    130.09734   -10411.479   -9238.0101   -597.33924     102002.7      46.7237      46.7237      46.7237 
  361000     127.4863   -10383.402   -9233.4848   -394.62095     102002.7      46.7237      46.7237      46.7237 
  362000    133.88684   -10399.957   -9192.3071   -261.44393     102002.7      46.7237      46.7237      46.7237 
  363000    129.22384   -10370.913   -9205.3224    -508.4577     102002.7      46.7237      46.7237      46.7237 
  364000     129.0416   -10394.256   -9230.3095   -576.83683     102002.7      46.7237      46.7237      46.7237 
  365000    131.45199   -10389.379   -9203.6909   -246.03392     102002.7      46.7237      46.7237      46.7237 
  366000    131.54388   -10357.917   -9171.4002   -529.48596     102002.7      46.7237      46.7237      46.7237 
  367000    128.69436   -10363.861   -9203.0467   -519.51405     102002.7      46.7237      46.7237      46.7237 
  368000    127.27896   -10362.411   -9214.3631   -551.19431     102002.7      46.7237      46.7237      46.7237 
  369000    128.65637   -10392.101   -9231.6294   -504.13373     102002.7      46.7237      46.7237      46.7237 
  370000     126.6048   -10405.041   -9263.0742     -624.762     102002.7      46.7237      46.7237      46.7237 
  371000    130.11793   -10403.221   -9229.5662   -1176.7392     102002.7      46.7237      46.7237      46.7237 
  372000    127.93974   -10409.496   -9255.4888   -887.98917     102002.7      46.7237      46.7237      46.7237 
  373000    130.73802   -10388.342   -9209.0936   -701.26723     102002.7      46.7237      46.7237      46.7237 
  374000    127.49712   -10397.527   -9247.5114   -654.50966     102002.7      46.7237      46.7237      46.7237 
  375000     128.3264   -10385.186   -9227.6905   -461.11428     102002.7      46.7237      46.7237      46.7237 
  376000    130.41374   -10408.392   -9232.0693   -827.15653     102002.7      46.7237      46.7237      46.7237 
  377000    127.82913   -10384.045   -9231.0349    -476.6554     102002.7      46.7237      46.7237      46.7237 
  378000    130.09452    -10407.43   -9233.9862   -726.96762     102002.7      46.7237      46.7237      46.7237 
  379000    128.91375   -10401.816    -9239.023   -690.94578     102002.7      46.7237      46.7237      46.7237 
  380000    127.59868   -10362.912   -9211.9807   -565.13712     102002.7      46.7237      46.7237      46.7237 
  381000    131.16247   -10379.045   -9195.9685   -564.94862     102002.7      46.7237      46.7237      46.7237 
  382000    133.40874   -10409.118   -9205.7801   -650.85241     102002.7      46.7237      46.7237      46.7237 
  383000    131.02362   -10376.814   -9194.9896   -495.49545     102002.7      46.7237      46.7237      46.7237 
  384000    127.42288   -10385.129   -9235.7836   -712.28095     102002.7      46.7237      46.7237      46.7237 
  385000     129.5695   -10379.074   -9210.3659   -525.11197     102002.7      46.7237      46.7237      46.7237 
  386000    134.39736   -10383.041   -9170.7861   -690.98157     102002.7      46.7237      46.7237      46.7237 
  387000    131.54079    -10413.83   -9227.3407   -761.11124     102002.7      46.7237      46.7237      46.7237 
  388000    131.42998   -10362.532   -9177.0427   -758.13272     102002.7      46.7237      46.7237      46.7237 
  389000    128.56813   -10362.875    -9203.199   -680.29173     102002.7      46.7237      46.7237      46.7237 
  390000    129.37481    -10406.38   -9239.4283   -878.70396     102002.7      46.7237      46.7237      46.7237 
  391000     127.9601   -10361.696    -9207.505   -635.91328     102002.7      46.7237      46.7237      46.7237 
  392000     128.2443   -10383.028   -9226.2728   -710.15652     102002.7      46.7237      46.7237      46.7237 
  393000    129.72021   -10406.366   -9236.2986   -687.64203     102002.7      46.7237      46.7237      46.7237 
  394000    130.37489   -10368.853     -9192.88   -517.92131     102002.7      46.7237      46.7237      46.7237 
  395000    131.07788   -10396.317   -9214.0035   -456.80371     102002.7      46.7237      46.7237      46.7237 
  396000    133.10304   -10384.936   -9184.3553   -418.66114     102002.7      46.7237      46.7237      46.7237 
  397000    131.96087   -10370.133   -9179.8555   -727.95361     102002.7      46.7237      46.7237      46.7237 
  398000    127.45454   -10385.429   -9235.7976   -745.41334     102002.7      46.7237      46.7237      46.7237 
  399000    128.83075   -10371.742   -9209.6978   -909.04781     102002.7      46.7237      46.7237      46.7237 
  400000    133.12523   -10377.639    -9176.859   -316.09957     102002.7      46.7237      46.7237      46.7237 
  401000    129.64918   -10359.118   -9189.6914   -833.55532     102002.7      46.7237      46.7237      46.7237 
  402000    129.14872   -10393.456   -9228.5429   -895.31945     102002.7      46.7237      46.7237      46.7237 
  403000     132.0963   -10358.637   -9167.1377    -715.8158     102002.7      46.7237      46.7237      46.7237 
  404000    127.16378   -10389.971   -9242.9622   -900.06036     102002.7      46.7237      46.7237      46.7237 
  405000    129.85371   -10385.013   -9213.7413   -550.78353     102002.7      46.7237      46.7237      46.7237 
  406000    131.02414    -10388.95   -9207.1209   -735.93909     102002.7      46.7237      46.7237      46.7237 
  407000    130.86114    -10407.19    -9226.832   -762.36978     102002.7      46.7237      46.7237      46.7237 
  408000    130.54586   -10370.093    -9192.578   -521.51406     102002.7      46.7237      46.7237      46.7237 
  409000    131.43657   -10377.256   -9191.7067   -483.46028     102002.7      46.7237      46.7237      46.7237 
  410000    127.32831   -10365.739   -9217.2462   -546.39172     102002.7      46.7237      46.7237      46.7237 
  411000    127.48615   -10380.282   -9230.3656   -631.49059     102002.7      46.7237      46.7237      46.7237 
  412000    127.55142    -10380.67   -9230.1653   -657.28237     102002.7      46.7237      46.7237      46.7237 
  413000    127.32188   -10394.961   -9246.5261   -739.82094     102002.7      46.7237      46.7237      46.7237 
  414000    128.54959   -10381.564   -9222.0557   -576.92285     102002.7      46.7237      46.7237      46.7237 
  415000    131.18839   -10366.503   -9183.1929   -521.13274     102002.7      46.7237      46.7237      46.7237 
  416000    130.93294   -10375.579   -9194.5732   -541.62534     102002.7      46.7237      46.7237      46.7237 
  417000    131.51813   -10404.012   -9217.7276   -506.26513     102002.7      46.7237      46.7237      46.7237 
  418000    127.92389   -10398.541   -9244.6763   -838.55264     102002.7      46.7237      46.7237      46.7237 
  419000    130.39762   -10411.477   -9235.2993   -441.75976     102002.7      46.7237      46.7237      46.7237 
  420000    126.36698   -10366.089   -9226.2676   -1064.3325     102002.7      46.7237      46.7237      46.7237 
  421000    130.40048   -10397.376   -9221.1723   -625.23191     102002.7      46.7237      46.7237      46.7237 
  422000    131.85015   -10381.289   -9192.0092   -574.86826     102002.7      46.7237      46.7237      46.7237 
  423000     130.2976   -10400.136   -9224.8606   -782.74279     102002.7      46.7237      46.7237      46.7237 
  424000    131.11899   -10383.034   -9200.3497   -380.74769     102002.7      46.7237      46.7237      46.7237 
  425000     130.0596   -10370.118   -9196.9892   -750.58275     102002.7      46.7237      46.7237      46.7237 
  426000    127.23808   -10407.614   -9259.9351   -341.93166     102002.7      46.7237      46.7237      46.7237 
  427000    128.85559   -10408.461   -9246.1922   -298.90428     102002.7      46.7237      46.7237      46.7237 
  428000    129.90337   -10408.629   -9236.9091   -595.22311     102002.7      46.7237      46.7237      46.7237 
  429000      132.649   -10391.568   -9195.0829   -863.97436     102002.7      46.7237      46.7237      46.7237 
  430000    131.01227   -10376.971   -9195.2495   -633.86954     102002.7      46.7237      46.7237      46.7237 
  431000    132.41527   -10414.676   -9220.2995   -670.10597     102002.7      46.7237      46.7237      46.7237 
  432000    128.66998   -10388.705   -9228.1109   -816.47373     102002.7      46.7237      46.7237      46.7237 
  433000    132.09113   -10373.693   -9182.2404   -703.26825     102002.7      46.7237      46.7237      46.7237 
  434000    128.42089   -10368.225   -9209.8775    -720.8018     102002.7      46.7237      46.7237      46.7237 
  435000    132.12068   -10386.698   -9194.9789   -762.16656     102002.7      46.7237      46.7237      46.7237 
  436000    129.98539   -10391.504   -9219.0448   -548.53728     102002.7      46.7237      46.7237      46.7237 
  437000     134.0942   -10378.418   -9168.8976   -558.74722     102002.7      46.7237      46.7237      46.7237 
  438000    129.92457   -10367.391   -9195.4801   -752.62526     102002.7      46.7237      46.7237      46.7237 
  439000    130.67789   -10381.182   -9202.4767   -851.51313     102002.7      46.7237      46.7237      46.7237 
  440000    129.29969   -10393.962   -9227.6877   -750.23547     102002.7      46.7237      46.7237      46.7237 
  441000    130.16624   -10399.658   -9225.5674    -564.5659     102002.7      46.7237      46.7237      46.7237 
  442000    130.09876   -10388.414   -9214.9322   -237.83231     102002.7      46.7237      46.7237      46.7237 
  443000    129.72943   -10386.901     -9216.75   -722.10467     102002.7      46.7237      46.7237      46.7237 
  444000    130.85758   -10369.061   -9188.7343   -763.64723     102002.7      46.7237      46.7237      46.7237 
  445000     129.2238   -10419.908    -9254.318   -471.20008     102002.7      46.7237      46.7237      46.7237 
  446000    130.29488   -10381.305   -9206.0545   -520.62958     102002.7      46.7237      46.7237      46.7237 
  447000    129.58768   -10393.554   -9224.6821   -456.51865     102002.7      46.7237      46.7237      46.7237 
  448000    128.63676   -10399.012    -9238.717   -398.09731     102002.7      46.7237      46.7237      46.7237 
  449000    129.37108   -10396.228   -9229.3097   -948.46078     102002.7      46.7237      46.7237      46.7237 
  450000    130.62681   -10377.464   -9199.2195   -745.88734     102002.7      46.7237      46.7237      46.7237 
  451000    133.12076   -10368.257   -9167.5172   -560.16716     102002.7      46.7237      46.7237      46.7237 
  452000    130.54249   -10395.719   -9218.2348   -632.77377     102002.7      46.7237      46.7237      46.7237 
  453000    127.27144   -10373.346   -9225.3663   -428.80474     102002.7      46.7237      46.7237      46.7237 
  454000    132.80009   -10399.444   -9201.5967   -742.95499     102002.7      46.7237      46.7237      46.7237 
  455000    133.17226   -10361.464   -9160.2591    -711.4406     102002.7      46.7237      46.7237      46.7237 
  456000    130.40978    -10389.95   -9213.6626   -781.34231     102002.7      46.7237      46.7237      46.7237 
  457000     128.9383   -10397.755   -9234.7406    -940.6089     102002.7      46.7237      46.7237      46.7237 
  458000    130.95015   -10353.502   -9172.3405   -590.81727     102002.7      46.7237      46.7237      46.7237 
  459000    128.75305   -10381.925   -9220.5813   -711.58254     102002.7      46.7237      46.7237      46.7237 
  460000    131.64092   -10377.296    -9189.904   -417.17246     102002.7      46.7237      46.7237      46.7237 
  461000      128.858   -10395.104   -9232.8133   -817.23058     102002.7      46.7237      46.7237      46.7237 
  462000    128.57119   -10388.206   -9228.5027   -466.78557     102002.7      46.7237      46.7237      46.7237 
  463000    131.34838   -10377.548   -9192.7945   -588.85703     102002.7      46.7237      46.7237      46.7237 
  464000      127.898   -10371.741   -9218.1098    -586.0038     102002.7      46.7237      46.7237      46.7237 
  465000    134.64397   -10381.419   -9166.9396   -644.58543     102002.7      46.7237      46.7237      46.7237 
  466000    131.42699   -10370.446   -9184.9833   -948.48704     102002.7      46.7237      46.7237      46.7237 
  467000    129.59394   -10389.867   -9220.9382    -822.1143     102002.7      46.7237      46.7237      46.7237 
  468000    130.22405    -10357.23   -9182.6179   -485.65345     102002.7      46.7237      46.7237      46.7237 
  469000    130.57594   -10382.597   -9204.8105   -685.49702     102002.7      46.7237      46.7237      46.7237 
  470000    130.43562   -10388.593    -9212.073   -709.02023     102002.7      46.7237      46.7237      46.7237 
  471000    129.18344   -10377.057   -9211.8317   -819.63302     102002.7      46.7237      46.7237      46.7237 
  472000    133.72788     -10401.7   -9195.4842   -987.65606     102002.7      46.7237      46.7237      46.7237 
  473000    128.65274    -10382.21   -9221.7711   -802.29163     102002.7      46.7237      46.7237      46.7237 
  474000    130.85994   -10390.535   -9210.1878   -964.09191     102002.7      46.7237      46.7237      46.7237 
  475000    130.53621   -10408.841   -9231.4132   -684.97294     102002.7      46.7237      46.7237      46.7237 
  476000     129.1668   -10394.959    -9229.883   -822.75177     102002.7      46.7237      46.7237      46.7237 
  477000    128.62564   -10374.018   -9213.8238   -936.27074     102002.7      46.7237      46.7237      46.7237 
  478000    129.22135   -10399.013   -9233.4452   -555.35213     102002.7      46.7237      46.7237      46.7237 
  479000    126.85761    -10421.86    -9277.613   -622.60529     102002.7      46.7237      46.7237      46.7237 
  480000    127.21405   -10371.287   -9223.8249   -625.66116     102002.7      46.7237      46.7237      46.7237 
  481000    129.50312   -10377.598   -9209.4892   -821.53476     102002.7      46.7237      46.7237      46.7237 
  482000    129.53848   -10348.372   -9179.9437   -843.81643     102002.7      46.7237      46.7237      46.7237 
  483000     128.9336   -10408.714   -9245.7416   -585.17738     102002.7      46.7237      46.7237      46.7237 
  484000    128.57187   -10365.482   -9205.7723    -525.6826     102002.7      46.7237      46.7237      46.7237 
  485000     130.8872   -10353.132   -9172.5385   -598.73169     102002.7      46.7237      46.7237      46.7237 
  486000    129.31089   -10395.477   -9229.1015   -586.40871     102002.7      46.7237      46.7237      46.7237 
  487000    132.15507   -10387.549    -9195.519   -550.46687     102002.7      46.7237      46.7237      46.7237 
  488000    129.49454   -10357.107    -9189.075   -580.55931     102002.7      46.7237      46.7237      46.7237 
  489000    130.35015   -10427.372   -9251.6227   -870.81582     102002.7      46.7237      46.7237      46.7237 
  490000    127.47988   -10376.545   -9226.6852   -621.41566     102002.7      46.7237      46.7237      46.7237 
  491000    128.20522   -10380.481   -9224.0786   -880.67068     102002.7      46.7237      46.7237      46.7237 
  492000    126.42004   -10386.427   -9246.1267   -648.29224     102002.7      46.7237      46.7237      46.7237 
  493000    130.30701   -10370.732   -9195.3722   -621.60857     102002.7      46.7237      46.7237      46.7237 
  494000    129.43834     -10424.5   -9256.9748    -909.7057     102002.7      46.7237      46.7237      46.7237 
  495000    128.58074   -10363.203   -9203.4136   -1006.8325     102002.7      46.7237      46.7237      46.7237 
  496000    128.43578   -10383.197   -9224.7152   -856.75731     102002.7      46.7237      46.7237      46.7237 
  497000    127.89628    -10432.46   -9278.8446   -557.13314     102002.7      46.7237      46.7237      46.7237 
  498000    132.09008   -10383.028   -9191.5841   -698.05745     102002.7      46.7237      46.7237      46.7237 
  499000     130.1287   -10394.644   -9220.8918   -670.99284     102002.7      46.7237      46.7237      46.7237 
  500000    128.56393   -10365.287   -9205.6493   -531.58341     102002.7      46.7237      46.7237      46.7237 
  500500    128.61405   -10375.288   -9215.1983   -480.55904     102002.7      46.7237      46.7237      46.7237 
Loop time of 1911.17 on 16 procs for 500000 steps with 3027 atoms

Performance: 22.604 ns/day, 1.062 hours/ns, 261.619 timesteps/s
99.8% CPU use with 16 MPI tasks x no OpenMP threads

MPI task timing breakdown:
Section |  min time  |  avg time  |  max time  |%varavg| %total
---------------------------------------------------------------
Pair    | 746.83     | 1094.3     | 1434.6     | 771.1 | 57.26
Bond    | 136.48     | 174.77     | 218.3      | 265.7 |  9.14
Neigh   | 17.221     | 17.297     | 17.436     |   1.9 |  0.91
Comm    | 231.3      | 607.19     | 986.7      |1169.4 | 31.77
Output  | 0.020739   | 0.021152   | 0.025117   |   0.7 |  0.00
Modify  | 9.1286     | 11.016     | 12.366     |  36.2 |  0.58
Other   |            | 6.621      |            |       |  0.35

Nlocal:    189.188 ave 229 max 153 min
Histogram: 3 2 2 1 0 1 1 2 2 2
Nghost:    3836.5 ave 3887 max 3784 min
Histogram: 1 2 2 1 2 1 2 0 4 1
Neighs:    11470.2 ave 18237 max 5046 min
Histogram: 3 2 3 0 0 0 2 1 2 3

Total # of neighbors = 183523
Ave neighs/atom = 60.6287
Ave special neighs/atom = 3.80575
Neighbor list builds = 5222
Dangerous builds = 0
Neighbor list info ...
  update every 1 steps, delay 10 steps, check yes
  max neighbors/atom: 2000, page size: 100000
  master list distance cutoff = 16
  ghost atom cutoff = 16
  binsize = 8, bins = 6 6 6
  3 neighbor lists, perpetual/occasional/extra = 3 0 0
  (1) pair buck6d/coul/gauss/dsf, perpetual, skip from (3)
      attributes: half, newton on
      pair build: skip
      stencil: none
      bin: none
  (2) pair lj/cut, perpetual, skip from (3)
      attributes: half, newton on
      pair build: skip
      stencil: none
      bin: none
  (3) neighbor class addition, perpetual
      attributes: half, newton on
      pair build: half/bin/newton
      stencil: half/bin/3d/newton
      bin: standard
Setting up Verlet run ...
  Unit style    : real
  Current step  : 500500
  Time step     : 1
WARNING: Inconsistent image flags (../domain.cpp:786)
Per MPI rank memory allocation (min/avg/max) = 22.97 | 23.35 | 23.42 Mbytes
Step Time TotEng KinEng PotEng E_mol E_pair Temp Pxx Pyy Pzz Pxy Pxz Pyz Cella Cellb Cellc CellAlpha CellBeta CellGamma Volume Press 
  500500       500000   -9215.1983    1160.0899   -10375.288    4377.2851   -14752.573    128.61405   -624.38568    -440.5176   -376.77385   -184.40172   -116.67413    -44.10023      46.7237      46.7237      46.7237           90           90           90     102002.7   -480.55904 
  501000       500500   -9174.1163    1193.0785   -10367.195    4388.3243   -14755.519    132.27136    98.299174   -739.16795   -804.70554   -117.42251   -177.12234    199.75557      46.7237      46.7237      46.7237           90           90           90     102002.7   -481.85811 
  502000       501500   -9214.6564    1173.7085   -10388.365    4373.7965   -14762.161    130.12388   -915.50259   -1329.1427   -289.93207    167.07996    227.80231   -177.17723      46.7237      46.7237      46.7237           90           90           90     102002.7   -844.85912 
  503000       502500   -9206.9149    1164.5515   -10371.466    4379.9007   -14751.367    129.10869   -909.84263   -1443.8946    248.39239   -94.670328    77.887349    2.0763088      46.7237      46.7237      46.7237           90           90           90     102002.7    -701.7816 
  504000       503500    -9234.428    1187.0139   -10421.442    4358.3669   -14779.809      131.599    -997.6102   -891.77502   -731.84335   -16.370664    59.291611   -55.694956      46.7237      46.7237      46.7237           90           90           90     102002.7   -873.74286 
  505000       504500   -9235.4366    1153.5673   -10389.004    4380.0789   -14769.083    127.89092   -677.02076   -824.75828   -780.30862   -192.25406    23.397037    54.578317      46.7237      46.7237      46.7237           90           90           90     102002.7   -760.69589 
  506000       505500   -9218.4557    1185.4491   -10403.905    4349.1042   -14753.009    131.42552   -452.52211   -634.17934    48.842622    134.68801   -152.56389    48.308509      46.7237      46.7237      46.7237           90           90           90     102002.7   -345.95294 
  507000       506500   -9229.0935    1172.2654   -10401.359    4360.7598   -14762.119    129.96389   -1079.1469   -717.03427   -489.32078    172.33552    214.08715    171.35791      46.7237      46.7237      46.7237           90           90           90     102002.7   -761.83398 
  508000       507500   -9199.5287    1181.5506   -10381.079    4367.1659   -14748.245    130.99331   -1071.0245     -950.062   -620.68205    134.79539    3.0710015   -21.210502      46.7237      46.7237      46.7237           90           90           90     102002.7   -880.58952 
  509000       508500   -9179.9383    1188.2226   -10368.161    4373.5109   -14741.672      131.733   -718.95852   -885.44106   -758.42101    28.022779    303.97274   -52.006247      46.7237      46.7237      46.7237           90           90           90     102002.7   -787.60686 
  510000       509500   -9209.9132    1184.6878   -10394.601    4367.4767   -14762.078    131.34111   -250.67901   -598.87063   -977.14875    175.21241    188.43529   -86.077189      46.7237      46.7237      46.7237           90           90           90     102002.7   -608.89946 
  511000       510500   -9167.8743    1207.9585   -10375.833    4362.7958   -14738.629    133.92103   -586.43767   -703.81624   -486.12527    97.934883   -152.43302    112.03664      46.7237      46.7237      46.7237           90           90           90     102002.7   -592.12639 
  512000       511500    -9222.517    1158.6254   -10381.142    4380.3144   -14761.457    128.45169   -822.09971   -597.63868    -521.2223    235.64164    165.02517    12.373927      46.7237      46.7237      46.7237           90           90           90     102002.7    -646.9869 
  513000       512500   -9246.8317    1152.8993   -10399.731    4361.5517   -14761.283    127.81686   -507.16866   -555.73339   -203.92816    155.71957   -5.2659309    89.368807      46.7237      46.7237      46.7237           90           90           90     102002.7   -422.27674 
  514000       513500   -9231.6548    1167.1859   -10398.841    4353.2424   -14752.083    129.40076   -541.49329   -976.16451   -738.58565   -36.845155     229.9704   -90.063656      46.7237      46.7237      46.7237           90           90           90     102002.7   -752.08115 
  515000       514500   -9196.0344     1200.084   -10396.118    4367.5508   -14763.669    133.04802   -456.08341   -718.82934    -702.2915     220.1632   -145.92126    23.858374      46.7237      46.7237      46.7237           90           90           90     102002.7   -625.73475 
  516000       515500   -9175.5301    1181.2028   -10356.733    4385.9534   -14742.686    130.95475   -334.33319   -776.21488   -589.39101    57.470194   -26.238625    79.833479      46.7237      46.7237      46.7237           90           90           90     102002.7   -566.64636 
  517000       516500   -9192.4855    1186.3862   -10378.872    4361.9639   -14740.835     131.5294   -828.64852   -717.17786   -495.42592   -34.253886   -159.88805      -21.759      46.7237      46.7237      46.7237           90           90           90     102002.7   -680.41744 
  518000       517500   -9187.6402    1198.9941   -10386.634    4376.5692   -14763.203    132.92719   -773.19789   -564.49966    351.33579    77.480791    149.24992    34.321444      46.7237      46.7237      46.7237           90           90           90     102002.7   -328.78725 
  519000       518500   -9202.5466    1173.9562   -10376.503    4360.7513   -14737.254    130.15135   -555.20769   -742.03341   -739.53069    192.32781    147.74687    109.70471      46.7237      46.7237      46.7237           90           90           90     102002.7   -678.92393 
  520000       519500   -9260.3979    1144.4031   -10404.801    4346.8617   -14751.663    126.87493   -76.082679   -658.99455   -1064.2746   -64.864687     63.48724    12.248997      46.7237      46.7237      46.7237           90           90           90     102002.7   -599.78394 
  521000       520500    -9224.622     1177.716   -10402.338    4348.5757   -14750.914    130.56818   -570.22387   -814.95383   -835.47996   -137.45193    45.503084    51.939179      46.7237      46.7237      46.7237           90           90           90     102002.7   -740.21922 
  522000       521500   -9173.5923    1162.5659   -10336.158    4422.1632   -14758.321    128.88855   -1233.5363   -690.14332   -650.78094   -14.581232    -143.0366    71.227018      46.7237      46.7237      46.7237           90           90           90     102002.7   -858.15352 
  523000       522500   -9190.7329    1203.5739   -10394.307    4393.4863   -14787.793    133.43493   -208.74136    -1214.586   -537.66441   -362.08183    56.102326   -217.80484      46.7237      46.7237      46.7237           90           90           90     102002.7   -653.66392 
  524000       523500   -9248.7455    1133.4678   -10382.213    4384.7844   -14766.998    125.66258   -1201.4362   -1215.2325   -1042.2978   -255.89753    -108.0177    -110.5321      46.7237      46.7237      46.7237           90           90           90     102002.7   -1152.9888 
  525000       524500   -9212.7352    1187.9186   -10400.654    4359.4475   -14760.101    131.69929    -650.2197   -544.20776   -579.55594    230.56563    117.23416    174.61667      46.7237      46.7237      46.7237           90           90           90     102002.7    -591.3278 
  526000       525500   -9236.2415    1157.2057   -10393.447    4359.2734   -14752.721     128.2943   -898.59263   -251.60926   -1205.3482    15.097327   -174.13991   -177.83443      46.7237      46.7237      46.7237           90           90           90     102002.7   -785.18338 
  527000       526500   -9187.5907    1177.8837   -10365.474    4380.7099   -14746.184    130.58677   -697.46987   -660.82128   -667.49829   -22.574721    238.44792    111.49491      46.7237      46.7237      46.7237           90           90           90     102002.7   -675.26315 
  528000       527500   -9231.3065    1151.3532    -10382.66    4378.4244   -14761.084    127.64546   -522.61337   -429.34957   -1302.9262   -116.75523    4.9606008    38.426245      46.7237      46.7237      46.7237           90           90           90     102002.7   -751.62971 
  529000       528500   -9186.5808    1186.8041   -10373.385    4397.2574   -14770.642    131.57574   -505.22152   -268.73144   -528.70896    409.37899   -194.45458   -128.60605      46.7237      46.7237      46.7237           90           90           90     102002.7   -434.22064 
  530000       529500    -9223.604    1170.9996   -10394.604    4357.9691   -14752.573    129.82356   -425.91897   -1268.7256   -479.25286    58.213243   -162.65453    -323.4705      46.7237      46.7237      46.7237           90           90           90     102002.7   -724.63247 
  531000       530500   -9206.1786     1192.213   -10398.392    4374.6446   -14773.036     132.1754   -745.89058   -347.97578   -461.06338   -54.989372   -74.594864   -92.319481      46.7237      46.7237      46.7237           90           90           90     102002.7   -518.30991 
  532000       531500   -9204.3484    1190.5947   -10394.943    4341.3707   -14736.314    131.99598   -873.28573    -667.7987   -462.18277   -263.42485    17.125532    30.345885      46.7237      46.7237      46.7237           90           90           90     102002.7   -667.75573 
  533000       532500   -9237.2901    1156.6451   -10393.935    4361.8064   -14755.742    128.23214   -415.18509   -982.56155   -650.18676    125.76273   -140.40682    92.119581      46.7237      46.7237      46.7237           90           90           90     102002.7   -682.64447 
  534000       533500   -9209.6978    1169.8403   -10379.538    4371.8098   -14751.348    129.69504   -859.19579   -620.08567   -833.03332   -57.151785    42.322318     64.08039      46.7237      46.7237      46.7237           90           90           90     102002.7    -770.7716 
  535000       534500   -9210.6591    1187.1499   -10397.809    4369.7916   -14767.601    131.61408   -317.55992   -967.73523   -1098.4019    62.463424    38.253179    178.26298      46.7237      46.7237      46.7237           90           90           90     102002.7   -794.56569 
  536000       535500   -9187.4752    1169.6011   -10357.076    4373.1115   -14730.188    129.66852     -805.909   -577.58493   -918.81098   -2.8533874    -21.52957   -80.079914      46.7237      46.7237      46.7237           90           90           90     102002.7   -767.43497 
  537000       536500   -9189.4162    1198.0651   -10387.481    4361.8065   -14749.288    132.82419   -616.69318   -710.45518   -891.34075    121.25635   -49.173815   -63.334967      46.7237      46.7237      46.7237           90           90           90     102002.7   -739.49637 
  538000       537500   -9231.5532    1167.4878   -10399.041    4377.4938   -14776.535    129.43422   -1094.3235    -490.5721   -687.91353   -15.835467    213.61993     121.0689      46.7237      46.7237      46.7237           90           90           90     102002.7   -757.60304 
  539000       538500   -9196.7145    1163.9603   -10360.675    4409.6058   -14770.281    129.04315   -1127.6655   -975.08311   -1120.1617    175.19127    63.608148    198.81601      46.7237      46.7237      46.7237           90           90           90     102002.7   -1074.3034 
  540000       539500   -9231.5131    1177.5162   -10409.029    4364.2583   -14773.288    130.54602    -367.0808   -692.20729   -439.44166   -86.415143    189.78769   -121.11777      46.7237      46.7237      46.7237           90           90           90     102002.7   -499.57658 
  541000       540500   -9211.6195    1142.3389   -10353.958    4403.7452   -14757.704    126.64608   -778.13239    -442.9408   -296.31219   -220.53528    71.301118   -205.78081      46.7237      46.7237      46.7237           90           90           90     102002.7   -505.79512 
  542000       541500   -9227.6647    1154.9995   -10382.664    4357.2552   -14739.919     128.0497   -806.58856   -855.41189   -1115.2627  -0.50462025   -124.30694    274.18746      46.7237      46.7237      46.7237           90           90           90     102002.7   -925.75439 
  543000       542500    -9221.052    1163.4197   -10384.472    4355.9207   -14740.392    128.98321    -739.2121    -881.4214   -1339.7745    -280.8466    35.761955    166.39205      46.7237      46.7237      46.7237           90           90           90     102002.7   -986.80265 
  544000       543500   -9206.8365    1167.4105   -10374.247    4366.6703   -14740.917    129.42565    -387.5326   -152.78359   -705.71702   -140.64648    188.15007    59.201282      46.7237      46.7237      46.7237           90           90           90     102002.7    -415.3444 
  545000       544500   -9175.1833     1173.917     -10349.1    4392.8633   -14741.964      130.147   -538.43693   -56.256921   -671.01716      239.093   -86.816955   -184.31048      46.7237      46.7237      46.7237           90           90           90     102002.7   -421.90367 
  546000       545500   -9212.2049    1174.2072   -10386.412    4363.8921   -14750.304    130.17917   -713.78927   -610.14004   -41.854488    175.36406   -107.10164    119.27352      46.7237      46.7237      46.7237           90           90           90     102002.7   -455.26127 
  547000       546500   -9201.5415    1175.6088    -10377.15    4363.9278   -14741.078    130.33456   -373.11273   -475.40649   -777.71013    -331.5322   -162.28852   -241.24088      46.7237      46.7237      46.7237           90           90           90     102002.7   -542.07645 
  548000       547500   -9235.2973     1158.046   -10393.343    4365.2985   -14758.642    128.38745   -733.47514   -815.64715   -306.82493   -35.788091   -39.023981    133.09149      46.7237      46.7237      46.7237           90           90           90     102002.7   -618.64907 
  549000       548500   -9192.1025    1172.3202   -10364.423    4359.1851   -14723.608    129.96997   -943.12071   -273.74415   -641.94131    76.801031    144.40728    341.27291      46.7237      46.7237      46.7237           90           90           90     102002.7   -619.60206 
  550000       549500   -9193.0322     1182.331   -10375.363    4378.9265    -14754.29    131.07982   -746.66621   -476.21868   -306.46221   -141.29357   -347.57915    2.9935329      46.7237      46.7237      46.7237           90           90           90     102002.7   -509.78237 
  551000       550500   -9193.4595     1181.464   -10374.923    4374.4071   -14749.331     130.9837   -749.86828   -822.36473   -371.65583     154.1763   -45.980103    154.08397      46.7237      46.7237      46.7237           90           90           90     102002.7   -647.96295 
  552000       551500   -9224.2589    1162.0587   -10386.318     4373.311   -14759.629    128.83233   -732.99857   -612.97114   -438.36561     12.47183    54.957799    25.047632      46.7237      46.7237      46.7237           90           90           90     102002.7   -594.77844 
  553000       552500   -9140.1525    1211.0843   -10351.237     4390.958   -14742.195    134.26758   -727.91792   -243.14481   -1004.0576   -21.062471   -129.33575    171.66337      46.7237      46.7237      46.7237           90           90           90     102002.7   -658.37344 
  554000       553500    -9157.533    1192.2497   -10349.783    4392.9115   -14742.694    132.17946   -648.59968   -945.67032   -603.34636    192.84158    276.72639   -122.05168      46.7237      46.7237      46.7237           90           90           90     102002.7   -732.53879 
  555000       554500   -9204.0725    1162.6171    -10366.69    4395.8325   -14762.522    128.89423   -325.03879   -932.06426   -738.53902    87.538418   -24.177921   -1.4278817      46.7237      46.7237      46.7237           90           90           90     102002.7   -665.21402 
[...]
  936000       935500   -9228.6631    1155.0056   -10383.669    4351.1841   -14734.853    128.05037   -475.10576   -637.38857   -777.11441   -418.13443    44.326866   -244.89598      46.7237      46.7237      46.7237           90           90           90     102002.7   -629.86958 
  937000       936500   -9186.5655    1194.5637   -10381.129     4373.016   -14754.145    132.43601   -726.80729   -594.13222   -390.79134   -222.65196    223.28925   -149.42904      46.7237      46.7237      46.7237           90           90           90     102002.7   -570.57695 
  938000       937500   -9234.7425    1164.5697   -10399.312    4362.3332   -14761.645     129.1107   -865.73726   -672.97295   -711.18892   -105.13295    22.286913    180.75605      46.7237      46.7237      46.7237           90           90           90     102002.7   -749.96638 
  939000       938500   -9204.3575     1172.473    -10376.83    4370.7425   -14747.573    129.98691   -903.23369   -770.34302   -891.87773     25.26616    4.2132445   -104.66075      46.7237      46.7237      46.7237           90           90           90     102002.7   -855.15148 
  940000       939500   -9228.2137    1183.1565    -10411.37    4341.2267   -14752.597    131.17135   -276.75667   -835.48875   -370.98466    -152.8952    59.934872   -51.115827      46.7237      46.7237      46.7237           90           90           90     102002.7   -494.41003 
  941000       940500    -9186.994    1184.0217   -10371.016    4368.5148    -14739.53    131.26727   -522.36226   -167.00576   -613.07581   -18.194723    337.97915   -37.200016      46.7237      46.7237      46.7237           90           90           90     102002.7   -434.14794 
  942000       941500   -9221.3336    1179.1488   -10400.482    4365.4979    -14765.98    130.72702   -269.08013   -457.55381   -863.62355    198.88272     250.7608   -43.007108      46.7237      46.7237      46.7237           90           90           90     102002.7   -530.08583 
  943000       942500   -9262.8565    1144.4009   -10407.257       4365.7   -14772.957    126.87469   -259.76021   -996.03701   -637.05156    87.534607   -48.640753    -64.09938      46.7237      46.7237      46.7237           90           90           90     102002.7   -630.94959 
  944000       943500   -9211.1544    1179.4032   -10390.558    4359.8995   -14750.457    130.75523   -151.39378   -851.14803   -409.31271   -44.753233    123.14205   -165.93332      46.7237      46.7237      46.7237           90           90           90     102002.7   -470.61818 
  945000       944500   -9232.5804    1169.9241   -10402.505    4330.0408   -14732.545    129.70433    -971.9374    -1175.981   -369.12767    96.656734   -101.42334   -170.38933      46.7237      46.7237      46.7237           90           90           90     102002.7   -839.01534 
  946000       945500   -9210.4007    1182.1891    -10392.59    4359.8545   -14752.444     131.0641   -567.94794   -638.64052   -706.88285   -46.044893   -48.999532    44.351467      46.7237      46.7237      46.7237           90           90           90     102002.7   -637.82377 
  947000       946500   -9192.3828    1170.0761   -10362.459     4376.378   -14738.837    129.72118   -683.77158    -749.0769   -278.48935    153.95671   -89.841408   -176.33426      46.7237      46.7237      46.7237           90           90           90     102002.7   -570.44594 
  948000       947500    -9204.175    1197.4219   -10401.597    4347.9572   -14749.554    132.75289   -513.91866   -335.16261   -595.81846   -36.382743    67.068922   -183.10741      46.7237      46.7237      46.7237           90           90           90     102002.7   -481.63325 
  949000       948500    -9232.589    1163.9258   -10396.515    4352.5182   -14749.033    129.03932   -670.12108   -243.29437   -436.03147    255.95498    270.69037   -103.98837      46.7237      46.7237      46.7237           90           90           90     102002.7   -449.81564 
  950000       949500   -9234.7203    1175.0465   -10409.767    4318.7633    -14728.53    130.27222   -739.87982   -887.11811   -404.31953    20.444763   -165.19936   -321.64717      46.7237      46.7237      46.7237           90           90           90     102002.7   -677.10582 
  951000       950500   -9205.2099    1191.4913   -10396.701    4324.9442   -14721.645    132.09538   -721.64387   -359.20493   -582.61929    107.24474   -14.081875    123.92152      46.7237      46.7237      46.7237           90           90           90     102002.7   -554.48936 
  952000       951500   -9199.1587    1174.3134   -10373.472    4369.2326   -14742.705    130.19095   -818.66501   -879.36647   -611.19993   -81.296041   -136.58205    135.92796      46.7237      46.7237      46.7237           90           90           90     102002.7    -769.7438 
  953000       952500   -9228.7199    1166.9349   -10395.655    4333.5779   -14729.233    129.37293   -705.96493   -1101.1983   -335.41952   -118.10695    -282.6103    9.8403768      46.7237      46.7237      46.7237           90           90           90     102002.7   -714.19424 
  954000       953500   -9226.5372    1153.8587   -10380.396    4345.9732   -14726.369    127.92323    -467.2238   -687.33084   -832.22448   -322.54279    230.79054    329.70301      46.7237      46.7237      46.7237           90           90           90     102002.7   -662.25971 
  955000       954500   -9189.8887     1179.186   -10369.075    4383.1956    -14752.27    130.73115   -533.10197   -885.58871   -428.12844    23.601927   -171.85244   -78.344773      46.7237      46.7237      46.7237           90           90           90     102002.7   -615.60637 
  956000       955500   -9197.3649     1185.059   -10382.424    4351.0832   -14733.507    131.38226   -863.74891   -710.06415    -724.6791   -184.84182    221.39623   -208.07177      46.7237      46.7237      46.7237           90           90           90     102002.7   -766.16405 
  957000       956500   -9210.3225    1188.2958   -10398.618    4350.8972   -14749.516    131.74112   -359.67072   -483.41381   -1192.2924   -179.70087    96.146228    20.553648      46.7237      46.7237      46.7237           90           90           90     102002.7   -678.45899 
  958000       957500   -9194.5371    1190.1959   -10384.733    4358.8302   -14743.563    131.95177   -782.45248   -593.38774   -259.51831   -217.88071   -113.72738   -173.49609      46.7237      46.7237      46.7237           90           90           90     102002.7   -545.11951 
  959000       958500     -9219.64    1176.4857   -10396.126    4368.3192   -14764.445    130.43178   -997.72277   -868.74643   -717.33781    96.545291    368.54087    21.651417      46.7237      46.7237      46.7237           90           90           90     102002.7     -861.269 
  960000       959500   -9216.2214    1161.3152   -10377.537    4365.8267   -14743.363     128.7499   -410.35841   -449.75631   -446.88974    128.95902    147.86789   -237.17759      46.7237      46.7237      46.7237           90           90           90     102002.7   -435.66815 
  961000       960500   -9217.8207    1166.9614   -10384.782    4366.5977    -14751.38    129.37587   -798.86538   -239.07586   -563.70818   -297.32838   -157.00464    279.88083      46.7237      46.7237      46.7237           90           90           90     102002.7   -533.88314 
  962000       961500   -9235.1591    1151.3136   -10386.473     4352.482   -14738.955    127.64106   -167.34959   -839.50056   -552.39941    128.05918   -162.12796    220.66539      46.7237      46.7237      46.7237           90           90           90     102002.7   -519.74985 
  963000       962500   -9172.4936    1205.1233   -10377.617    4343.7405   -14721.357     133.6067    -373.2358   -806.46717   -497.58422    -39.12299   -29.638345   -102.10527      46.7237      46.7237      46.7237           90           90           90     102002.7   -559.09573 
  964000       963500   -9241.6012    1153.1448   -10394.746    4353.1071   -14747.853    127.84408   -1109.0249   -614.92258   -675.78761   -314.11631    361.23435   -130.45416      46.7237      46.7237      46.7237           90           90           90     102002.7   -799.91168 
  965000       964500   -9249.2085    1173.1255   -10422.334    4332.8412   -14755.175    130.05926   -814.69375   -360.65704   -500.23445   -196.52013    104.34783    20.499713      46.7237      46.7237      46.7237           90           90           90     102002.7   -558.52841 
  966000       965500   -9211.8857    1184.3774   -10396.263    4347.6878   -14743.951     131.3067   -448.83475   -410.09298   -558.17271   -205.24898    122.32754    165.54645      46.7237      46.7237      46.7237           90           90           90     102002.7   -472.36681 
  967000       966500   -9213.6021    1184.5496   -10398.152     4338.564   -14736.716    131.32579   -512.23402   -268.44023   -650.08541   -284.68691    60.625317   -120.11503      46.7237      46.7237      46.7237           90           90           90     102002.7   -476.91989 
  968000       967500   -9217.1307    1172.2193    -10389.35    4366.0828   -14755.433    129.95879    -513.9776   -396.71519   -278.10108   -9.5241226    345.23152    -25.79841      46.7237      46.7237      46.7237           90           90           90     102002.7   -396.26462 
  969000       968500    -9230.311    1137.6602   -10367.971       4368.2   -14736.171    126.12737    -522.8584   -794.95086   -585.55136   -131.95439    65.328186   -259.49422      46.7237      46.7237      46.7237           90           90           90     102002.7   -634.45354 
  970000       969500   -9217.1573    1163.0649   -10380.222    4368.8161   -14749.038    128.94388   -519.45358   -1307.6254   -630.95706    147.45653    5.4659384   -117.73277      46.7237      46.7237      46.7237           90           90           90     102002.7   -819.34535 
  971000       970500   -9251.0803    1142.5442   -10393.624    4352.7193   -14746.344    126.66884    -213.9167   -121.52005   -678.74372    98.014433   -12.115788    81.963894      46.7237      46.7237      46.7237           90           90           90     102002.7   -338.06016 
  972000       971500   -9227.7753    1173.2564   -10401.032    4335.2101   -14736.242    130.07376   -823.33033   -888.82784   -743.27083    -58.45978     67.52849    28.799977      46.7237      46.7237      46.7237           90           90           90     102002.7   -818.47633 
  973000       972500   -9163.0548    1205.3063   -10368.361    4359.2077   -14727.569      133.627   -684.85065   -638.37103   -507.11276   -173.77519    -71.87502   -236.58836      46.7237      46.7237      46.7237           90           90           90     102002.7   -610.11148 
  974000       973500   -9201.1522    1184.7834   -10385.936    4358.0198   -14743.955    131.35171   -445.22334   -379.30717    -710.0091    51.184468   -319.93782   -163.62509      46.7237      46.7237      46.7237           90           90           90     102002.7    -511.5132 
  975000       974500   -9251.7028    1157.9383   -10409.641     4342.375   -14752.016    128.37551    -1169.581   -946.84951   -364.56009    173.45422   -5.0208404    375.79723      46.7237      46.7237      46.7237           90           90           90     102002.7   -826.99687 
  976000       975500   -9220.3086    1159.8163   -10380.125    4352.5994   -14732.724    128.58372   -419.40153   -926.12325   -502.89789   -52.063637    110.06374    128.66513      46.7237      46.7237      46.7237           90           90           90     102002.7   -616.14089 
  977000       976500   -9170.6465    1174.4565   -10345.103    4387.6061   -14732.709    130.20682    -613.4057   -929.24136   -685.07217    213.22618     170.5335   -88.356441      46.7237      46.7237      46.7237           90           90           90     102002.7   -742.57307 
  978000       977500   -9191.2042    1180.8578   -10372.062    4357.2024   -14729.264     130.9165   -1209.7288   -647.79403   -659.94592    36.975812    67.501524    238.72355      46.7237      46.7237      46.7237           90           90           90     102002.7   -839.15624 
  979000       978500    -9178.446    1207.9464   -10386.392    4372.4452   -14758.838    133.91969   -555.57594   -818.15564   -464.66825   -186.45569   -29.365886    144.62282      46.7237      46.7237      46.7237           90           90           90     102002.7   -612.79994 
  980000       979500   -9212.2814    1171.6024   -10383.884    4367.8379   -14751.722    129.89039   -1004.5038   -524.60846   -444.06312    1.6401067    2.8460818    59.697093      46.7237      46.7237      46.7237           90           90           90     102002.7   -657.72512 
  981000       980500   -9238.9755    1158.6035   -10397.579     4352.331    -14749.91    128.44927   -631.10003   -90.900784   -550.83002    100.61652   -146.05127   -29.935229      46.7237      46.7237      46.7237           90           90           90     102002.7   -424.27694 
  982000       981500   -9256.2722    1159.5444   -10415.817    4341.1854   -14757.002    128.55358   -141.48969   -896.58662   -239.30459   -21.834962   -190.40995    183.75769      46.7237      46.7237      46.7237           90           90           90     102002.7   -425.79364 
  983000       982500   -9199.4611    1173.0074   -10372.469     4389.117   -14761.586    130.04616   -643.02702   -615.32902    -700.3201    63.379553    123.73252   -140.28573      46.7237      46.7237      46.7237           90           90           90     102002.7   -652.89205 
  984000       983500   -9212.7825    1181.1105   -10393.893    4368.8609   -14762.754    130.94451   -262.10098   -1238.3513    -695.6751    253.49613    74.336561    138.78765      46.7237      46.7237      46.7237           90           90           90     102002.7   -732.04246 
  985000       984500   -9203.4994    1192.6454   -10396.145    4357.0451    -14753.19    132.22334   -876.92666   -754.56843    -741.3649   -102.41411    156.14055   -101.63676      46.7237      46.7237      46.7237           90           90           90     102002.7   -790.95333 
  986000       985500   -9194.9711    1177.8177   -10372.789    4383.2609    -14756.05    130.57945   -341.60157   -795.67037    -822.8602    -165.8598    20.446451   -132.26541      46.7237      46.7237      46.7237           90           90           90     102002.7   -653.37738 
  987000       986500   -9223.9259    1167.8766   -10391.803    4360.7268   -14752.529    129.47733    -438.0488   -695.96628   -492.19968    243.31267    211.25385    153.50689      46.7237      46.7237      46.7237           90           90           90     102002.7   -542.07159 
  988000       987500   -9244.6766    1164.2277   -10408.904    4353.3733   -14762.278     129.0728   -418.00388   -583.07667   -609.25031   -233.42253    60.668467    57.334988      46.7237      46.7237      46.7237           90           90           90     102002.7   -536.77695 
  989000       988500   -9233.9035    1183.2397   -10417.143    4355.8293   -14772.973    131.18056   -880.68878    -999.1375    -206.0092    -79.19246   -272.33306    514.08306      46.7237      46.7237      46.7237           90           90           90     102002.7   -695.27849 
  990000       989500   -9207.1243    1187.5819   -10394.706     4340.792   -14735.498    131.66197   -227.72804   -484.90377    -353.3421   -77.292317    21.872104    180.96351      46.7237      46.7237      46.7237           90           90           90     102002.7   -355.32464 
  991000       990500   -9183.3417    1181.0067   -10364.348    4368.6358   -14732.984    130.93301   -932.45176   -773.41371   -772.44129     162.5247   -42.912548   -13.756396      46.7237      46.7237      46.7237           90           90           90     102002.7   -826.10225 
  992000       991500   -9278.3781    1128.2209   -10406.599    4354.3511    -14760.95    125.08088   -1230.4297   -1064.3291   -360.33442   -70.785902    322.83365   -75.734413      46.7237      46.7237      46.7237           90           90           90     102002.7   -885.03108 
  993000       992500   -9215.6396    1149.6379   -10365.278     4366.529   -14731.807    127.45529   -430.66028   -684.27502    -562.5879    1.9266459   -92.342954    238.45856      46.7237      46.7237      46.7237           90           90           90     102002.7    -559.1744 
  994000       993500   -9197.9689    1168.9311     -10366.9    4370.2911   -14737.191    129.59423   -315.47865   -598.96249   -914.40822   -153.67048    327.90766      254.321      46.7237      46.7237      46.7237           90           90           90     102002.7   -609.61645 
  995000       994500    -9163.505    1219.1237   -10382.629    4350.7733   -14733.402    135.15887   -490.37413    -1231.493    -138.4211    130.17066    202.95501   -77.214998      46.7237      46.7237      46.7237           90           90           90     102002.7   -620.09608 
  996000       995500    -9193.151    1174.8293    -10367.98    4356.3671   -14724.347    130.24814   -691.22326   -308.47374   -324.49119   -35.184147   -2.6060058   -110.61189      46.7237      46.7237      46.7237           90           90           90     102002.7   -441.39606 
  997000       996500   -9202.6006    1186.1759   -10388.776    4380.8167   -14769.593    131.50609   -1553.1015   -582.56925   -221.90142    132.88106    307.51532    67.775809      46.7237      46.7237      46.7237           90           90           90     102002.7   -785.85739 
  998000       997500   -9227.3338    1169.0928   -10396.427    4358.6639   -14755.091    129.61216   -259.60374   -882.37202   -133.62518   -80.602704    -75.30765   -196.77128      46.7237      46.7237      46.7237           90           90           90     102002.7   -425.20031 
  999000       998500   -9232.3426    1168.7376    -10401.08    4340.0999    -14741.18    129.57279   -476.72048   -699.84863   -227.82948   -52.286769    264.45476   -85.453873      46.7237      46.7237      46.7237           90           90           90     102002.7   -468.13286 
 1000000       999500   -9231.0308      1157.44   -10388.471    4371.1948   -14759.666    128.32027   -912.40207   -451.79307   -660.21197   -240.22034    152.26443    -37.00778      46.7237      46.7237      46.7237           90           90           90     102002.7   -674.80237 
 1000500      1000000   -9210.8934    1176.2523   -10387.146    4357.9793   -14745.125     130.4059   -647.45697   -236.39578   -645.84727     71.91895     238.0469    246.43235      46.7237      46.7237      46.7237           90           90           90     102002.7   -509.90001 
Loop time of 2330.23 on 16 procs for 500000 steps with 3027 atoms

Performance: 18.539 ns/day, 1.295 hours/ns, 214.571 timesteps/s
99.8% CPU use with 16 MPI tasks x no OpenMP threads

MPI task timing breakdown:
Section |  min time  |  avg time  |  max time  |%varavg| %total
---------------------------------------------------------------
Pair    | 896.45     | 1365       | 1818.2     | 957.9 | 58.58
Bond    | 117.06     | 183.52     | 252.73     | 435.5 |  7.88
Neigh   | 17.438     | 17.513     | 17.647     |   1.8 |  0.75
Comm    | 218.27     | 731.76     | 1251.8     |1515.9 | 31.40
Output  | 0.13039    | 0.13635    | 0.13687    |   0.4 |  0.01
Modify  | 22.821     | 25.706     | 27.898     |  37.5 |  1.10
Other   |            | 6.634      |            |       |  0.28

Nlocal:    189.188 ave 238 max 146 min
Histogram: 3 1 1 1 2 3 0 3 1 1
Nghost:    3829.56 ave 3869 max 3781 min
Histogram: 1 1 0 1 3 4 2 1 2 1
Neighs:    11467.1 ave 18349 max 3770 min
Histogram: 1 2 3 2 0 0 1 3 2 2

Total # of neighbors = 183474
Ave neighs/atom = 60.6125
Ave special neighs/atom = 3.80575
Neighbor list builds = 5217
Dangerous builds = 0
Total wall time: 1:10:46
