LAMMPS (30 Mar 2018)
Reading data file ...
  orthogonal box = (0 0 0) to (46.7237 46.7237 46.7237)
  2 by 3 by 4 MPI processor grid
  reading atoms ...
  1745 atoms
  scanning bonds ...
  5 = max bonds/atom
  scanning angles ...
  10 = max angles/atom
  scanning dihedrals ...
  32 = max dihedrals/atom
  scanning impropers ...
  3 = max impropers/atom
  reading bonds ...
  2064 bonds
  reading angles ...
  3696 angles
  reading dihedrals ...
  6240 dihedrals
  reading impropers ...
  1008 impropers
Finding 1-2 1-3 1-4 neighbors ...
  special bond factors lj:   0          0          0         
  special bond factors coul: 0          0          0         
  5 = max # of 1-2 neighbors
  8 = max # of 1-3 neighbors
  20 = max # of 1-4 neighbors
  19 = max # of special neighbors
Finding 1-2 1-3 1-4 neighbors ...
  special bond factors lj:   0          0          1         
  special bond factors coul: 1          1          1         
  5 = max # of 1-2 neighbors
  8 = max # of 1-3 neighbors
  19 = max # of special neighbors
WARNING: Using 'neigh_modify every 1 delay 0 check yes' setting during minimization (../min.cpp:168)
Neighbor list info ...
  update every 1 steps, delay 0 steps, check yes
  max neighbors/atom: 2000, page size: 100000
  master list distance cutoff = 16
  ghost atom cutoff = 16
  binsize = 8, bins = 6 6 6
  3 neighbor lists, perpetual/occasional/extra = 3 0 0
  (1) pair buck6d/coul/gauss/dsf, perpetual, skip from (3)
      attributes: half, newton on
      pair build: skip
      stencil: none
      bin: none
  (2) pair lj/cut, perpetual, skip from (3)
      attributes: half, newton on
      pair build: skip
      stencil: none
      bin: none
  (3) neighbor class addition, perpetual
      attributes: half, newton on
      pair build: half/bin/newton
      stencil: half/bin/3d/newton
      bin: standard
Setting up cg style minimization ...
  Unit style    : real
  Current step  : 0
WARNING: Inconsistent image flags (../domain.cpp:786)
Per MPI rank memory allocation (min/avg/max) = 22.87 | 23.28 | 24.42 Mbytes
Step Temp E_pair E_mol TotEng Press 
       0            0   -11562.196    6482.8914   -5079.3047    6270.5454 
     506            0    -11595.59    3741.9363   -7853.6532   -514.84208 
Loop time of 1.16886 on 24 procs for 506 steps with 1745 atoms

99.8% CPU use with 24 MPI tasks x no OpenMP threads

Minimization stats:
  Stopping criterion = max force evaluations
  Energy initial, next-to-last, final = 
        -5079.30466922     -7853.64869101     -7853.65320658
  Force two-norm initial, final = 2576.89 2.98241
  Force max component initial, final = 152.065 0.312141
  Final line search alpha, max atom move = 0.0337629 0.0105388
  Iterations, force evaluations = 506 1000

MPI task timing breakdown:
Section |  min time  |  avg time  |  max time  |%varavg| %total
---------------------------------------------------------------
Pair    | 0.44113    | 0.59799    | 0.73588    |  10.6 | 51.16
Bond    | 0.1178     | 0.15641    | 0.20221    |   5.0 | 13.38
Neigh   | 0.0046097  | 0.004705   | 0.0047862  |   0.1 |  0.40
Comm    | 0.25515    | 0.38863    | 0.53102    |  13.2 | 33.25
Output  | 0          | 0          | 0          |   0.0 |  0.00
Modify  | 0          | 0          | 0          |   0.0 |  0.00
Other   |            | 0.02112    |            |       |  1.81

Nlocal:    72.7083 ave 86 max 57 min
Histogram: 1 0 4 3 3 3 2 6 1 1
Nghost:    1985.54 ave 2161 max 1893 min
Histogram: 16 0 0 0 0 0 0 0 0 8
Neighs:    7624.88 ave 11169 max 4279 min
Histogram: 2 1 1 6 3 2 3 3 2 1

Total # of neighbors = 182997
Ave neighs/atom = 104.869
Ave special neighs/atom = 6.60172
Neighbor list builds = 9
Dangerous builds = 0
Neighbor list info ...
  update every 1 steps, delay 10 steps, check yes
  max neighbors/atom: 2000, page size: 100000
  master list distance cutoff = 16
  ghost atom cutoff = 16
  binsize = 8, bins = 6 6 6
  3 neighbor lists, perpetual/occasional/extra = 3 0 0
  (1) pair buck6d/coul/gauss/dsf, perpetual, skip from (3)
      attributes: half, newton on
      pair build: skip
      stencil: none
      bin: none
  (2) pair lj/cut, perpetual, skip from (3)
      attributes: half, newton on
      pair build: skip
      stencil: none
      bin: none
  (3) neighbor class addition, perpetual
      attributes: half, newton on
      pair build: half/bin/newton
      stencil: half/bin/3d/newton
      bin: standard
Setting up Verlet run ...
  Unit style    : real
  Current step  : 506
  Time step     : 1
WARNING: Inconsistent image flags (../domain.cpp:786)
Per MPI rank memory allocation (min/avg/max) = 22.52 | 22.67 | 23.29 Mbytes
Step Temp PotEng TotEng Press Volume Lx Ly Lz 
     506          110   -7853.6532   -7281.8146   -258.57393     102002.7      46.7237      46.7237      46.7237 
    1000    93.413091   -7328.1985   -6842.5875   -726.18064     102002.7      46.7237      46.7237      46.7237 
    2000    106.01164   -7234.0407   -6682.9357   -773.39238     102002.7      46.7237      46.7237      46.7237 
    3000    107.54017    -7268.483    -6709.432   -856.97406     102002.7      46.7237      46.7237      46.7237 
    4000    109.49888   -7271.7548   -6702.5213   -420.72201     102002.7      46.7237      46.7237      46.7237 
    5000    111.26354   -7270.7916   -6692.3844   -741.39653     102002.7      46.7237      46.7237      46.7237 
    6000    109.79681   -7297.2918   -6726.5095   -439.24026     102002.7      46.7237      46.7237      46.7237 
    7000    112.37986    -7265.804   -6681.5937   -397.52723     102002.7      46.7237      46.7237      46.7237 
    8000    109.52705   -7257.1533   -6687.7733    -819.5986     102002.7      46.7237      46.7237      46.7237 
    9000    108.33933   -7284.6565   -6721.4509   -850.60272     102002.7      46.7237      46.7237      46.7237 
   10000    107.30548   -7269.6708   -6711.8398   -895.56908     102002.7      46.7237      46.7237      46.7237 
   11000    111.20461   -7263.7192   -6685.6184   -821.89192     102002.7      46.7237      46.7237      46.7237 
   12000     108.5251   -7266.7889   -6702.6176   -468.12406     102002.7      46.7237      46.7237      46.7237 
   13000     108.5001   -7253.2064   -6689.1651   -1073.3586     102002.7      46.7237      46.7237      46.7237 
   14000    108.67054   -7259.0603   -6694.1329   -715.09035     102002.7      46.7237      46.7237      46.7237 
   15000    111.75133   -7262.0807   -6681.1378   -726.42064     102002.7      46.7237      46.7237      46.7237 
   16000     108.9853   -7259.3679   -6692.8043   -970.85954     102002.7      46.7237      46.7237      46.7237 
   17000    108.44602    -7262.498   -6698.7378   -831.55222     102002.7      46.7237      46.7237      46.7237 
   18000    111.71169   -7273.9087   -6693.1719   -718.36498     102002.7      46.7237      46.7237      46.7237 
   19000    110.64326   -7268.9865   -6693.8039   -620.86647     102002.7      46.7237      46.7237      46.7237 
   20000    111.05629   -7256.5344   -6679.2047   -480.49119     102002.7      46.7237      46.7237      46.7237 
   21000    105.42631   -7271.6812   -6723.6191   -620.34727     102002.7      46.7237      46.7237      46.7237 
   22000     113.4078   -7267.9229   -6678.3688   -818.49677     102002.7      46.7237      46.7237      46.7237 
   23000    109.94767   -7266.8251   -6695.2585    -899.6489     102002.7      46.7237      46.7237      46.7237 
   24000     111.8761   -7259.3836   -6677.7921   -556.28598     102002.7      46.7237      46.7237      46.7237 
   25000    108.09965    -7261.849   -6699.8894   -737.28406     102002.7      46.7237      46.7237      46.7237 
   26000    108.02644   -7282.4477   -6720.8687   -629.98239     102002.7      46.7237      46.7237      46.7237 
   27000    110.45591   -7268.2812   -6694.0726   -713.38935     102002.7      46.7237      46.7237      46.7237 
   28000    108.57464   -7253.0353   -6688.6065   -777.99824     102002.7      46.7237      46.7237      46.7237 
   29000    110.14951    -7274.369   -6701.7532   -570.13109     102002.7      46.7237      46.7237      46.7237 
   30000     111.8019   -7257.6774   -6676.4716   -746.22338     102002.7      46.7237      46.7237      46.7237 
   31000    107.20546    -7271.792   -6714.4809   -1213.1833     102002.7      46.7237      46.7237      46.7237 
   32000    110.04699   -7280.4139    -6708.331   -774.35916     102002.7      46.7237      46.7237      46.7237 
   33000    111.34148   -7251.1929   -6672.3806   -1262.6862     102002.7      46.7237      46.7237      46.7237 
   34000    107.80644   -7277.6119   -6717.1766   -736.87749     102002.7      46.7237      46.7237      46.7237 
   35000    110.38412   -7270.7821   -6696.9467   -947.39067     102002.7      46.7237      46.7237      46.7237 
   36000    107.89761    -7269.936   -6709.0267   -999.16868     102002.7      46.7237      46.7237      46.7237 
   37000    109.95707   -7272.7539   -6701.1385   -742.85323     102002.7      46.7237      46.7237      46.7237 
   38000    112.86969   -7242.9275   -6656.1707    -860.3593     102002.7      46.7237      46.7237      46.7237 
   39000    109.20463    -7273.353   -6705.6491   -734.91923     102002.7      46.7237      46.7237      46.7237 
   40000    109.23633   -7247.4493   -6679.5806   -767.30999     102002.7      46.7237      46.7237      46.7237 
   41000    110.06018   -7256.9798   -6684.8284    -945.8609     102002.7      46.7237      46.7237      46.7237 
   42000    106.58973   -7290.3792   -6736.2689   -694.05552     102002.7      46.7237      46.7237      46.7237 
   43000    109.79288   -7249.2485   -6678.4866   -884.07206     102002.7      46.7237      46.7237      46.7237 
   44000     111.9147   -7280.4498   -6698.6576   -675.84412     102002.7      46.7237      46.7237      46.7237 
   45000    111.30478   -7257.6457   -6679.0241   -721.30019     102002.7      46.7237      46.7237      46.7237 
   46000    109.65675   -7268.7138   -6698.6596   -687.00636     102002.7      46.7237      46.7237      46.7237 
   47000    113.15657   -7245.8739   -6657.6258   -743.56325     102002.7      46.7237      46.7237      46.7237 
   48000    111.90675   -7260.5096   -6678.7587   -705.23752     102002.7      46.7237      46.7237      46.7237 
   49000    111.56443   -7282.8894   -6702.9181   -843.33415     102002.7      46.7237      46.7237      46.7237 
   50000     111.2303   -7250.1338   -6671.8994   -1002.7881     102002.7      46.7237      46.7237      46.7237 
   51000    109.17373   -7276.5364   -6708.9932   -1037.5712     102002.7      46.7237      46.7237      46.7237 
   52000    109.43007   -7276.9999   -6708.1241   -600.21383     102002.7      46.7237      46.7237      46.7237 
   53000    107.46169   -7286.3365   -6727.6934   -815.24854     102002.7      46.7237      46.7237      46.7237 
   54000    109.96141   -7261.8344   -6690.1964   -701.44836     102002.7      46.7237      46.7237      46.7237 
   55000     110.0557   -7280.8138   -6708.6857   -676.20703     102002.7      46.7237      46.7237      46.7237 
   56000    107.91712    -7275.001   -6713.9903   -467.02463     102002.7      46.7237      46.7237      46.7237 
   57000    107.41589   -7248.4762   -6690.0712   -915.03181     102002.7      46.7237      46.7237      46.7237 
   58000    110.98394   -7290.4186   -6713.4649    -1051.096     102002.7      46.7237      46.7237      46.7237 
   59000    110.90687   -7272.0952   -6695.5422   -689.93741     102002.7      46.7237      46.7237      46.7237 
   60000    110.87691   -7262.0798   -6685.6825    -664.3753     102002.7      46.7237      46.7237      46.7237 
   61000    109.15068   -7267.5206   -6700.0972   -759.69958     102002.7      46.7237      46.7237      46.7237 
   62000    107.86324   -7282.4802   -6721.7496   -488.64275     102002.7      46.7237      46.7237      46.7237 
   63000    110.91734   -7263.8162   -6687.2088   -663.88817     102002.7      46.7237      46.7237      46.7237 
   64000    110.23021   -7265.5661   -6692.5307   -831.15533     102002.7      46.7237      46.7237      46.7237 
   65000     108.7303   -7272.3455   -6707.1075   -755.22382     102002.7      46.7237      46.7237      46.7237 
   66000    110.60975   -7268.0283   -6693.0199   -1006.3465     102002.7      46.7237      46.7237      46.7237 
   67000    109.60652   -7264.1175   -6694.3244   -955.41468     102002.7      46.7237      46.7237      46.7237 
   68000    112.63307    -7271.111   -6685.5843   -691.08839     102002.7      46.7237      46.7237      46.7237 
   69000     110.0449   -7274.6315   -6702.5594   -1194.1621     102002.7      46.7237      46.7237      46.7237 
   70000    109.20452   -7282.3598   -6714.6566   -697.22856     102002.7      46.7237      46.7237      46.7237 
   71000    108.02348   -7262.5885   -6701.0248   -810.15792     102002.7      46.7237      46.7237      46.7237 
   72000    108.99743   -7275.2096   -6708.5829   -724.40079     102002.7      46.7237      46.7237      46.7237 
   73000    111.04201   -7260.8997   -6683.6441   -494.33277     102002.7      46.7237      46.7237      46.7237 
   74000    109.66127   -7270.4764   -6700.3987   -713.87475     102002.7      46.7237      46.7237      46.7237 
   75000    106.60045   -7259.4195   -6705.2536   -652.68943     102002.7      46.7237      46.7237      46.7237 
   76000    108.52136   -7252.0366   -6687.8848   -824.91663     102002.7      46.7237      46.7237      46.7237 
   77000    108.50598   -7277.7977   -6713.7258   -806.77003     102002.7      46.7237      46.7237      46.7237 
   78000     108.8503   -7262.7525   -6696.8906   -567.43988     102002.7      46.7237      46.7237      46.7237 
   79000    105.31752   -7284.7121   -6737.2155   -641.15649     102002.7      46.7237      46.7237      46.7237 
   80000    113.18171   -7280.3575   -6691.9787   -585.20932     102002.7      46.7237      46.7237      46.7237 
   81000    109.78998    -7245.298   -6674.5512   -722.78899     102002.7      46.7237      46.7237      46.7237 
   82000    111.65628   -7291.6381   -6711.1892   -651.80188     102002.7      46.7237      46.7237      46.7237 
   83000    112.91533   -7257.8563   -6670.8622   -478.72375     102002.7      46.7237      46.7237      46.7237 
   84000    109.43637   -7277.7102   -6708.8016   -583.94828     102002.7      46.7237      46.7237      46.7237 
   85000    110.17462   -7267.1302   -6694.3838   -651.80818     102002.7      46.7237      46.7237      46.7237 
   86000    110.27358   -7289.1682   -6715.9074   -706.91447     102002.7      46.7237      46.7237      46.7237 
   87000    111.31002   -7270.3363   -6691.6875   -1004.2732     102002.7      46.7237      46.7237      46.7237 
   88000    108.42357    -7292.175   -6728.5315   -793.13462     102002.7      46.7237      46.7237      46.7237 
   89000    109.49252   -7252.4338   -6683.2333   -723.42588     102002.7      46.7237      46.7237      46.7237 
   90000    109.30918   -7272.4708   -6704.2235   -734.29966     102002.7      46.7237      46.7237      46.7237 
   91000    110.91648   -7272.0764   -6695.4734   -525.07339     102002.7      46.7237      46.7237      46.7237 
   92000       110.97   -7285.9692    -6709.088   -866.24197     102002.7      46.7237      46.7237      46.7237 
   93000    110.34515   -7277.5356   -6703.9027   -965.92958     102002.7      46.7237      46.7237      46.7237 
   94000    109.80583   -7266.0591   -6695.2299   -1071.0136     102002.7      46.7237      46.7237      46.7237 
   95000    111.40794   -7249.3851   -6670.2273   -929.80695     102002.7      46.7237      46.7237      46.7237 
   96000    107.62151   -7268.8708   -6709.3969   -804.44294     102002.7      46.7237      46.7237      46.7237 
   97000    108.19299   -7255.8188    -6693.374   -522.17972     102002.7      46.7237      46.7237      46.7237 
   98000    105.53436    -7276.979   -6728.3552   -624.56769     102002.7      46.7237      46.7237      46.7237 
   99000    112.44252   -7278.5972   -6694.0611   -455.20125     102002.7      46.7237      46.7237      46.7237 
  100000    109.22532   -7267.7975   -6699.9861   -656.39747     102002.7      46.7237      46.7237      46.7237 
  101000    113.65199   -7264.4534   -6673.6298   -612.84767     102002.7      46.7237      46.7237      46.7237 
  102000    109.02783   -7263.7235   -6696.9387   -659.55762     102002.7      46.7237      46.7237      46.7237 
  103000    104.16951   -7281.5657   -6740.0371   -1098.1569     102002.7      46.7237      46.7237      46.7237 
  104000    109.29506   -7260.0593   -6691.8853   -768.41877     102002.7      46.7237      46.7237      46.7237 
  105000    112.07095   -7274.1045      -6691.5   -642.51029     102002.7      46.7237      46.7237      46.7237 
  106000    106.67333   -7275.4995   -6720.9547   -491.06623     102002.7      46.7237      46.7237      46.7237 
  107000     109.3558   -7263.3382   -6694.8485   -593.13277     102002.7      46.7237      46.7237      46.7237 
  108000    110.40728   -7275.3576   -6701.4017   -478.79747     102002.7      46.7237      46.7237      46.7237 
  109000    109.40697   -7269.1483   -6700.3926   -783.09321     102002.7      46.7237      46.7237      46.7237 
  110000    111.62032   -7266.1202   -6685.8583   -827.04845     102002.7      46.7237      46.7237      46.7237 
  111000    113.82823   -7272.3877   -6680.6479   -573.06986     102002.7      46.7237      46.7237      46.7237 
  112000    109.43706   -7271.4284   -6702.5162   -829.81635     102002.7      46.7237      46.7237      46.7237 
  113000    111.36005   -7267.4056   -6688.4967   -622.93062     102002.7      46.7237      46.7237      46.7237 
  114000    111.47905   -7267.9952   -6688.4677   -515.16334     102002.7      46.7237      46.7237      46.7237 
  115000    106.75262   -7291.6894   -6736.7324   -852.29369     102002.7      46.7237      46.7237      46.7237 
  116000    112.92559   -7257.0031   -6669.9557    -700.0778     102002.7      46.7237      46.7237      46.7237 
  117000    106.35699   -7256.6791   -6703.7788   -634.96125     102002.7      46.7237      46.7237      46.7237 
  118000    109.82788   -7260.9029    -6689.959   -543.59333     102002.7      46.7237      46.7237      46.7237 
  119000    109.00591   -7274.1327    -6707.462   -654.19682     102002.7      46.7237      46.7237      46.7237 
  120000    110.67283   -7248.8564     -6673.52    -267.9127     102002.7      46.7237      46.7237      46.7237 
  121000    107.50664   -7274.4838    -6715.607   -414.40226     102002.7      46.7237      46.7237      46.7237 
  122000     110.4667   -7262.8489   -6688.5841   -530.12678     102002.7      46.7237      46.7237      46.7237 
  123000    111.24362   -7249.0216    -6670.718    -584.7591     102002.7      46.7237      46.7237      46.7237 
  124000    110.01673   -7271.6122   -6699.6866    -654.7033     102002.7      46.7237      46.7237      46.7237 
  125000    112.64268   -7261.1629   -6675.5862   -624.97199     102002.7      46.7237      46.7237      46.7237 
  126000    109.27618   -7274.8851   -6706.8093   -683.80002     102002.7      46.7237      46.7237      46.7237 
  127000    109.97258   -7284.1266   -6712.4305   -689.02338     102002.7      46.7237      46.7237      46.7237 
  128000    109.81877   -7256.9466   -6686.0501   -753.22493     102002.7      46.7237      46.7237      46.7237 
  129000    109.51571   -7254.9552   -6685.6342   -622.04617     102002.7      46.7237      46.7237      46.7237 
  130000    113.34611   -7261.6256   -6672.3921   -792.46615     102002.7      46.7237      46.7237      46.7237 
  131000    110.60582   -7281.6318   -6706.6438   -644.31087     102002.7      46.7237      46.7237      46.7237 
  132000    109.83909   -7259.6001    -6688.598   -676.82986     102002.7      46.7237      46.7237      46.7237 
  133000    108.32871   -7271.0291   -6707.8788   -788.69034     102002.7      46.7237      46.7237      46.7237 
  134000    106.81126   -7276.9172   -6721.6553   -1037.3117     102002.7      46.7237      46.7237      46.7237 
  135000     108.9469   -7258.0415   -6691.6774   -997.37932     102002.7      46.7237      46.7237      46.7237 
  136000    108.32419   -7282.6779   -6719.5511   -738.50344     102002.7      46.7237      46.7237      46.7237 
  137000    108.54938    -7273.624   -6709.3265   -1041.4683     102002.7      46.7237      46.7237      46.7237 
  138000    111.24532   -7265.9882   -6687.6757   -941.22503     102002.7      46.7237      46.7237      46.7237 
  139000      110.656   -7262.4889   -6687.2401   -822.81475     102002.7      46.7237      46.7237      46.7237 
  140000    110.72829   -7285.9501   -6710.3255   -811.45135     102002.7      46.7237      46.7237      46.7237 
  141000    114.70344   -7289.1501   -6692.8605   -856.08916     102002.7      46.7237      46.7237      46.7237 
  142000    107.82285   -7263.9661   -6703.4455    -926.5632     102002.7      46.7237      46.7237      46.7237 
  143000    108.23664   -7268.8033   -6706.1315   -614.90276     102002.7      46.7237      46.7237      46.7237 
  144000    110.86349   -7275.4982   -6699.1708   -930.36964     102002.7      46.7237      46.7237      46.7237 
  145000    111.24161   -7276.1055   -6697.8124   -651.65934     102002.7      46.7237      46.7237      46.7237 
  146000    109.33797   -7265.7435   -6697.3464    -967.6044     102002.7      46.7237      46.7237      46.7237 
  147000    109.65582   -7290.1077   -6720.0583   -450.82635     102002.7      46.7237      46.7237      46.7237 
  148000     112.2726   -7281.4389   -6697.7861   -808.86068     102002.7      46.7237      46.7237      46.7237 
  149000     110.3965   -7252.4885   -6678.5887   -409.21801     102002.7      46.7237      46.7237      46.7237 
  150000    108.36589    -7254.622   -6691.2784   -389.04519     102002.7      46.7237      46.7237      46.7237 
  151000    109.15136   -7268.9657   -6701.5388   -897.60958     102002.7      46.7237      46.7237      46.7237 
  152000    112.77841   -7256.5963   -6670.3141   -619.41561     102002.7      46.7237      46.7237      46.7237 
  153000      112.643   -7275.3975   -6689.8192   -347.34218     102002.7      46.7237      46.7237      46.7237 
  154000    108.95494   -7257.7114   -6691.3056   -685.09032     102002.7      46.7237      46.7237      46.7237 
  155000    109.19988   -7258.6157   -6690.9366   -716.66552     102002.7      46.7237      46.7237      46.7237 
  156000    112.80164   -7278.3043   -6691.9012   -242.09444     102002.7      46.7237      46.7237      46.7237 
  157000    116.02078   -7267.8373   -6664.6995   -506.04106     102002.7      46.7237      46.7237      46.7237 
  158000    109.43823   -7267.6986   -6698.7804   -431.92178     102002.7      46.7237      46.7237      46.7237 
  159000    109.24551   -7263.9689   -6696.0525   -741.07349     102002.7      46.7237      46.7237      46.7237 
  160000    107.50691   -7247.2668   -6688.3886    -606.8155     102002.7      46.7237      46.7237      46.7237 
  161000    106.00194   -7279.1262   -6728.0717   -943.71172     102002.7      46.7237      46.7237      46.7237 
  162000    109.91832   -7263.1394   -6691.7254   -993.51139     102002.7      46.7237      46.7237      46.7237 
  163000    108.90032   -7280.8672   -6714.7453   -840.15751     102002.7      46.7237      46.7237      46.7237 
  164000    109.44254   -7259.4546   -6690.5139   -867.74406     102002.7      46.7237      46.7237      46.7237 
  165000     107.4458   -7262.2665    -6703.706   -874.74527     102002.7      46.7237      46.7237      46.7237 
  166000    109.58319   -7271.7477   -6702.0759   -888.46473     102002.7      46.7237      46.7237      46.7237 
  167000    110.38021   -7258.8857   -6685.0706   -581.76445     102002.7      46.7237      46.7237      46.7237 
  168000    112.12517   -7258.5258   -6675.6394   -773.71562     102002.7      46.7237      46.7237      46.7237 
  169000    109.74765   -7265.6903   -6695.1636   -970.94491     102002.7      46.7237      46.7237      46.7237 
  170000    109.52859    -7291.093   -6721.7051   -401.36497     102002.7      46.7237      46.7237      46.7237 
  171000    110.50738   -7275.9995   -6701.5233   -780.53325     102002.7      46.7237      46.7237      46.7237 
  172000    113.54365   -7269.3388   -6679.0785   -379.85968     102002.7      46.7237      46.7237      46.7237 
  173000    111.29926   -7272.4402   -6693.8473   -695.11779     102002.7      46.7237      46.7237      46.7237 
  174000    109.82243   -7284.0588   -6713.1432   -635.22136     102002.7      46.7237      46.7237      46.7237 
  175000    110.07515   -7261.2612    -6689.032    -698.0523     102002.7      46.7237      46.7237      46.7237 
  176000    109.37038   -7285.2939   -6716.7284   -548.17016     102002.7      46.7237      46.7237      46.7237 
  177000    107.66149   -7262.1646   -6702.4828   -412.26783     102002.7      46.7237      46.7237      46.7237 
  178000    114.51703   -7239.4168   -6644.0963    -555.1193     102002.7      46.7237      46.7237      46.7237 
  179000     109.8192   -7287.2035   -6716.3048   -745.12597     102002.7      46.7237      46.7237      46.7237 
  180000     109.7421   -7248.7227   -6678.2248   -729.03081     102002.7      46.7237      46.7237      46.7237 
  181000     112.5112   -7260.4206   -6675.5274   -734.98375     102002.7      46.7237      46.7237      46.7237 
  182000     109.4697    -7266.004   -6696.9223   -562.87174     102002.7      46.7237      46.7237      46.7237 
  183000    112.71553   -7270.7111   -6684.7557   -799.98894     102002.7      46.7237      46.7237      46.7237 
  184000    105.35215   -7255.4487   -6707.7721   -626.25441     102002.7      46.7237      46.7237      46.7237 
  185000    113.81255   -7271.3309   -6679.6726   -594.14226     102002.7      46.7237      46.7237      46.7237 
  186000    112.30645   -7271.1473   -6687.3186   -569.41268     102002.7      46.7237      46.7237      46.7237 
  187000    107.93724   -7268.8871   -6707.7718   -877.80064     102002.7      46.7237      46.7237      46.7237 
  188000    104.99456   -7263.3944   -6717.5768   -765.40547     102002.7      46.7237      46.7237      46.7237 
  189000    108.81035   -7271.5957   -6705.9415   -539.77358     102002.7      46.7237      46.7237      46.7237 
  190000    112.63549   -7261.7856   -6676.2463   -716.34427     102002.7      46.7237      46.7237      46.7237 
  191000    109.45191   -7280.3201   -6711.3308    -615.6614     102002.7      46.7237      46.7237      46.7237 
  192000    107.92504   -7244.9802   -6683.9283   -907.29725     102002.7      46.7237      46.7237      46.7237 
  193000    114.20718    -7284.937   -6691.2272   -1037.6089     102002.7      46.7237      46.7237      46.7237 
  194000     107.9772   -7274.1261   -6712.8032   -1026.4721     102002.7      46.7237      46.7237      46.7237 
  195000    110.00042   -7268.8996   -6697.0588   -1133.5603     102002.7      46.7237      46.7237      46.7237 
  196000    112.36138   -7252.6761   -6668.5618   -896.51277     102002.7      46.7237      46.7237      46.7237 
  197000    109.71161   -7258.3907   -6688.0513   -879.24309     102002.7      46.7237      46.7237      46.7237 
  198000    105.14431   -7274.4032   -6727.8071   -637.53686     102002.7      46.7237      46.7237      46.7237 
  199000    110.30891   -7273.6563   -6700.2119   -688.96352     102002.7      46.7237      46.7237      46.7237 
  200000    110.04848   -7250.7901   -6678.6995   -639.59889     102002.7      46.7237      46.7237      46.7237 
  201000    109.23792   -7269.3694   -6701.4925   -725.64141     102002.7      46.7237      46.7237      46.7237 
  202000     108.2488   -7280.1815   -6717.4466   -891.30749     102002.7      46.7237      46.7237      46.7237 
  203000    110.91716   -7271.0283   -6694.4218   -829.91078     102002.7      46.7237      46.7237      46.7237 
  204000    109.60763   -7262.0901   -6692.2912   -706.66495     102002.7      46.7237      46.7237      46.7237 
  205000    109.34156   -7286.2372   -6717.8216   -733.05089     102002.7      46.7237      46.7237      46.7237 
  206000    115.39089   -7261.7239   -6661.8606   -953.52009     102002.7      46.7237      46.7237      46.7237 
  207000    110.49481   -7278.5377   -6704.1269   -833.56193     102002.7      46.7237      46.7237      46.7237 
  208000    107.80687   -7259.0653   -6698.6277   -734.27574     102002.7      46.7237      46.7237      46.7237 
  209000    113.00689   -7258.5347   -6671.0647   -1088.1874     102002.7      46.7237      46.7237      46.7237 
  210000    109.90087   -7269.4557   -6698.1324   -720.99621     102002.7      46.7237      46.7237      46.7237 
  211000    111.52326   -7283.9858   -6704.2285   -775.00784     102002.7      46.7237      46.7237      46.7237 
  212000    111.70841   -7266.1292   -6685.4093    -845.0471     102002.7      46.7237      46.7237      46.7237 
  213000    108.75661   -7270.2871   -6704.9123   -753.93324     102002.7      46.7237      46.7237      46.7237 
  214000    110.47325   -7277.2267   -6702.9278   -878.33579     102002.7      46.7237      46.7237      46.7237 
  215000    108.65607   -7262.8502   -6697.9981   -560.77471     102002.7      46.7237      46.7237      46.7237 
  216000    109.74048   -7275.3669   -6704.8774   -943.87047     102002.7      46.7237      46.7237      46.7237 
  217000     110.0663   -7273.8091   -6701.6258    -614.1954     102002.7      46.7237      46.7237      46.7237 
  218000    108.43215   -7270.4033   -6706.7152   -681.90142     102002.7      46.7237      46.7237      46.7237 
  219000    113.06146   -7266.0495   -6678.2958   -730.81549     102002.7      46.7237      46.7237      46.7237 
  220000    112.82475   -7281.6689   -6695.1458   -452.33912     102002.7      46.7237      46.7237      46.7237 
  221000    110.36141   -7268.1067   -6694.3893   -680.40866     102002.7      46.7237      46.7237      46.7237 
  222000    112.67033   -7271.2956   -6685.5752   -792.75226     102002.7      46.7237      46.7237      46.7237 
  223000    107.93579   -7287.3965   -6726.2888   -737.12248     102002.7      46.7237      46.7237      46.7237 
  224000    110.88624   -7266.9415   -6690.4958   -644.98774     102002.7      46.7237      46.7237      46.7237 
  225000    109.08546   -7269.2633   -6702.1789   -663.18177     102002.7      46.7237      46.7237      46.7237 
  226000    111.11018   -7251.4661   -6673.8561   -739.71234     102002.7      46.7237      46.7237      46.7237 
  227000    111.06136   -7286.2019   -6708.8458   -706.40272     102002.7      46.7237      46.7237      46.7237 
  228000    108.33383   -7261.6211   -6698.4441   -541.37769     102002.7      46.7237      46.7237      46.7237 
  229000    109.73797     -7293.47   -6722.9935   -675.70999     102002.7      46.7237      46.7237      46.7237 
  230000      108.087   -7262.6914   -6700.7976   -918.93409     102002.7      46.7237      46.7237      46.7237 
  231000    108.72232   -7262.5336   -6697.3371    -868.8233     102002.7      46.7237      46.7237      46.7237 
  232000    110.42479   -7274.5289   -6700.4821   -869.70318     102002.7      46.7237      46.7237      46.7237 
  233000    113.53388   -7259.3529   -6669.1433   -783.49394     102002.7      46.7237      46.7237      46.7237 
  234000    110.32337   -7286.1673   -6712.6476     -607.577     102002.7      46.7237      46.7237      46.7237 
  235000    107.17607   -7272.5923    -6715.434   -638.56171     102002.7      46.7237      46.7237      46.7237 
  236000    110.69788   -7262.9455    -6687.479    -495.0644     102002.7      46.7237      46.7237      46.7237 
  237000    109.64105   -7268.9746    -6699.002   -738.35049     102002.7      46.7237      46.7237      46.7237 
  238000    108.00537   -7272.5072   -6711.0378   -925.42526     102002.7      46.7237      46.7237      46.7237 
  239000    110.04677   -7252.7056   -6680.6238    -994.6484     102002.7      46.7237      46.7237      46.7237 
  240000    111.30071   -7280.1725   -6701.5721   -758.70641     102002.7      46.7237      46.7237      46.7237 
  241000    111.67556   -7273.3051    -6692.756   -545.07316     102002.7      46.7237      46.7237      46.7237 
  242000    109.48245    -7269.981   -6700.8329   -656.06737     102002.7      46.7237      46.7237      46.7237 
  243000    107.20725   -7261.9267   -6704.6063   -673.33816     102002.7      46.7237      46.7237      46.7237 
  244000     106.4605   -7257.0876   -6703.6492   -612.94226     102002.7      46.7237      46.7237      46.7237 
  245000    110.01078   -7272.0015   -6700.1068   -839.92408     102002.7      46.7237      46.7237      46.7237 
  246000     109.6059   -7239.4155   -6669.6256    -638.0905     102002.7      46.7237      46.7237      46.7237 
  247000    110.84237   -7275.1063   -6698.8886   -839.42359     102002.7      46.7237      46.7237      46.7237 
  248000      107.725   -7279.2202   -6719.2083   -595.69574     102002.7      46.7237      46.7237      46.7237 
  249000    110.20452   -7265.6756   -6692.7738   -641.67706     102002.7      46.7237      46.7237      46.7237 
  250000     107.2554   -7263.5439   -6705.9732    -660.2046     102002.7      46.7237      46.7237      46.7237 
  251000     109.8095   -7279.3385   -6708.4902   -820.87629     102002.7      46.7237      46.7237      46.7237 
  252000    108.11366   -7265.3613   -6703.3289   -783.92836     102002.7      46.7237      46.7237      46.7237 
  253000    107.75327   -7264.5256   -6704.3667   -675.78685     102002.7      46.7237      46.7237      46.7237 
  254000    108.05308   -7244.5362   -6682.8188   -1085.1167     102002.7      46.7237      46.7237      46.7237 
  255000    109.71444   -7275.9081    -6705.554    -791.9419     102002.7      46.7237      46.7237      46.7237 
  256000    114.08408   -7252.3407   -6659.2709    -939.0055     102002.7      46.7237      46.7237      46.7237 
  257000    111.21078   -7264.9069   -6686.7741   -935.13632     102002.7      46.7237      46.7237      46.7237 
  258000    111.96129   -7282.3148   -6700.2804   -607.48674     102002.7      46.7237      46.7237      46.7237 
  259000    110.90838   -7248.0984   -6671.5375   -913.89785     102002.7      46.7237      46.7237      46.7237 
  260000    111.82549    -7269.412   -6688.0836   -725.80575     102002.7      46.7237      46.7237      46.7237 
  261000    109.62037   -7278.3003   -6708.4352     -973.418     102002.7      46.7237      46.7237      46.7237 
  262000    108.81694   -7275.8566   -6710.1681   -946.81113     102002.7      46.7237      46.7237      46.7237 
  263000    111.84622   -7260.3622   -6678.9259   -962.64892     102002.7      46.7237      46.7237      46.7237 
  264000    109.31701    -7279.806   -6711.5179   -1269.9687     102002.7      46.7237      46.7237      46.7237 
  265000    109.91914   -7279.8747   -6708.4564   -631.51619     102002.7      46.7237      46.7237      46.7237 
  266000    114.88818   -7280.1133   -6682.8634   -469.25656     102002.7      46.7237      46.7237      46.7237 
  267000    111.48845   -7276.0725   -6696.4962   -816.51358     102002.7      46.7237      46.7237      46.7237 
  268000    106.70695   -7267.4176    -6712.698   -503.98751     102002.7      46.7237      46.7237      46.7237 
  269000     110.0458   -7249.4505   -6677.3738   -849.23319     102002.7      46.7237      46.7237      46.7237 
  270000    110.29906    -7278.057   -6704.6637   -640.63647     102002.7      46.7237      46.7237      46.7237 
  271000    108.19267    -7255.866   -6693.4228   -964.32887     102002.7      46.7237      46.7237      46.7237 
  272000     109.6465   -7277.2557   -6707.2548   -656.87587     102002.7      46.7237      46.7237      46.7237 
  273000     108.7435   -7252.0537    -6686.747   -808.84385     102002.7      46.7237      46.7237      46.7237 
  274000    110.70326   -7268.3302   -6692.8356   -749.85741     102002.7      46.7237      46.7237      46.7237 
  275000    111.75932   -7286.4825    -6705.498   -771.07376     102002.7      46.7237      46.7237      46.7237 
  276000     106.4544    -7251.959   -6698.5523   -978.03639     102002.7      46.7237      46.7237      46.7237 
  277000    108.85222   -7276.9693   -6711.0974   -904.03522     102002.7      46.7237      46.7237      46.7237 
  278000    112.51973   -7254.4847   -6669.5472   -859.57734     102002.7      46.7237      46.7237      46.7237 
  279000    108.15508   -7269.0104   -6706.7626    -699.8196     102002.7      46.7237      46.7237      46.7237 
  280000     112.5389   -7275.1573   -6690.1201   -755.84766     102002.7      46.7237      46.7237      46.7237 
  281000    109.16055   -7292.4688   -6724.9941   -787.69458     102002.7      46.7237      46.7237      46.7237 
  282000    109.10113   -7261.4995   -6694.3337   -900.48549     102002.7      46.7237      46.7237      46.7237 
  283000    108.93067    -7277.491   -6711.2113   -1151.9253     102002.7      46.7237      46.7237      46.7237 
  284000    110.48768   -7271.8009    -6697.427   -981.82265     102002.7      46.7237      46.7237      46.7237 
  285000    116.01602   -7264.8846   -6661.7715   -975.83256     102002.7      46.7237      46.7237      46.7237 
  286000    111.90482   -7272.8063   -6691.0654   -958.47433     102002.7      46.7237      46.7237      46.7237 
  287000    107.23843   -7312.0267   -6754.5442   -792.58721     102002.7      46.7237      46.7237      46.7237 
  288000    107.76343   -7256.3058   -6696.0941   -822.05204     102002.7      46.7237      46.7237      46.7237 
  289000    108.58781   -7270.4872   -6705.9899   -756.13497     102002.7      46.7237      46.7237      46.7237 
  290000    110.00551   -7263.8622   -6691.9949   -983.70176     102002.7      46.7237      46.7237      46.7237 
  291000    108.45717   -7279.1763   -6715.3581   -951.87238     102002.7      46.7237      46.7237      46.7237 
  292000    108.04263   -7270.2251    -6708.562   -1318.8341     102002.7      46.7237      46.7237      46.7237 
  293000    107.11136   -7282.7299   -6725.9079    -796.7714     102002.7      46.7237      46.7237      46.7237 
  294000    110.92744   -7273.8449    -6697.185   -839.98907     102002.7      46.7237      46.7237      46.7237 
  295000    108.04586   -7290.1416   -6728.4616   -648.99251     102002.7      46.7237      46.7237      46.7237 
  296000     112.3873   -7272.8507   -6688.6017   -681.08247     102002.7      46.7237      46.7237      46.7237 
  297000    106.96774   -7264.3291   -6708.2537   -521.79187     102002.7      46.7237      46.7237      46.7237 
  298000     109.3252   -7278.1249   -6709.7943   -706.28711     102002.7      46.7237      46.7237      46.7237 
  299000    110.45009   -7263.4925    -6689.314   -566.64781     102002.7      46.7237      46.7237      46.7237 
  300000    109.31142   -7263.8064   -6695.5474   -870.14887     102002.7      46.7237      46.7237      46.7237 
  301000    105.80167   -7264.7915    -6714.778   -813.70597     102002.7      46.7237      46.7237      46.7237 
  302000    112.92319    -7270.587   -6683.5521   -927.60157     102002.7      46.7237      46.7237      46.7237 
  303000    110.02223   -7261.2821   -6689.3279    -664.8687     102002.7      46.7237      46.7237      46.7237 
  304000    109.34825     -7277.53   -6709.0795   -806.54899     102002.7      46.7237      46.7237      46.7237 
  305000     112.7324    -7254.497   -6668.4539   -851.63027     102002.7      46.7237      46.7237      46.7237 
  306000    105.94802   -7251.4653    -6700.691   -953.54807     102002.7      46.7237      46.7237      46.7237 
  307000    110.81405   -7267.5108   -6691.4404   -987.12665     102002.7      46.7237      46.7237      46.7237 
  308000    106.66933   -7281.7161    -6727.192    -948.7871     102002.7      46.7237      46.7237      46.7237 
  309000    109.95917   -7274.2214   -6702.5951   -989.77409     102002.7      46.7237      46.7237      46.7237 
  310000    107.95136     -7266.43   -6705.2414   -719.09497     102002.7      46.7237      46.7237      46.7237 
  311000    110.95016   -7267.2683   -6690.4903   -764.32675     102002.7      46.7237      46.7237      46.7237 
  312000    110.35436   -7263.9679   -6690.2871   -554.54999     102002.7      46.7237      46.7237      46.7237 
  313000    111.63646   -7271.3502   -6691.0044   -859.67394     102002.7      46.7237      46.7237      46.7237 
  314000    109.79734    -7271.691   -6700.9059   -728.51926     102002.7      46.7237      46.7237      46.7237 
  315000    112.59503   -7271.2445   -6685.9155   -752.46776     102002.7      46.7237      46.7237      46.7237 
  316000    106.43176    -7268.565   -6715.2761   -755.29819     102002.7      46.7237      46.7237      46.7237 
  317000    109.06305   -7274.7112   -6707.7433   -300.39601     102002.7      46.7237      46.7237      46.7237 
  318000    108.42058   -7256.3977   -6692.7697   -659.88026     102002.7      46.7237      46.7237      46.7237 
  319000    110.38329   -7259.0499   -6685.2187   -817.00302     102002.7      46.7237      46.7237      46.7237 
  320000    111.46617   -7273.4022   -6693.9416   -570.06434     102002.7      46.7237      46.7237      46.7237 
  321000    112.13801   -7271.1026   -6688.1495    -731.3854     102002.7      46.7237      46.7237      46.7237 
  322000    111.33293   -7274.6721   -6695.9042   -904.32964     102002.7      46.7237      46.7237      46.7237 
  323000     108.5504   -7287.3969   -6723.0941   -616.85261     102002.7      46.7237      46.7237      46.7237 
  324000    109.31345   -7253.5613   -6685.2918   -546.97348     102002.7      46.7237      46.7237      46.7237 
  325000    113.55101   -7268.2803   -6677.9816   -619.11867     102002.7      46.7237      46.7237      46.7237 
  326000    108.82286   -7272.7923   -6707.0731   -800.28535     102002.7      46.7237      46.7237      46.7237 
  327000    114.32259   -7282.7235   -6688.4138   -736.86673     102002.7      46.7237      46.7237      46.7237 
  328000    111.23265   -7262.2239   -6683.9773   -716.01186     102002.7      46.7237      46.7237      46.7237 
  329000    105.55023   -7270.6259   -6721.9196   -1012.0375     102002.7      46.7237      46.7237      46.7237 
  330000    107.47246   -7275.7674   -6717.0683   -851.96824     102002.7      46.7237      46.7237      46.7237 
  331000     107.0025   -7254.4392   -6698.1832   -548.29007     102002.7      46.7237      46.7237      46.7237 
  332000    113.50588   -7273.6691    -6683.605   -796.21471     102002.7      46.7237      46.7237      46.7237 
  333000    111.33495   -7303.7155   -6724.9372   -464.90552     102002.7      46.7237      46.7237      46.7237 
  334000    108.55623   -7272.0269   -6707.6938   -505.43768     102002.7      46.7237      46.7237      46.7237 
  335000    114.41104   -7247.7898   -6653.0202   -804.53355     102002.7      46.7237      46.7237      46.7237 
  336000    105.62218   -7264.6594    -6715.579   -725.02455     102002.7      46.7237      46.7237      46.7237 
  337000    114.46501   -7285.5404   -6690.4903   -473.64131     102002.7      46.7237      46.7237      46.7237 
  338000    111.39716   -7243.4665   -6664.3648   -1048.9525     102002.7      46.7237      46.7237      46.7237 
  339000    109.69703   -7274.8671   -6704.6035   -704.55574     102002.7      46.7237      46.7237      46.7237 
  340000    110.67369   -7266.9675   -6691.6267   -592.35174     102002.7      46.7237      46.7237      46.7237 
  341000    108.55035    -7281.938   -6717.6355    -800.9137     102002.7      46.7237      46.7237      46.7237 
  342000    109.78074   -7255.7373   -6685.0386    -738.3435     102002.7      46.7237      46.7237      46.7237 
  343000    114.46058   -7251.5392   -6656.5122   -741.29983     102002.7      46.7237      46.7237      46.7237 
  344000    107.80978   -7264.9859   -6704.5332   -577.93625     102002.7      46.7237      46.7237      46.7237 
  345000    114.14498   -7274.4126   -6681.0262   -782.75436     102002.7      46.7237      46.7237      46.7237 
  346000    111.88878   -7265.1918   -6683.5343   -577.66612     102002.7      46.7237      46.7237      46.7237 
  347000     111.7076   -7291.9743   -6711.2587   -397.21821     102002.7      46.7237      46.7237      46.7237 
  348000    110.87863   -7272.2893   -6695.8831   -742.63428     102002.7      46.7237      46.7237      46.7237 
  349000    108.73506   -7274.3072   -6709.0445   -451.76581     102002.7      46.7237      46.7237      46.7237 
  350000    109.71255   -7269.5856   -6699.2413   -636.44464     102002.7      46.7237      46.7237      46.7237 
  351000    109.16498   -7255.1259   -6687.6282   -671.84759     102002.7      46.7237      46.7237      46.7237 
  352000    107.71338   -7285.6076   -6725.6561   -523.49591     102002.7      46.7237      46.7237      46.7237 
  353000    109.30723   -7257.0831   -6688.8459   -732.44509     102002.7      46.7237      46.7237      46.7237 
  354000    108.19766   -7271.5281   -6709.0591   -470.14334     102002.7      46.7237      46.7237      46.7237 
  355000    108.11205   -7290.0272   -6728.0032    -812.5319     102002.7      46.7237      46.7237      46.7237 
  356000    112.27157   -7269.7398   -6686.0924   -820.57247     102002.7      46.7237      46.7237      46.7237 
  357000    108.94009   -7284.1261   -6717.7975    -694.3353     102002.7      46.7237      46.7237      46.7237 
  358000    110.92551   -7271.5954   -6694.9455   -780.10831     102002.7      46.7237      46.7237      46.7237 
  359000    113.00939   -7283.8297   -6696.3467   -937.61725     102002.7      46.7237      46.7237      46.7237 
  360000     110.6528   -7282.8613   -6707.6291   -895.66571     102002.7      46.7237      46.7237      46.7237 
  361000    108.71444    -7289.957   -6724.8014   -678.96141     102002.7      46.7237      46.7237      46.7237 
  362000    113.37801   -7278.2372   -6688.8379   -660.96842     102002.7      46.7237      46.7237      46.7237 
  363000    112.93306   -7262.8085   -6675.7222   -839.43714     102002.7      46.7237      46.7237      46.7237 
  364000    108.47182   -7267.0538   -6703.1594     -789.627     102002.7      46.7237      46.7237      46.7237 
  365000    110.53315   -7260.2915   -6685.6813   -724.66717     102002.7      46.7237      46.7237      46.7237 
  366000     109.9206   -7257.6696   -6686.2437   -791.65088     102002.7      46.7237      46.7237      46.7237 
  367000    112.59469   -7270.6428   -6685.3156   -739.52936     102002.7      46.7237      46.7237      46.7237 
  368000    109.78482   -7273.0705   -6702.3505   -695.01438     102002.7      46.7237      46.7237      46.7237 
  369000    110.48628   -7263.7666   -6689.4001   -566.59055     102002.7      46.7237      46.7237      46.7237 
  370000      109.255   -7283.3143   -6715.3487   -601.40125     102002.7      46.7237      46.7237      46.7237 
  371000    107.33715   -7268.3255   -6710.3298   -774.37026     102002.7      46.7237      46.7237      46.7237 
  372000    109.25127   -7250.9509   -6683.0046   -790.45669     102002.7      46.7237      46.7237      46.7237 
  373000    111.69994   -7271.7308    -6691.055   -894.38531     102002.7      46.7237      46.7237      46.7237 
  374000    104.61787   -7248.3141   -6704.4547   -918.14813     102002.7      46.7237      46.7237      46.7237 
  375000    112.56189   -7275.0668   -6689.9101   -1116.3701     102002.7      46.7237      46.7237      46.7237 
  376000    109.51457   -7259.3744   -6690.0593   -488.35366     102002.7      46.7237      46.7237      46.7237 
  377000    109.67829   -7274.9747   -6704.8085   -669.02616     102002.7      46.7237      46.7237      46.7237 
  378000    112.26936   -7260.9477   -6677.3117   -731.50077     102002.7      46.7237      46.7237      46.7237 
  379000    109.40918   -7288.4422    -6719.675   -979.84916     102002.7      46.7237      46.7237      46.7237 
  380000    109.24057   -7276.1632   -6708.2726   -776.96846     102002.7      46.7237      46.7237      46.7237 
  381000    110.50919   -7265.2951   -6690.8094   -784.07913     102002.7      46.7237      46.7237      46.7237 
  382000    111.86995   -7277.6507   -6696.0911   -947.88156     102002.7      46.7237      46.7237      46.7237 
  383000    109.31343   -7272.5191   -6704.2497   -708.50184     102002.7      46.7237      46.7237      46.7237 
  384000    109.08477   -7256.3877   -6689.3069   -816.13694     102002.7      46.7237      46.7237      46.7237 
  385000    110.34444   -7272.2707   -6698.6416   -831.53419     102002.7      46.7237      46.7237      46.7237 
  386000    110.43411    -7246.649   -6672.5537   -914.11234     102002.7      46.7237      46.7237      46.7237 
  387000    110.14505   -7267.7527   -6695.1601   -1063.7353     102002.7      46.7237      46.7237      46.7237 
  388000    111.59714   -7268.2828   -6688.1414   -821.61439     102002.7      46.7237      46.7237      46.7237 
  389000    115.37382   -7264.5895   -6664.8149   -841.90797     102002.7      46.7237      46.7237      46.7237 
  390000    109.16489   -7270.0836   -6702.5864   -731.06308     102002.7      46.7237      46.7237      46.7237 
  391000    111.74417    -7249.036   -6668.1302    -782.5916     102002.7      46.7237      46.7237      46.7237 
  392000    110.63742   -7278.5718   -6703.4196   -734.10383     102002.7      46.7237      46.7237      46.7237 
  393000    108.49399   -7257.9996     -6693.99   -613.12493     102002.7      46.7237      46.7237      46.7237 
  394000    112.45376   -7285.0539   -6700.4593   -883.06405     102002.7      46.7237      46.7237      46.7237 
  395000    108.37537   -7263.7592   -6700.3664   -466.77985     102002.7      46.7237      46.7237      46.7237 
  396000    110.31416   -7259.4458    -6685.974   -864.22655     102002.7      46.7237      46.7237      46.7237 
  397000    110.84317   -7291.9343   -6715.7124   -604.19804     102002.7      46.7237      46.7237      46.7237 
  398000    110.12526   -7269.2102   -6696.7205   -985.57953     102002.7      46.7237      46.7237      46.7237 
  399000    108.83687    -7259.833    -6694.041   -747.60497     102002.7      46.7237      46.7237      46.7237 
  400000    108.45796   -7271.7572    -6707.935   -981.64899     102002.7      46.7237      46.7237      46.7237 
  401000    109.78964   -7264.2868   -6693.5418   -735.12748     102002.7      46.7237      46.7237      46.7237 
  402000    112.27833   -7290.7291   -6707.0465   -718.03018     102002.7      46.7237      46.7237      46.7237 
  403000    110.80148   -7280.0687   -6704.0636   -722.82157     102002.7      46.7237      46.7237      46.7237 
  404000    108.87323   -7268.9338   -6702.9528   -682.96821     102002.7      46.7237      46.7237      46.7237 
  405000    104.95229   -7255.9353   -6710.3373   -785.45677     102002.7      46.7237      46.7237      46.7237 
  406000    106.24716   -7272.0562   -6719.7268   -481.59385     102002.7      46.7237      46.7237      46.7237 
  407000    109.34412   -7284.0164   -6715.5874    -896.6233     102002.7      46.7237      46.7237      46.7237 
  408000    109.39983   -7256.8483   -6688.1297    -490.5218     102002.7      46.7237      46.7237      46.7237 
  409000     107.6878   -7265.9128   -6706.0942   -971.33236     102002.7      46.7237      46.7237      46.7237 
  410000     110.8473   -7271.0065   -6694.7632   -737.11588     102002.7      46.7237      46.7237      46.7237 
  411000      111.409   -7276.4332   -6697.2699   -725.24096     102002.7      46.7237      46.7237      46.7237 
  412000    110.89703   -7292.6374   -6716.1355   -774.72117     102002.7      46.7237      46.7237      46.7237 
  413000    109.54308   -7276.7154   -6707.2521   -823.42955     102002.7      46.7237      46.7237      46.7237 
  414000    110.68248   -7272.2347   -6696.8482   -980.09866     102002.7      46.7237      46.7237      46.7237 
  415000    111.78648   -7267.6382   -6686.5125    -418.4563     102002.7      46.7237      46.7237      46.7237 
  416000    107.28819   -7284.1633   -6726.4221   -776.38976     102002.7      46.7237      46.7237      46.7237 
  417000    108.37992    -7274.135   -6710.7184   -675.13105     102002.7      46.7237      46.7237      46.7237 
  418000    111.19578   -7258.4669    -6680.412   -986.40452     102002.7      46.7237      46.7237      46.7237 
  419000    112.29288   -7269.8159   -6686.0577   -659.74727     102002.7      46.7237      46.7237      46.7237 
  420000    109.37125   -7278.5968   -6710.0268    -889.2271     102002.7      46.7237      46.7237      46.7237 
  421000    107.91116   -7261.1324   -6700.1527   -974.99276     102002.7      46.7237      46.7237      46.7237 
  422000     113.1179   -7232.0675   -6644.0204   -1019.8056     102002.7      46.7237      46.7237      46.7237 
  423000    110.30665   -7275.0223   -6701.5895   -940.98393     102002.7      46.7237      46.7237      46.7237 
  424000    109.92321   -7253.8963   -6682.4569    -744.7597     102002.7      46.7237      46.7237      46.7237 
  425000    111.72223   -7275.6684   -6694.8767   -890.12494     102002.7      46.7237      46.7237      46.7237 
  426000    106.26855   -7265.5033   -6713.0628   -628.51739     102002.7      46.7237      46.7237      46.7237 
  427000    109.96056   -7269.0861   -6697.4526   -586.76616     102002.7      46.7237      46.7237      46.7237 
  428000    108.18841   -7257.6734   -6695.2524   -900.54306     102002.7      46.7237      46.7237      46.7237 
  429000    109.56944   -7282.4714   -6712.8711   -393.23577     102002.7      46.7237      46.7237      46.7237 
  430000    111.89679   -7265.8079   -6684.1088   -698.75794     102002.7      46.7237      46.7237      46.7237 
  431000    111.60996   -7274.9562   -6694.7481   -636.27545     102002.7      46.7237      46.7237      46.7237 
  432000    111.05773   -7270.4442   -6693.1069   -713.90447     102002.7      46.7237      46.7237      46.7237 
  433000    109.36534   -7271.6667   -6703.1274   -800.69456     102002.7      46.7237      46.7237      46.7237 
  434000    110.61542   -7265.6229    -6690.585   -795.07888     102002.7      46.7237      46.7237      46.7237 
  435000    109.96044    -7239.481   -6667.8481   -835.30659     102002.7      46.7237      46.7237      46.7237 
  436000    110.40268   -7283.3248   -6709.3929   -437.97506     102002.7      46.7237      46.7237      46.7237 
  437000    110.46967   -7271.3851   -6697.1048    -462.2099     102002.7      46.7237      46.7237      46.7237 
  438000    111.18189    -7258.777   -6680.7943   -550.34937     102002.7      46.7237      46.7237      46.7237 
  439000    109.47109   -7274.0034   -6704.9143   -635.66913     102002.7      46.7237      46.7237      46.7237 
  440000    113.13646   -7269.3788   -6681.2352   -655.76745     102002.7      46.7237      46.7237      46.7237 
  441000    111.01768   -7279.6124   -6702.4834   -403.44163     102002.7      46.7237      46.7237      46.7237 
  442000    112.31011   -7243.5107    -6659.663    -355.8042     102002.7      46.7237      46.7237      46.7237 
  443000     108.9704   -7280.9727   -6714.4865   -271.52664     102002.7      46.7237      46.7237      46.7237 
  444000    113.55189     -7279.72   -6689.4168   -516.30322     102002.7      46.7237      46.7237      46.7237 
  445000    110.44087   -7258.7367   -6684.6062   -668.81434     102002.7      46.7237      46.7237      46.7237 
  446000    108.86643   -7290.1522   -6724.2065   -843.29057     102002.7      46.7237      46.7237      46.7237 
  447000    111.55615   -7267.4221   -6687.4938   -908.85659     102002.7      46.7237      46.7237      46.7237 
  448000     113.0459   -7286.9398    -6699.267   -707.09441     102002.7      46.7237      46.7237      46.7237 
  449000     109.6185   -7283.2519   -6713.3966   -983.98878     102002.7      46.7237      46.7237      46.7237 
  450000    110.31323   -7244.7537   -6671.2868   -501.01707     102002.7      46.7237      46.7237      46.7237 
  451000    108.39634   -7261.0152   -6697.5133   -933.22121     102002.7      46.7237      46.7237      46.7237 
  452000    110.36484   -7268.6282   -6694.8929   -682.46831     102002.7      46.7237      46.7237      46.7237 
  453000    113.18017   -7265.0804   -6676.7096   -690.90977     102002.7      46.7237      46.7237      46.7237 
  454000    110.31781   -7270.0368   -6696.5461   -676.79082     102002.7      46.7237      46.7237      46.7237 
  455000    106.97091   -7269.7856   -6713.6938    -575.6943     102002.7      46.7237      46.7237      46.7237 
  456000    109.42935   -7249.2528   -6680.3808   -669.30772     102002.7      46.7237      46.7237      46.7237 
  457000    109.82612   -7287.6791   -6716.7445   -670.82264     102002.7      46.7237      46.7237      46.7237 
  458000    111.70797   -7279.4918   -6698.7742   -896.17949     102002.7      46.7237      46.7237      46.7237 
  459000    113.96357   -7249.0684   -6656.6251   -859.41636     102002.7      46.7237      46.7237      46.7237 
  460000    108.05583     -7259.81   -6698.0782    -1102.017     102002.7      46.7237      46.7237      46.7237 
  461000    112.36649    -7249.491   -6665.3501   -770.96681     102002.7      46.7237      46.7237      46.7237 
  462000    108.25326   -7267.4614   -6704.7033   -867.35229     102002.7      46.7237      46.7237      46.7237 
  463000    109.74655   -7267.5997   -6697.0787   -753.68025     102002.7      46.7237      46.7237      46.7237 
  464000    109.19069   -7274.6382   -6707.0068    -636.5162     102002.7      46.7237      46.7237      46.7237 
  465000    108.32677   -7274.9995   -6711.8593   -829.56152     102002.7      46.7237      46.7237      46.7237 
  466000    109.03063   -7253.3599   -6686.5605   -1102.1888     102002.7      46.7237      46.7237      46.7237 
  467000    106.73054   -7283.4179   -6728.5757   -984.00112     102002.7      46.7237      46.7237      46.7237 
  468000    113.24331   -7265.8072   -6677.1081   -532.34039     102002.7      46.7237      46.7237      46.7237 
  469000    107.60151   -7270.6751   -6711.3051   -529.50714     102002.7      46.7237      46.7237      46.7237 
  470000    109.63487   -7283.1587   -6713.2183   -949.16298     102002.7      46.7237      46.7237      46.7237 
  471000    111.00857    -7269.874   -6692.7924   -609.83729     102002.7      46.7237      46.7237      46.7237 
  472000    111.00264    -7268.677   -6691.6262   -817.57995     102002.7      46.7237      46.7237      46.7237 
  473000    109.38852   -7287.2257   -6718.5659   -945.04803     102002.7      46.7237      46.7237      46.7237 
  474000    108.45334   -7270.9591   -6707.1608   -866.87739     102002.7      46.7237      46.7237      46.7237 
  475000    110.24979   -7257.7187   -6684.5816   -723.29415     102002.7      46.7237      46.7237      46.7237 
  476000    109.94558   -7248.3989   -6676.8432   -598.08692     102002.7      46.7237      46.7237      46.7237 
  477000     107.5242   -7278.7085   -6719.7404   -896.05837     102002.7      46.7237      46.7237      46.7237 
  478000    112.92854   -7278.5444   -6691.4818   -762.63746     102002.7      46.7237      46.7237      46.7237 
  479000    108.80396   -7275.0873   -6709.4664   -444.44699     102002.7      46.7237      46.7237      46.7237 
  480000    109.05936   -7254.9412   -6687.9925   -1006.9913     102002.7      46.7237      46.7237      46.7237 
  481000    109.32482   -7257.7866   -6689.4579   -871.77124     102002.7      46.7237      46.7237      46.7237 
  482000    111.63528   -7280.6144   -6700.2748   -882.60154     102002.7      46.7237      46.7237      46.7237 
  483000    112.61957   -7265.9679   -6680.5114   -913.14045     102002.7      46.7237      46.7237      46.7237 
  484000    109.19926   -7260.2367   -6692.5607   -1088.0849     102002.7      46.7237      46.7237      46.7237 
  485000    111.90251   -7249.3461   -6667.6173   -619.58466     102002.7      46.7237      46.7237      46.7237 
  486000    109.75103   -7276.0224   -6705.4781   -757.70484     102002.7      46.7237      46.7237      46.7237 
  487000    110.27907    -7263.871   -6690.5816   -787.03958     102002.7      46.7237      46.7237      46.7237 
  488000     108.3386   -7273.5302   -6710.3284   -740.32756     102002.7      46.7237      46.7237      46.7237 
  489000    109.54526   -7276.9742   -6707.4995   -626.68979     102002.7      46.7237      46.7237      46.7237 
  490000    111.68038   -7258.1119   -6677.5378   -886.21486     102002.7      46.7237      46.7237      46.7237 
  491000    108.45635   -7261.5846   -6697.7708   -322.52947     102002.7      46.7237      46.7237      46.7237 
  492000    112.32965   -7274.6667   -6690.7173   -931.82095     102002.7      46.7237      46.7237      46.7237 
  493000    107.25537   -7267.5899   -6710.0194    -448.9906     102002.7      46.7237      46.7237      46.7237 
  494000    109.03547   -7279.0043   -6712.1798   -671.04079     102002.7      46.7237      46.7237      46.7237 
  495000    111.87902   -7280.4258   -6698.8191   -818.91607     102002.7      46.7237      46.7237      46.7237 
  496000    113.71562   -7287.6232   -6696.4689   -499.46508     102002.7      46.7237      46.7237      46.7237 
  497000    106.49488   -7257.9076   -6704.2905   -720.76382     102002.7      46.7237      46.7237      46.7237 
  498000    109.81545   -7247.8377   -6676.9585   -663.63096     102002.7      46.7237      46.7237      46.7237 
  499000    108.89158   -7289.2699   -6723.1935   -665.87806     102002.7      46.7237      46.7237      46.7237 
  500000    110.99115    -7270.318   -6693.3268   -453.40177     102002.7      46.7237      46.7237      46.7237 
  500506    113.05701   -7276.9086    -6689.178   -852.50591     102002.7      46.7237      46.7237      46.7237 
Loop time of 563.628 on 24 procs for 500000 steps with 1745 atoms

Performance: 76.646 ns/day, 0.313 hours/ns, 887.110 timesteps/s
99.9% CPU use with 24 MPI tasks x no OpenMP threads

MPI task timing breakdown:
Section |  min time  |  avg time  |  max time  |%varavg| %total
---------------------------------------------------------------
Pair    | 193.26     | 274.2      | 372.43     | 287.9 | 48.65
Bond    | 70.218     | 78.154     | 85.452     |  55.8 | 13.87
Neigh   | 1.7635     | 1.7829     | 1.7953     |   0.9 |  0.32
Comm    | 97.061     | 202.21     | 279.02     | 336.6 | 35.88
Output  | 0.32211    | 0.32243    | 0.32613    |   0.1 |  0.06
Modify  | 3.4928     | 3.9334     | 4.3707     |  12.3 |  0.70
Other   |            | 3.029      |            |       |  0.54

Nlocal:    72.7083 ave 96 max 54 min
Histogram: 1 2 2 4 5 6 2 0 1 1
Nghost:    1988.92 ave 2157 max 1890 min
Histogram: 9 7 0 0 0 0 0 0 1 7
Neighs:    7641.79 ave 10439 max 4403 min
Histogram: 2 1 2 3 2 3 3 5 1 2

Total # of neighbors = 183403
Ave neighs/atom = 105.102
Ave special neighs/atom = 6.60172
Neighbor list builds = 3361
Dangerous builds = 0
Neighbor list info ...
  update every 1 steps, delay 10 steps, check yes
  max neighbors/atom: 2000, page size: 100000
  master list distance cutoff = 16
  ghost atom cutoff = 16
  binsize = 8, bins = 6 6 6
  3 neighbor lists, perpetual/occasional/extra = 3 0 0
  (1) pair buck6d/coul/gauss/dsf, perpetual, skip from (3)
      attributes: half, newton on
      pair build: skip
      stencil: none
      bin: none
  (2) pair lj/cut, perpetual, skip from (3)
      attributes: half, newton on
      pair build: skip
      stencil: none
      bin: none
  (3) neighbor class addition, perpetual
      attributes: half, newton on
      pair build: half/bin/newton
      stencil: half/bin/3d/newton
      bin: standard
Setting up Verlet run ...
  Unit style    : real
  Current step  : 500506
  Time step     : 1
WARNING: Inconsistent image flags (../domain.cpp:786)
Per MPI rank memory allocation (min/avg/max) = 24.11 | 24.46 | 24.57 Mbytes
Step Time TotEng KinEng PotEng E_mol E_pair Temp Pxx Pyy Pzz Pxy Pxz Pyz Cella Cellb Cellc CellAlpha CellBeta CellGamma Volume Press 
  500506       500000    -6689.178    587.73057   -7276.9086    4301.5346   -11578.443    113.05701   -570.13752   -1136.7695   -850.61068    207.74288    75.116228    40.886534      46.7237      46.7237      46.7237           90           90           90     102002.7   -852.50591 
  501000       500494   -6743.9462    547.85123   -7291.7975    4288.1933   -11579.991    105.38574   -874.42136   -418.12147   -618.44568   -201.09909   -8.0784223    84.268018      46.7237      46.7237      46.7237           90           90           90     102002.7   -636.99617 
  502000       501494   -6668.4755    587.76128   -7256.2368    4320.5044   -11576.741    113.06292   -826.75265   -902.58797   -1160.8621    120.26469    210.09497    239.26311      46.7237      46.7237      46.7237           90           90           90     102002.7   -963.40091 
  503000       502494   -6696.0037    579.86683   -7275.8705    4317.4627   -11593.333    111.54433   -672.49629   -569.79449   -578.69732   -62.126791    34.993217   -172.07782      46.7237      46.7237      46.7237           90           90           90     102002.7   -606.99603 
  504000       503494   -6724.5754    555.19725   -7279.7726    4296.7021   -11576.475    106.79884   -1003.8599   -973.36005   -441.10385    239.08143    132.01198   -20.431522      46.7237      46.7237      46.7237           90           90           90     102002.7   -806.10793 
  505000       504494   -6680.2133     594.8769   -7275.0902    4296.5647   -11571.655    114.43169   -584.34358    -549.8722   -725.65517    -32.25804    79.825001   -48.454872      46.7237      46.7237      46.7237           90           90           90     102002.7   -619.95698 
  506000       505494   -6718.3379    553.91313    -7272.251    4309.9166   -11582.168    106.55182   -860.80372   -898.09948   -751.66605   -259.14386    36.763913    240.03113      46.7237      46.7237      46.7237           90           90           90     102002.7   -836.85642 
  507000       506494   -6724.7839    563.88949   -7288.6734    4295.3513   -11584.025    108.47089   -894.25944   -669.08928   -850.44984   -84.623117    133.23284   -150.31058      46.7237      46.7237      46.7237           90           90           90     102002.7   -804.59952 
  508000       507494   -6689.7143    579.70539   -7269.4197    4316.7105    -11586.13    111.51327   -656.45925   -988.86372   -538.15817   -130.98991    84.154197   -4.9116518      46.7237      46.7237      46.7237           90           90           90     102002.7   -727.82705 
  509000       508494   -6707.3745     578.3853   -7285.7598    4279.3589   -11565.119    111.25934   -815.54446   -739.63542   -1040.7692    -123.2506   -213.11543   -99.041985      46.7237      46.7237      46.7237           90           90           90     102002.7   -865.31635 
  510000       509494   -6679.9019    591.28413    -7271.186    4312.1397   -11583.326    113.74058   -966.51444   -261.71531    -753.4936   -15.929154     94.31209    54.543492      46.7237      46.7237      46.7237           90           90           90     102002.7   -660.57445 
  511000       510494   -6706.1639    566.86743   -7273.0314    4315.3657   -11588.397    109.04374   -888.08628   -686.49907   -290.68824   -95.691448    230.20448    52.171087      46.7237      46.7237      46.7237           90           90           90     102002.7   -621.75786 
  512000       511494   -6676.5714    584.72708   -7261.2985     4329.468   -11590.766    112.47925   -1029.4541   -738.48358    -877.2615   -19.426362   -123.22156    183.76134      46.7237      46.7237      46.7237           90           90           90     102002.7   -881.73307 
  513000       512494   -6703.7778    571.37488   -7275.1527    4321.6779   -11596.831     109.9108   -680.56044   -801.03779   -903.79259   -39.080883   -214.44669    238.12852      46.7237      46.7237      46.7237           90           90           90     102002.7   -795.13027 
  514000       513494   -6693.5245    563.55387   -7257.0784     4330.624   -11587.702    108.40633   -1022.0867   -827.81638   -833.58639   -368.81075    43.718806   -57.970496      46.7237      46.7237      46.7237           90           90           90     102002.7    -894.4965 
  515000       514494   -6703.2306    574.75108   -7277.9817    4292.6149   -11570.597    110.56025   -354.79429   -501.33836   -1021.0921    370.99028   -182.85483    135.99623      46.7237      46.7237      46.7237           90           90           90     102002.7   -625.74157 
  516000       515494   -6679.3633    574.73391   -7254.0972    4332.9751   -11587.072    110.55695   -700.91982    -801.2007   -585.12282    68.489522     96.44352    61.865356      46.7237      46.7237      46.7237           90           90           90     102002.7   -695.74778 
  517000       516494   -6680.1381    593.48584   -7273.6239    4299.2851   -11572.909    114.16411   -717.29341   -166.01831   -339.07458    31.899398   -92.281204   -144.58153      46.7237      46.7237      46.7237           90           90           90     102002.7    -407.4621 
  518000       517494   -6708.3037    559.95156   -7268.2553    4318.1576   -11586.413    107.71339   -995.83791   -944.81723   -343.22156    -57.36365   -71.231646   -192.21188      46.7237      46.7237      46.7237           90           90           90     102002.7   -761.29223 
  519000       518494   -6681.2766    587.46865   -7268.7453    4312.2552       -11581    113.00663   -772.12984   -98.399397   -646.85238   -17.652567    78.340284   -192.64117      46.7237      46.7237      46.7237           90           90           90     102002.7   -505.79387 
  520000       519494   -6691.5694    577.55576   -7269.1252    4324.8645    -11593.99    111.09976   -184.70863   -1048.8635   -328.69981    92.409687    240.81314    13.888416      46.7237      46.7237      46.7237           90           90           90     102002.7   -520.75733 
  521000       520494   -6690.3397    577.01312   -7267.3528    4307.4459   -11574.799    110.99538   -488.41142    -507.1083   -994.39517    -1.431933    164.97226   -121.80015      46.7237      46.7237      46.7237           90           90           90     102002.7   -663.30496 
  522000       521494   -6667.1182    575.59693   -7242.7151    4355.0785   -11597.794    110.72296   -140.93002   -286.71922   -383.63003    -224.4569   -210.48362   -131.37294      46.7237      46.7237      46.7237           90           90           90     102002.7   -270.42642 
  523000       522494   -6701.7126    581.59403   -7283.3066    4281.9077   -11565.214    111.87657   -745.87506   -1069.5039   -1039.9422     137.7859    -61.56973    127.80918      46.7237      46.7237      46.7237           90           90           90     102002.7   -951.77374 
  524000       523494   -6684.7052    564.91567   -7249.6209    4336.6735   -11586.294    108.66829   -621.48403    -340.1654   -445.18513   -17.572606   -90.702585    4.7468272      46.7237      46.7237      46.7237           90           90           90     102002.7   -468.94485 
  525000       524494   -6682.0857    584.11013   -7266.1958    4329.7236   -11595.919    112.36058   -1283.7177   -987.76322   -1042.2134   -359.91872    12.476447   -21.107308      46.7237      46.7237      46.7237           90           90           90     102002.7   -1104.5648 
  526000       525494   -6709.2606    574.20049   -7283.4611    4288.1426   -11571.604    110.45434   -1030.2908   -509.68972   -1105.4287    16.161091   -117.49588    88.757941      46.7237      46.7237      46.7237           90           90           90     102002.7   -881.80307 
  527000       526494   -6711.5449    564.59708    -7276.142    4309.6357   -11585.778    108.60701   -1164.8388   -854.27286   -607.11653    109.14036   -174.15742    174.43133      46.7237      46.7237      46.7237           90           90           90     102002.7   -875.40939 
  528000       527494   -6686.1345    560.33478   -7246.4693    4342.0413   -11588.511     107.7871   -977.84154   -1239.0353   -863.71112    149.19888    5.3660885    96.044223      46.7237      46.7237      46.7237           90           90           90     102002.7   -1026.8627 
  529000       528494   -6696.1176    581.61141    -7277.729    4320.5846   -11598.314    111.87992   -458.23242   -951.94487   -752.05198    151.77041   -55.209075    190.92529      46.7237      46.7237      46.7237           90           90           90     102002.7   -720.74309 
  530000       529494   -6703.9556    563.10605   -7267.0617     4311.383   -11578.445    108.32019   -490.56516    -759.5573   -410.86242    148.62799    80.473175    230.87254      46.7237      46.7237      46.7237           90           90           90     102002.7   -553.66163 
  531000       530494   -6688.5569    565.13122   -7253.6881    4337.3688   -11591.057    108.70976   -307.62245   -633.21727   -667.49402   -218.99442   -20.775681   -71.819249      46.7237      46.7237      46.7237           90           90           90     102002.7   -536.11124 
  532000       531494   -6714.6228    557.50867   -7272.1315    4331.8592   -11603.991    107.24347     -676.314   -814.98269   -875.67825    52.113839   -193.24642   -90.962738      46.7237      46.7237      46.7237           90           90           90     102002.7   -788.99164 
  533000       532494   -6677.8082    581.64116   -7259.4494    4322.6723   -11582.122    111.88564   -159.91369   -709.72983   -516.58582    181.52668   -7.5165273    16.611518      46.7237      46.7237      46.7237           90           90           90     102002.7   -462.07645 
  534000       533494   -6714.7939    553.54725   -7268.3411    4303.8667   -11572.208    106.48144   -1294.5067   -492.35178    -296.0809   -35.086511   -121.30803    -29.49529      46.7237      46.7237      46.7237           90           90           90     102002.7   -694.31312 
  535000       534494   -6682.5688    579.23105   -7261.7999    4305.6237   -11567.424    111.42203    -1012.827   -1110.7222   -446.30762     59.73976   -72.956667    194.78219      46.7237      46.7237      46.7237           90           90           90     102002.7   -856.61892 
  536000       535494    -6716.561    553.10352   -7269.6645    4311.0408   -11580.705    106.39608   -636.55847   -787.63395   -363.13997   -35.261177    -189.8361    20.320508      46.7237      46.7237      46.7237           90           90           90     102002.7   -595.77747 
  537000       536494   -6709.0973    563.84848   -7272.9458    4307.4402   -11580.386    108.46301   -610.99389   -426.51376   -456.74151    52.268034    27.038092   -116.35343      46.7237      46.7237      46.7237           90           90           90     102002.7   -498.08305 
  538000       537494   -6679.1613    576.74985   -7255.9111    4319.5715   -11575.483    110.94474   -618.06152   -512.29261   -549.39152   -39.817516   -92.314767   -24.106024      46.7237      46.7237      46.7237           90           90           90     102002.7   -559.91521 
  539000       538494   -6717.7162    562.87938   -7280.5956    4302.2961   -11582.892    108.27659   -229.82581     -857.622    -801.8306    40.865428    158.02716   -30.321401      46.7237      46.7237      46.7237           90           90           90     102002.7   -629.75947 
  540000       539494   -6689.9561    581.01762   -7270.9737    4317.6912   -11588.665    111.76569   -748.46036   -796.92771   -477.15313    83.709556    61.634173   -71.965737      46.7237      46.7237      46.7237           90           90           90     102002.7    -674.1804 
  541000       540494    -6708.278    569.61372   -7277.8917    4295.5827   -11573.474    109.57202   -1026.8184   -787.39349   -381.28842   -173.84336   -11.547839    -152.7341      46.7237      46.7237      46.7237           90           90           90     102002.7   -731.83344 
  542000       541494   -6713.9804    570.37868    -7284.359    4309.5507    -11593.91    109.71917   -699.70464   -833.19939   -1110.6312    -35.08331    50.406304    54.657718      46.7237      46.7237      46.7237           90           90           90     102002.7   -881.17841 
  543000       542494   -6688.4336    574.98954   -7263.4231     4316.607    -11580.03    110.60612   -1153.6876    -879.3553   -659.91508    8.6197304   -206.45907    274.15462      46.7237      46.7237      46.7237           90           90           90     102002.7   -897.65266 
  544000       543494   -6708.3096    565.00195   -7273.3116    4312.2187    -11585.53    108.68489   -963.38953   -774.55236   -984.73046   -138.76284    67.668839    36.103514      46.7237      46.7237      46.7237           90           90           90     102002.7   -907.55745 
  545000       544494   -6688.8889    570.05117   -7258.9401    4325.3909   -11584.331    109.65617   -949.39576    -554.1495   -762.46159    19.787847   -175.44353    147.20423      46.7237      46.7237      46.7237           90           90           90     102002.7   -755.33562 
  546000       545494   -6692.2167    573.87573   -7266.0924     4308.792   -11574.884    110.39187    -660.8217   -393.24424   -629.52268   -155.50838   -2.8522708     209.8447      46.7237      46.7237      46.7237           90           90           90     102002.7   -561.19621 
  547000       546494   -6697.9523    577.07638   -7275.0286    4294.2605   -11569.289    111.00755   -718.88681   -909.06684   -400.82689    166.56286    140.71862    142.11463      46.7237      46.7237      46.7237           90           90           90     102002.7   -676.26018 
  548000       547494   -6663.4302    581.30759   -7244.7378     4348.995   -11593.733    111.82147   -939.29313    -1011.365   -679.41432      118.145    146.23327    107.01872      46.7237      46.7237      46.7237           90           90           90     102002.7    -876.6908 
  549000       548494   -6713.5256    575.10708   -7288.6326    4291.7161   -11580.349    110.62873   -710.87145   -561.22295   -886.87603   -107.18352   -22.647829   -88.984398      46.7237      46.7237      46.7237           90           90           90     102002.7   -719.65681 
  550000       549494   -6692.5916    583.62975   -7276.2214     4313.001   -11589.222    112.26817   -862.90493   -1321.1405   -618.14052    20.936503     66.39743    54.413121      46.7237      46.7237      46.7237           90           90           90     102002.7   -934.06199 
  551000       550494   -6704.0282    559.23932   -7263.2675     4344.427   -11607.695    107.57638   -721.74516   -595.69027   -1026.1955   -17.193955    124.45558   -118.34036      46.7237      46.7237      46.7237           90           90           90     102002.7   -781.21031 
  552000       551494   -6665.6677    594.55132    -7260.219    4323.3248   -11583.544    114.36906   -819.96753   -823.28798   -475.03867    -126.4288   -162.47073   -75.405086      46.7237      46.7237      46.7237           90           90           90     102002.7   -706.09806 
  553000       552494   -6697.9144    566.11094   -7264.0254    4306.6899   -11570.715    108.89822    -738.1977   -1369.1159   -715.29468   -220.01102     33.24237    67.886141      46.7237      46.7237      46.7237           90           90           90     102002.7   -940.86941 
  554000       553494    -6713.048     548.7305   -7261.7785    4320.5591   -11582.338    105.55488   -899.39196   -832.00629   -1232.6549    32.274605    157.73212   -107.15383      46.7237      46.7237      46.7237           90           90           90     102002.7   -988.01771 
  555000       554494   -6698.4446    562.51294   -7260.9575    4322.8418   -11583.799     108.2061   -102.29818   -1193.0704   -840.33423    -68.77252    74.927518    136.79229      46.7237      46.7237      46.7237           90           90           90     102002.7   -711.90095 
[...]
  936000       935494   -6713.0619    569.94455   -7283.0064    4294.3205   -11577.327    109.63566   -720.27457   -1005.0589   -1157.5157    128.71103      32.4522    66.139828      46.7237      46.7237      46.7237           90           90           90     102002.7   -960.94972 
  937000       936494   -6706.6113    568.88725   -7275.4986    4327.2735   -11602.772    109.43227   -650.89598   -567.62441   -769.50587   -76.142329   -68.521891   -76.515448      46.7237      46.7237      46.7237           90           90           90     102002.7   -662.67542 
  938000       937494   -6663.3567    595.51449   -7258.8711    4323.9386    -11582.81    114.55434   -495.84227   -1031.6741   -526.42771    199.37624    11.407061   -142.88181      46.7237      46.7237      46.7237           90           90           90     102002.7   -684.64802 
  939000       938494   -6714.6036     562.8607   -7277.4643     4322.125   -11599.589    108.27299   -655.53599   -613.90183   -954.72808    127.92387    145.40199   -58.046723      46.7237      46.7237      46.7237           90           90           90     102002.7   -741.38863 
  940000       939494   -6672.5012    584.35161   -7256.8528    4320.4258   -11577.279    112.40703   -780.74082   -573.57375   -897.77115   -168.95826    104.33932    88.979185      46.7237      46.7237      46.7237           90           90           90     102002.7   -750.69524 
  941000       940494   -6684.5168    578.81648   -7263.3333    4330.2436   -11593.577    111.34228   -1068.9318   -1072.7942   -536.70758   -9.2611032    128.85074    11.151143      46.7237      46.7237      46.7237           90           90           90     102002.7    -892.8112 
  942000       941494   -6684.8988    566.29728   -7251.1961    4331.7731   -11582.969    108.93406   -743.14948   -928.62603   -823.41421   -125.17869      164.328    349.67247      46.7237      46.7237      46.7237           90           90           90     102002.7   -831.72991 
  943000       942494   -6709.0891    564.31713   -7273.4062    4303.2596   -11576.666    108.55316   -877.13178    -1014.681   -1131.8053   -28.467995    69.035004   -382.12804      46.7237      46.7237      46.7237           90           90           90     102002.7   -1007.8727 
  944000       943494   -6728.5302    561.60296   -7290.1331     4300.974   -11591.107    108.03105   -870.64607   -824.29161   -508.36288   -133.58186    29.149732   -18.625201      46.7237      46.7237      46.7237           90           90           90     102002.7   -734.43352 
  945000       944494   -6680.4799    575.36452   -7255.8444    4332.7805   -11588.625    110.67825   -1139.5746   -827.70417    -1005.198    46.907813    66.220691   -384.85649      46.7237      46.7237      46.7237           90           90           90     102002.7   -990.82559 
  946000       945494   -6662.7815    589.71649    -7252.498    4325.2838   -11577.782    113.43903   -628.27828   -800.90707   -942.82708     207.3349   -114.35757   -80.908105      46.7237      46.7237      46.7237           90           90           90     102002.7   -790.67081 
  947000       946494   -6696.6103    582.63033   -7279.2406    4312.1484   -11591.389    112.07592   -359.38817   -702.62154   -770.53327    106.57116    179.33489    64.979072      46.7237      46.7237      46.7237           90           90           90     102002.7   -610.84766 
  948000       947494   -6700.5471    555.02121   -7255.5683    4315.1932   -11570.761    106.76497   -380.47582   -857.44386   -647.04691    -52.33972     106.4162   -19.669085      46.7237      46.7237      46.7237           90           90           90     102002.7    -628.3222 
  949000       948494   -6677.8017    596.39324   -7274.1949    4330.3079   -11604.503    114.72338   -630.72804   -347.28536   -603.72941    80.337125    85.676321   -189.81929      46.7237      46.7237      46.7237           90           90           90     102002.7    -527.2476 
  950000       949494   -6730.1464    556.49043   -7286.6368    4309.1019   -11595.739     107.0476   -1123.9776    -1193.853   -1154.0335   -23.495216    117.22534    22.818455      46.7237      46.7237      46.7237           90           90           90     102002.7    -1157.288 
  951000       950494   -6697.9454     569.9512   -7267.8966    4318.5135    -11586.41    109.63694   -682.72003   -688.98744   -1273.3007    145.18949   -82.041752    146.66974      46.7237      46.7237      46.7237           90           90           90     102002.7    -881.6694 
  952000       951494   -6662.2648    581.81857   -7244.0833     4358.252   -11602.335    111.91977   -751.26051    -756.9892   -662.46535    141.59109   -29.884824    153.85231      46.7237      46.7237      46.7237           90           90           90     102002.7   -723.57168 
  953000       952494   -6705.2249    564.07269   -7269.2976    4317.7019       -11587    108.50613   -946.46464   -784.84547   -1322.5826   -25.859689    316.51057   -23.516433      46.7237      46.7237      46.7237           90           90           90     102002.7   -1017.9642 
  954000       953494   -6679.1574    583.38821   -7262.5456    4339.5491   -11602.095    112.22171   -405.18278   -633.80296   -1128.5784   -10.117912   -20.139416   -49.624141      46.7237      46.7237      46.7237           90           90           90     102002.7    -722.5214 
  955000       954494   -6704.5635      575.922   -7280.4855    4311.5998   -11592.085    110.78549   -992.77266   -1213.5035    -928.0643   -23.152556    24.183769    223.61577      46.7237      46.7237      46.7237           90           90           90     102002.7   -1044.7801 
  956000       955494    -6720.195    556.46689   -7276.6619    4312.9051   -11589.567    107.04307   -796.33652   -922.06819   -888.26188    88.202851   -261.47165    84.854268      46.7237      46.7237      46.7237           90           90           90     102002.7   -868.88886 
  957000       956494   -6715.1512    558.50869   -7273.6599    4312.5612   -11586.221    107.43583   -843.66685   -758.76949   -921.92395    136.24076    60.634733    12.617343      46.7237      46.7237      46.7237           90           90           90     102002.7   -841.45343 
  958000       957494   -6687.0083    575.16972    -7262.178    4317.2099   -11579.388    110.64078   -1420.3063   -611.59389   -746.02971    42.377448   -81.745138   -101.77661      46.7237      46.7237      46.7237           90           90           90     102002.7   -925.97664 
  959000       958494   -6703.4894     570.6931   -7274.1825    4319.0935   -11593.276    109.77965    -712.8032   -686.71338   -1019.3831     98.31186    139.98367     258.1889      46.7237      46.7237      46.7237           90           90           90     102002.7    -806.2999 
  960000       959494   -6671.6387    586.36924   -7258.0079    4329.3223    -11587.33    112.79514   -931.59334   -647.21822    -1173.957    225.53258    122.90319    76.971818      46.7237      46.7237      46.7237           90           90           90     102002.7   -917.58952 
  961000       960494   -6694.2006    557.75596   -7251.9565    4343.6831    -11595.64    107.29104   -642.04832   -410.91022   -706.34884    121.81829    64.087951    15.929998      46.7237      46.7237      46.7237           90           90           90     102002.7   -586.43579 
  962000       961494   -6719.8583    555.27911   -7275.1374    4310.0921    -11585.23    106.81458   -895.75363   -848.60898   -392.13919    65.275661   -18.892722    85.897686      46.7237      46.7237      46.7237           90           90           90     102002.7   -712.16726 
  963000       962494   -6696.4761     572.6297   -7269.1058    4313.2913   -11582.397    110.15218   -353.75929   -479.59092   -1084.9131    184.20971     -190.348   -19.109314      46.7237      46.7237      46.7237           90           90           90     102002.7    -639.4211 
  964000       963494     -6706.28    571.08816   -7277.3682    4303.7789   -11581.147    109.85564   -613.20762   -918.42212   -1433.9597    57.185996   -124.78738    61.291971      46.7237      46.7237      46.7237           90           90           90     102002.7    -988.5298 
  965000       964494   -6700.6051    574.83039   -7275.4355    4303.0034   -11578.439    110.57551    -848.1741    -1043.616   -579.32014   -105.28594   -161.76513    105.82819      46.7237      46.7237      46.7237           90           90           90     102002.7   -823.70341 
  966000       965494   -6682.7926    579.24815   -7262.0407    4322.4834   -11584.524    111.42532   -886.34043   -996.67447   -981.59471   -108.00079   -31.469834    16.279696      46.7237      46.7237      46.7237           90           90           90     102002.7   -954.86987 
  967000       966494   -6697.5632    569.20863   -7266.7719    4313.6028   -11580.375    109.49409   -1065.3945   -499.93955   -1311.8302    16.229905   -111.74057    18.405117      46.7237      46.7237      46.7237           90           90           90     102002.7   -959.05474 
  968000       967494   -6719.7938    564.68521    -7284.479    4301.1475   -11585.627    108.62396   -525.01075   -456.52755   -1271.1627    45.106695   -84.150017   -127.21462      46.7237      46.7237      46.7237           90           90           90     102002.7   -750.90033 
  969000       968494   -6702.6278    574.05956   -7276.6873     4314.854   -11591.541    110.42723   -989.96977   -635.81583   -1079.7524   -126.30596   -49.844874   -17.389419      46.7237      46.7237      46.7237           90           90           90     102002.7   -901.84601 
  970000       969494   -6702.7515    573.24867   -7276.0001    4302.3487   -11578.349    110.27124   -677.24178   -541.28951   -705.20342    112.34823    76.818377    53.155688      46.7237      46.7237      46.7237           90           90           90     102002.7   -641.24491 
  971000       970494   -6706.0435    563.35535   -7269.3988    4318.5467   -11587.945    108.36815   -289.00336   -850.58682   -1228.7662    79.043789    240.78059    7.1135669      46.7237      46.7237      46.7237           90           90           90     102002.7   -789.45213 
  972000       971494   -6653.6508    597.77206   -7251.4228    4326.7939   -11578.217    114.98861   -666.37362   -445.97746    -876.0969   -112.11323   -142.91883   -121.99168      46.7237      46.7237      46.7237           90           90           90     102002.7     -662.816 
  973000       972494   -6718.5522    567.26424   -7285.8164    4288.0902   -11573.907    109.12007   -759.20979   -287.85306   -366.15656    32.166979   -15.353556   -15.136014      46.7237      46.7237      46.7237           90           90           90     102002.7   -471.07314 
  974000       973494   -6713.4214    564.19294   -7277.6144    4314.4941   -11592.108    108.52926   -272.43382   -747.19137   -779.71661    22.707473   -84.730499    130.80469      46.7237      46.7237      46.7237           90           90           90     102002.7    -599.7806 
  975000       974494   -6696.2982     563.8208    -7260.119    4317.7027   -11577.822    108.45768   -1054.3573   -500.37941   -109.56496   -177.11093    117.29272    74.127286      46.7237      46.7237      46.7237           90           90           90     102002.7   -554.76721 
  976000       975494   -6739.7904    551.78831   -7291.5787    4285.2165   -11576.795    106.14309   -424.72948   -312.74814   -811.40205   -106.26491    199.20246   -102.30622      46.7237      46.7237      46.7237           90           90           90     102002.7   -516.29322 
  977000       976494   -6691.6406     571.2291   -7262.8697    4320.2939   -11583.164    109.88275   -669.01808   -517.14105   -585.01524    167.81593    74.256614    43.050739      46.7237      46.7237      46.7237           90           90           90     102002.7   -590.39146 
  978000       977494   -6725.8141     555.3692   -7281.1833    4310.2755   -11591.459    106.83191   -1035.5188    -1181.263   -567.41373    335.15705    102.27429    69.358933      46.7237      46.7237      46.7237           90           90           90     102002.7   -928.06518 
  979000       978494   -6699.2736     565.4277   -7264.7013    4327.9973   -11592.699    108.76679   -769.20108   -730.77197   -950.42177    183.89851   -245.35228    238.90062      46.7237      46.7237      46.7237           90           90           90     102002.7   -816.79827 
  980000       979494   -6700.6489    590.04925   -7290.6982    4284.6976   -11575.396    113.50304   -673.39012   -775.22822   -658.47496    80.132101   -150.18058    168.03482      46.7237      46.7237      46.7237           90           90           90     102002.7   -702.36443 
  981000       980494   -6712.6892    561.09835   -7273.7875    4321.9135   -11595.701    107.93399   -1138.2787   -884.80237   -1274.2458    282.55203   -147.94855    227.48025      46.7237      46.7237      46.7237           90           90           90     102002.7    -1099.109 
  982000       981494   -6682.8049    579.95429   -7262.7592    4321.7415   -11584.501    111.56115   -541.77897   -770.40169   -469.09024   -115.98408   -95.700615    159.12578      46.7237      46.7237      46.7237           90           90           90     102002.7   -593.75697 
  983000       982494   -6737.6337    553.03554   -7290.6692    4306.5239   -11597.193    106.38301   -1367.7798   -874.95316   -1064.9333    191.50138   -98.101102    125.08678      46.7237      46.7237      46.7237           90           90           90     102002.7   -1102.5554 
  984000       983494   -6689.9593     584.5042   -7274.4635    4316.8133   -11591.277    112.43638   -612.86811   -805.56664   -1052.0462    -106.4521    -25.82307    148.66281      46.7237      46.7237      46.7237           90           90           90     102002.7   -823.49365 
  985000       984494   -6719.2524    562.51759   -7281.7699    4298.5099    -11580.28    108.20699   -734.26288   -686.41687   -657.91675   -236.14896    -284.5277    177.14981      46.7237      46.7237      46.7237           90           90           90     102002.7    -692.8655 
  986000       985494   -6696.3813    562.71217   -7259.0935    4325.4312   -11584.525    108.24442   -947.79409   -513.68725   -1054.7435    -96.46064   -165.15209   -169.90992      46.7237      46.7237      46.7237           90           90           90     102002.7   -838.74162 
  987000       986494   -6676.4183    579.79247   -7256.2107      4328.72   -11584.931    111.53002   -875.76861   -262.01055   -334.45137   -285.29836    134.84081    130.37617      46.7237      46.7237      46.7237           90           90           90     102002.7   -490.74351 
  988000       987494   -6704.5338    564.13135   -7268.6652    4329.6213   -11598.287    108.51742    -660.5599    -934.1937   -1205.3748    22.490104   -22.691858    211.34815      46.7237      46.7237      46.7237           90           90           90     102002.7   -933.37613 
  989000       988494   -6673.9121    580.73852   -7254.6506    4340.9982   -11595.649    111.71201   -351.15481   -559.45418   -1019.8033    47.190024   -108.94802     9.781872      46.7237      46.7237      46.7237           90           90           90     102002.7   -643.47076 
  990000       989494   -6692.6155    560.74071   -7253.3562    4342.1288   -11595.485    107.86519   -753.10143   -896.79057    -1084.444     211.3285   -141.96342   -45.317087      46.7237      46.7237      46.7237           90           90           90     102002.7   -911.44533 
  991000       990494   -6706.3676    562.60968   -7268.9773    4305.5881   -11574.565    108.22471   -927.03734   -313.01128   -769.35539   -157.91443   -103.96609    234.01719      46.7237      46.7237      46.7237           90           90           90     102002.7   -669.80134 
  992000       991494   -6712.2424    567.31039   -7279.5527    4296.2603   -11575.813    109.12894    -393.7137   -375.44626   -761.16346   -149.82903    69.840965   -30.863323      46.7237      46.7237      46.7237           90           90           90     102002.7   -510.10781 
  993000       992494   -6681.8386    585.03769   -7266.8763    4316.8266   -11583.703      112.539   -1074.6234   -891.63075   -669.18882   -40.974873    27.923711    162.37301      46.7237      46.7237      46.7237           90           90           90     102002.7     -878.481 
  994000       993494    -6700.687    563.08118   -7263.7682     4325.482    -11589.25    108.31541   -737.69215   -790.13263   -902.65038    54.801425    -99.06511     203.1395      46.7237      46.7237      46.7237           90           90           90     102002.7   -810.15839 
  995000       994494   -6724.4097    560.80482   -7285.2145    4312.3461   -11597.561    107.87752    -758.7628   -448.73045   -561.68971    38.899812     -24.1747    108.30136      46.7237      46.7237      46.7237           90           90           90     102002.7   -589.72765 
  996000       995494   -6680.7722    574.26879   -7255.0409    4340.3229   -11595.364    110.46748    -378.7987   -1013.1352   -314.55694   -117.07042    96.451089    57.658964      46.7237      46.7237      46.7237           90           90           90     102002.7   -568.83027 
  997000       996494   -6697.9069    566.68867   -7264.5956    4334.6607   -11599.256    109.00935   -1035.9776   -1070.8735   -1437.9501    75.886028     122.4221    -30.94346      46.7237      46.7237      46.7237           90           90           90     102002.7   -1181.6004 
  998000       997494   -6698.0759     560.5337   -7258.6096     4318.435   -11577.045    107.82537   -573.87257   -660.18892   -691.62977   -124.78492    128.76019    87.246055      46.7237      46.7237      46.7237           90           90           90     102002.7   -641.89709 
  999000       998494   -6693.5773    587.43512   -7281.0125    4302.6502   -11583.663    113.00018   -789.96221   -406.36676   -1064.6229    50.966927    175.83448    269.53665      46.7237      46.7237      46.7237           90           90           90     102002.7   -753.65061 
 1000000       999494    -6702.141    562.35775   -7264.4988     4312.723   -11577.222    108.17624   -567.91438   -470.72358   -401.25555    247.97632    135.74808    55.643118      46.7237      46.7237      46.7237           90           90           90     102002.7    -479.9645 
 1000506      1000000      -6716.5    573.72031   -7290.2203    4299.5702   -11589.791    110.36197   -554.55422   -457.35606   -718.01019    73.373407   -152.11759    3.1818623      46.7237      46.7237      46.7237           90           90           90     102002.7   -576.64016 
Loop time of 629.295 on 24 procs for 500000 steps with 1745 atoms

Performance: 68.648 ns/day, 0.350 hours/ns, 794.540 timesteps/s
99.9% CPU use with 24 MPI tasks x no OpenMP threads

MPI task timing breakdown:
Section |  min time  |  avg time  |  max time  |%varavg| %total
---------------------------------------------------------------
Pair    | 205.87     | 301.48     | 407.76     | 354.7 | 47.91
Bond    | 67.496     | 82.191     | 93.666     |  57.8 | 13.06
Neigh   | 1.8437     | 1.8694     | 1.8868     |   1.0 |  0.30
Comm    | 111.04     | 228.41     | 336.26     | 432.8 | 36.30
Output  | 0.33843    | 0.38591    | 0.38814    |   1.6 |  0.06
Modify  | 11.504     | 11.988     | 12.367     |   7.3 |  1.91
Other   |            | 2.97       |            |       |  0.47

Nlocal:    72.7083 ave 93 max 44 min
Histogram: 1 2 0 2 5 3 2 3 2 4
Nghost:    1991.5 ave 2165 max 1896 min
Histogram: 12 4 0 0 0 0 0 0 2 6
Neighs:    7637.33 ave 11435 max 3654 min
Histogram: 2 3 1 3 3 2 1 3 3 3

Total # of neighbors = 183296
Ave neighs/atom = 105.041
Ave special neighs/atom = 6.60172
Neighbor list builds = 3455
Dangerous builds = 0
Total wall time: 0:19:54
