LAMMPS (30 Mar 2018)
Reading data file ...
  orthogonal box = (0 0 0) to (46.7237 46.7237 46.7237)
  2 by 2 by 4 MPI processor grid
  reading atoms ...
  3219 atoms
  scanning bonds ...
  5 = max bonds/atom
  scanning angles ...
  10 = max angles/atom
  scanning dihedrals ...
  32 = max dihedrals/atom
  scanning impropers ...
  3 = max impropers/atom
  reading bonds ...
  2064 bonds
  reading angles ...
  3696 angles
  reading dihedrals ...
  6240 dihedrals
  reading impropers ...
  1008 impropers
Finding 1-2 1-3 1-4 neighbors ...
  special bond factors lj:   0          0          0         
  special bond factors coul: 0          0          0         
  5 = max # of 1-2 neighbors
  8 = max # of 1-3 neighbors
  20 = max # of 1-4 neighbors
  19 = max # of special neighbors
Finding 1-2 1-3 1-4 neighbors ...
  special bond factors lj:   0          0          1         
  special bond factors coul: 1          1          1         
  5 = max # of 1-2 neighbors
  8 = max # of 1-3 neighbors
  19 = max # of special neighbors
WARNING: Using 'neigh_modify every 1 delay 0 check yes' setting during minimization (../min.cpp:168)
Neighbor list info ...
  update every 1 steps, delay 0 steps, check yes
  max neighbors/atom: 2000, page size: 100000
  master list distance cutoff = 16
  ghost atom cutoff = 16
  binsize = 8, bins = 6 6 6
  3 neighbor lists, perpetual/occasional/extra = 3 0 0
  (1) pair buck6d/coul/gauss/dsf, perpetual, skip from (3)
      attributes: half, newton on
      pair build: skip
      stencil: none
      bin: none
  (2) pair lj/cut, perpetual, skip from (3)
      attributes: half, newton on
      pair build: skip
      stencil: none
      bin: none
  (3) neighbor class addition, perpetual
      attributes: half, newton on
      pair build: half/bin/newton
      stencil: half/bin/3d/newton
      bin: standard
Setting up cg style minimization ...
  Unit style    : real
  Current step  : 0
WARNING: Inconsistent image flags (../domain.cpp:786)
Per MPI rank memory allocation (min/avg/max) = 23.02 | 23.47 | 23.92 Mbytes
Step Temp E_pair E_mol TotEng Press 
       0            0   -15465.953    6482.8914   -8983.0618    6603.7634 
     500            0    -15977.75    3765.8123   -12211.937   -1885.6698 
Loop time of 4.75521 on 16 procs for 500 steps with 3219 atoms

99.5% CPU use with 16 MPI tasks x no OpenMP threads

Minimization stats:
  Stopping criterion = max force evaluations
  Energy initial, next-to-last, final = 
        -8983.06177242     -12211.8559756     -12211.9373466
  Force two-norm initial, final = 2575.79 14.1494
  Force max component initial, final = 152.159 1.75619
  Final line search alpha, max atom move = 0.00631632 0.0110927
  Iterations, force evaluations = 500 1000

MPI task timing breakdown:
Section |  min time  |  avg time  |  max time  |%varavg| %total
---------------------------------------------------------------
Pair    | 2.4724     | 3.001      | 3.5633     |  18.0 | 63.11
Bond    | 0.28686    | 0.3622     | 0.47426    |   9.6 |  7.62
Neigh   | 0.031485   | 0.031582   | 0.031703   |   0.0 |  0.66
Comm    | 0.6123     | 1.2452     | 1.8051     |  29.7 | 26.19
Output  | 0          | 0          | 0          |   0.0 |  0.00
Modify  | 0          | 0          | 0          |   0.0 |  0.00
Other   |            | 0.1153     |            |       |  2.43

Nlocal:    201.188 ave 218 max 178 min
Histogram: 1 2 0 1 2 2 0 2 4 2
Nghost:    4019.19 ave 4055 max 3991 min
Histogram: 3 1 2 1 3 1 1 2 0 2
Neighs:    11481.3 ave 17118 max 7523 min
Histogram: 1 3 3 1 1 4 1 1 0 1

Total # of neighbors = 183701
Ave neighs/atom = 57.0677
Ave special neighs/atom = 3.57875
Neighbor list builds = 9
Dangerous builds = 0
Neighbor list info ...
  update every 1 steps, delay 10 steps, check yes
  max neighbors/atom: 2000, page size: 100000
  master list distance cutoff = 16
  ghost atom cutoff = 16
  binsize = 8, bins = 6 6 6
  3 neighbor lists, perpetual/occasional/extra = 3 0 0
  (1) pair buck6d/coul/gauss/dsf, perpetual, skip from (3)
      attributes: half, newton on
      pair build: skip
      stencil: none
      bin: none
  (2) pair lj/cut, perpetual, skip from (3)
      attributes: half, newton on
      pair build: skip
      stencil: none
      bin: none
  (3) neighbor class addition, perpetual
      attributes: half, newton on
      pair build: half/bin/newton
      stencil: half/bin/3d/newton
      bin: standard
Setting up Verlet run ...
  Unit style    : real
  Current step  : 500
  Time step     : 1
WARNING: Inconsistent image flags (../domain.cpp:786)
Per MPI rank memory allocation (min/avg/max) = 22.66 | 22.77 | 23.13 Mbytes
Step Temp PotEng TotEng Press Volume Lx Ly Lz 
     500          130   -12211.937   -10964.945   -1326.8331     102002.7      46.7237      46.7237      46.7237 
    1000    110.28214   -11185.331   -10127.477    58.002887     102002.7      46.7237      46.7237      46.7237 
    2000    130.40173   -10969.318   -9718.4721    236.31097     102002.7      46.7237      46.7237      46.7237 
    3000    127.41768   -11061.197   -9838.9755    306.39727     102002.7      46.7237      46.7237      46.7237 
    4000    130.17478   -11028.094   -9779.4257    847.16395     102002.7      46.7237      46.7237      46.7237 
    5000    130.36246   -11008.491   -9758.0226    494.23141     102002.7      46.7237      46.7237      46.7237 
    6000    128.27928    -11028.59   -9798.1036    421.95109     102002.7      46.7237      46.7237      46.7237 
    7000    129.27928   -11026.223   -9786.1443    357.73661     102002.7      46.7237      46.7237      46.7237 
    8000    128.92809   -11022.749   -9786.0391    612.33371     102002.7      46.7237      46.7237      46.7237 
    9000    131.84602   -11033.922   -9769.2222    650.05515     102002.7      46.7237      46.7237      46.7237 
   10000    129.77783   -11043.565   -9798.7041    519.45533     102002.7      46.7237      46.7237      46.7237 
   11000    131.11075    -11032.65   -9775.0034    96.203023     102002.7      46.7237      46.7237      46.7237 
   12000    130.22451   -11016.127   -9766.9818    353.34959     102002.7      46.7237      46.7237      46.7237 
   13000    130.73081   -11038.291   -9784.2888    534.50635     102002.7      46.7237      46.7237      46.7237 
   14000    128.82751   -11010.025   -9774.2796    314.88713     102002.7      46.7237      46.7237      46.7237 
   15000    133.79335   -11036.345   -9752.9659    454.05083     102002.7      46.7237      46.7237      46.7237 
   16000    130.91385   -11018.777    -9763.019    532.11734     102002.7      46.7237      46.7237      46.7237 
   17000    130.63445   -11026.182   -9773.1038    630.27213     102002.7      46.7237      46.7237      46.7237 
   18000    133.38217   -11045.815   -9766.3807    437.72558     102002.7      46.7237      46.7237      46.7237 
   19000    129.04575   -11043.524   -9805.6853    227.27301     102002.7      46.7237      46.7237      46.7237 
   20000    130.31178   -11048.745   -9798.7618    449.49624     102002.7      46.7237      46.7237      46.7237 
   21000    129.66112   -11036.059   -9792.3173     324.1263     102002.7      46.7237      46.7237      46.7237 
   22000    128.25389   -11045.104   -9814.8606    441.99084     102002.7      46.7237      46.7237      46.7237 
   23000    130.49965   -11027.741   -9775.9558    436.90511     102002.7      46.7237      46.7237      46.7237 
   24000    130.49744   -11015.798   -9764.0343    648.34337     102002.7      46.7237      46.7237      46.7237 
   25000    131.95295   -11037.518    -9771.793    592.94384     102002.7      46.7237      46.7237      46.7237 
   26000    126.93786    -11031.46   -9813.8411   -51.306443     102002.7      46.7237      46.7237      46.7237 
   27000    129.42283   -11033.234    -9791.778    645.23276     102002.7      46.7237      46.7237      46.7237 
   28000     130.7515   -11025.342   -9771.1415    511.47273     102002.7      46.7237      46.7237      46.7237 
   29000    128.37774   -11039.443   -9808.0117      214.045     102002.7      46.7237      46.7237      46.7237 
   30000    130.67876   -11006.322   -9752.8193    249.09023     102002.7      46.7237      46.7237      46.7237 
   31000    132.38846   -11057.419   -9787.5162    84.953241     102002.7      46.7237      46.7237      46.7237 
   32000    131.56083   -11056.753   -9794.7895    370.40292     102002.7      46.7237      46.7237      46.7237 
   33000    125.54488   -11023.379    -9819.121    398.49323     102002.7      46.7237      46.7237      46.7237 
   34000     127.8826   -11026.436   -9799.7544    181.76859     102002.7      46.7237      46.7237      46.7237 
   35000    125.52273    -11072.76   -9868.7154     143.6123     102002.7      46.7237      46.7237      46.7237 
   36000    131.58476   -11043.503   -9781.3095    186.89713     102002.7      46.7237      46.7237      46.7237 
   37000    130.50036   -11050.828   -9799.0368     488.3948     102002.7      46.7237      46.7237      46.7237 
   38000     134.9178   -11019.366   -9725.2011    223.65829     102002.7      46.7237      46.7237      46.7237 
   39000     130.2653   -11051.424   -9801.8867    360.55979     102002.7      46.7237      46.7237      46.7237 
   40000    131.00575   -11040.771   -9784.1313    383.26204     102002.7      46.7237      46.7237      46.7237 
   41000    129.61852   -11028.792   -9785.4594    519.15643     102002.7      46.7237      46.7237      46.7237 
   42000     129.4478   -11022.291   -9780.5958    447.26603     102002.7      46.7237      46.7237      46.7237 
   43000     130.4902   -11028.688   -9776.9937    267.46867     102002.7      46.7237      46.7237      46.7237 
   44000    130.15616    -11070.28   -9821.7902    387.13165     102002.7      46.7237      46.7237      46.7237 
   45000    133.07829   -11055.877   -9779.3574    354.80795     102002.7      46.7237      46.7237      46.7237 
   46000    128.53009   -11035.209   -9802.3169    233.41891     102002.7      46.7237      46.7237      46.7237 
   47000    130.70165   -11024.345   -9770.6222     735.7015     102002.7      46.7237      46.7237      46.7237 
   48000     133.0432   -11040.692   -9764.5085    366.67956     102002.7      46.7237      46.7237      46.7237 
   49000    130.26072   -11053.261   -9803.7676    195.01824     102002.7      46.7237      46.7237      46.7237 
   50000    128.82595   -11029.411    -9793.681    384.49833     102002.7      46.7237      46.7237      46.7237 
   51000    129.89539   -11055.814   -9809.8254    319.58644     102002.7      46.7237      46.7237      46.7237 
   52000    133.38426   -11039.872   -9760.4171    629.17906     102002.7      46.7237      46.7237      46.7237 
   53000    132.29648   -11004.642   -9735.6217     397.9855     102002.7      46.7237      46.7237      46.7237 
   54000    130.26907   -11003.016   -9753.4427    428.61503     102002.7      46.7237      46.7237      46.7237 
   55000    131.29449   -11054.227   -9794.8175     559.4333     102002.7      46.7237      46.7237      46.7237 
   56000    131.66015   -11053.351   -9790.4347    372.47559     102002.7      46.7237      46.7237      46.7237 
   57000    130.74717   -11060.198   -9806.0388    367.11686     102002.7      46.7237      46.7237      46.7237 
   58000    129.90908   -11011.098    -9764.978     439.4252     102002.7      46.7237      46.7237      46.7237 
   59000    130.29141    -11053.09   -9803.3031     147.1392     102002.7      46.7237      46.7237      46.7237 
   60000    131.93294   -11034.921   -9769.3879    15.151881     102002.7      46.7237      46.7237      46.7237 
   61000    127.65052   -11027.577   -9803.1221    165.07636     102002.7      46.7237      46.7237      46.7237 
   62000    132.10844   -11021.883   -9754.6666    334.94528     102002.7      46.7237      46.7237      46.7237 
   63000    128.62063   -11040.244   -9806.4835    336.46465     102002.7      46.7237      46.7237      46.7237 
   64000    132.08197   -11032.969   -9766.0063    345.94289     102002.7      46.7237      46.7237      46.7237 
   65000    128.98882   -11027.858   -9790.5656    578.95788     102002.7      46.7237      46.7237      46.7237 
   66000    130.22026   -11044.805   -9795.6999    98.927101     102002.7      46.7237      46.7237      46.7237 
   67000    127.87541   -11023.101   -9796.4887    394.33209     102002.7      46.7237      46.7237      46.7237 
   68000    131.32711   -11042.558   -9782.8357    191.26354     102002.7      46.7237      46.7237      46.7237 
   69000     129.2106   -11043.812   -9804.3923     553.8447     102002.7      46.7237      46.7237      46.7237 
   70000    131.02726   -11030.488   -9773.6425    416.86877     102002.7      46.7237      46.7237      46.7237 
   71000    131.44432   -11012.228   -9751.3812    487.09028     102002.7      46.7237      46.7237      46.7237 
   72000    132.08248   -11047.006   -9780.0379    238.04696     102002.7      46.7237      46.7237      46.7237 
   73000    130.36821   -11027.209    -9776.685    355.42615     102002.7      46.7237      46.7237      46.7237 
   74000    128.18481   -11012.951   -9783.3705    154.83944     102002.7      46.7237      46.7237      46.7237 
   75000    131.55385   -11073.105   -9811.2077    250.69357     102002.7      46.7237      46.7237      46.7237 
   76000    127.24009    -11057.06    -9836.542    373.79779     102002.7      46.7237      46.7237      46.7237 
   77000    131.18467   -11025.728   -9767.3722    144.66904     102002.7      46.7237      46.7237      46.7237 
   78000    131.05401   -11041.326   -9784.2233    431.90212     102002.7      46.7237      46.7237      46.7237 
   79000    130.53569   -11007.903   -9755.7722    250.67128     102002.7      46.7237      46.7237      46.7237 
   80000    130.71663   -11056.242   -9802.3754    321.65842     102002.7      46.7237      46.7237      46.7237 
   81000    132.17844   -11045.319   -9777.4306    207.55158     102002.7      46.7237      46.7237      46.7237 
   82000    127.24976   -11047.907   -9827.2954    195.48451     102002.7      46.7237      46.7237      46.7237 
   83000    129.54226   -11011.851   -9769.2498    295.44141     102002.7      46.7237      46.7237      46.7237 
   84000    129.78121   -11085.015   -9840.1218    407.11148     102002.7      46.7237      46.7237      46.7237 
   85000    132.51422   -11056.564   -9785.4549    421.56707     102002.7      46.7237      46.7237      46.7237 
   86000    130.59916   -11008.189   -9755.4492    178.72703     102002.7      46.7237      46.7237      46.7237 
   87000    130.54828    -11022.69   -9770.4389    457.34623     102002.7      46.7237      46.7237      46.7237 
   88000     131.1538   -11037.733   -9779.6729     261.0069     102002.7      46.7237      46.7237      46.7237 
   89000    130.13191   -11036.262   -9788.0042    174.34765     102002.7      46.7237      46.7237      46.7237 
   90000    130.92603   -11053.388    -9797.513     470.7632     102002.7      46.7237      46.7237      46.7237 
   91000    129.34038   -11053.339   -9812.6738    159.08579     102002.7      46.7237      46.7237      46.7237 
   92000    129.70481   -11022.753   -9778.5922    168.19115     102002.7      46.7237      46.7237      46.7237 
   93000    129.46838   -11026.077   -9784.1849    423.49723     102002.7      46.7237      46.7237      46.7237 
   94000    129.07229   -11056.918   -9818.8246    489.53117     102002.7      46.7237      46.7237      46.7237 
   95000    130.29463   -11025.457   -9775.6386    455.63725     102002.7      46.7237      46.7237      46.7237 
   96000    128.64206   -11054.291   -9820.3246   -129.84577     102002.7      46.7237      46.7237      46.7237 
   97000    130.92512   -11037.927   -9782.0614    368.15359     102002.7      46.7237      46.7237      46.7237 
   98000    129.82897   -11009.403   -9764.0514    267.05758     102002.7      46.7237      46.7237      46.7237 
   99000    134.04049   -11051.977   -9766.2271    59.611088     102002.7      46.7237      46.7237      46.7237 
  100000    129.32078   -11062.448   -9821.9709    213.10723     102002.7      46.7237      46.7237      46.7237 
  101000    129.98605   -11023.716   -9776.8573    322.95633     102002.7      46.7237      46.7237      46.7237 
  102000     129.0003   -11060.123   -9822.7207     527.1102     102002.7      46.7237      46.7237      46.7237 
  103000    129.72295   -11032.356   -9788.0219    796.01548     102002.7      46.7237      46.7237      46.7237 
  104000    129.99528   -11030.737   -9783.7904    410.80124     102002.7      46.7237      46.7237      46.7237 
  105000    131.49043   -11020.789   -9759.5004     397.5073     102002.7      46.7237      46.7237      46.7237 
  106000    128.44603    -11041.59    -9809.504     316.4372     102002.7      46.7237      46.7237      46.7237 
  107000    127.55693   -11003.247   -9779.6898    232.27837     102002.7      46.7237      46.7237      46.7237 
  108000    134.04383   -11021.321   -9735.5392    518.06143     102002.7      46.7237      46.7237      46.7237 
  109000    130.63895   -11036.883   -9783.7619    448.91534     102002.7      46.7237      46.7237      46.7237 
  110000    131.40326   -11068.152   -9807.6996    207.65861     102002.7      46.7237      46.7237      46.7237 
  111000     131.7143   -11030.575   -9767.1389    93.742331     102002.7      46.7237      46.7237      46.7237 
  112000    129.52395   -11059.619   -9817.1934    487.91681     102002.7      46.7237      46.7237      46.7237 
  113000    127.29601   -11053.733   -9832.6786    278.39217     102002.7      46.7237      46.7237      46.7237 
  114000    129.54002   -11024.213    -9781.633    421.62773     102002.7      46.7237      46.7237      46.7237 
  115000    130.50413   -11043.766    -9791.938    495.61035     102002.7      46.7237      46.7237      46.7237 
  116000    127.22815   -11030.941   -9810.5371    94.465762     102002.7      46.7237      46.7237      46.7237 
  117000    131.64719   -11024.253   -9761.4609    106.73677     102002.7      46.7237      46.7237      46.7237 
  118000    127.76627   -11023.965   -9798.3993    257.68072     102002.7      46.7237      46.7237      46.7237 
  119000    131.00283   -11017.357   -9760.7452    66.075499     102002.7      46.7237      46.7237      46.7237 
  120000    129.08153   -11057.663   -9819.4808     293.8456     102002.7      46.7237      46.7237      46.7237 
  121000    130.60698   -11046.909   -9794.0942    193.21748     102002.7      46.7237      46.7237      46.7237 
  122000    129.65297   -11062.069   -9818.4055    384.23933     102002.7      46.7237      46.7237      46.7237 
  123000    130.40251   -11049.267   -9798.4141    106.42684     102002.7      46.7237      46.7237      46.7237 
  124000    129.83693   -11015.146   -9769.7186    574.09851     102002.7      46.7237      46.7237      46.7237 
  125000    132.85731   -11065.059   -9790.6586    589.16131     102002.7      46.7237      46.7237      46.7237 
  126000     131.6367   -11048.294   -9785.6022    47.847311     102002.7      46.7237      46.7237      46.7237 
  127000    129.82549   -11037.103   -9791.7848    164.10825     102002.7      46.7237      46.7237      46.7237 
  128000    129.79849   -11052.131   -9807.0723    336.07055     102002.7      46.7237      46.7237      46.7237 
  129000    128.23626   -11058.091   -9828.0177    364.23683     102002.7      46.7237      46.7237      46.7237 
  130000    128.99819   -11018.423   -9781.0401    291.97811     102002.7      46.7237      46.7237      46.7237 
  131000    129.94425    -11059.83   -9813.3729    357.60535     102002.7      46.7237      46.7237      46.7237 
  132000    129.85339   -11011.305   -9765.7193    528.11399     102002.7      46.7237      46.7237      46.7237 
  133000     132.3051   -11042.902   -9773.7989   -60.662317     102002.7      46.7237      46.7237      46.7237 
  134000    132.62637   -11062.065   -9789.8802    171.63019     102002.7      46.7237      46.7237      46.7237 
  135000    128.40885   -11072.931   -9841.2017    359.77881     102002.7      46.7237      46.7237      46.7237 
  136000    128.76746   -11026.725   -9791.5558    387.05316     102002.7      46.7237      46.7237      46.7237 
  137000    127.40465   -11036.221   -9814.1246    196.94202     102002.7      46.7237      46.7237      46.7237 
  138000    126.39111   -11025.611   -9813.2365    79.796211     102002.7      46.7237      46.7237      46.7237 
  139000    131.15483   -11058.548   -9800.4783     19.89601     102002.7      46.7237      46.7237      46.7237 
  140000    132.39191   -11049.278   -9779.3418    240.38558     102002.7      46.7237      46.7237      46.7237 
  141000    129.03892   -11058.607   -9820.8343    277.36814     102002.7      46.7237      46.7237      46.7237 
  142000    130.42896   -11067.031    -9815.924    188.49186     102002.7      46.7237      46.7237      46.7237 
  143000    131.65374   -11039.522   -9776.6669   -163.91567     102002.7      46.7237      46.7237      46.7237 
  144000    129.39385   -11051.633   -9810.4553    518.35221     102002.7      46.7237      46.7237      46.7237 
  145000    129.92135   -11041.457   -9795.2197    392.62218     102002.7      46.7237      46.7237      46.7237 
  146000    129.72231   -11058.994   -9814.6657    237.27884     102002.7      46.7237      46.7237      46.7237 
  147000     130.2582   -11044.835   -9795.3665    270.42111     102002.7      46.7237      46.7237      46.7237 
  148000    129.25321   -11062.759   -9822.9304    110.73438     102002.7      46.7237      46.7237      46.7237 
  149000    131.61155   -11041.884   -9779.4332    367.00507     102002.7      46.7237      46.7237      46.7237 
  150000    129.71825    -11049.53   -9805.2403    420.99051     102002.7      46.7237      46.7237      46.7237 
  151000    133.46774   -11022.322   -9742.0669    354.05732     102002.7      46.7237      46.7237      46.7237 
  152000    131.46143   -11027.108   -9766.0972    471.90129     102002.7      46.7237      46.7237      46.7237 
  153000     132.4264   -11043.611   -9773.3445    206.34215     102002.7      46.7237      46.7237      46.7237 
  154000    133.03961   -11054.228   -9778.0792    403.38978     102002.7      46.7237      46.7237      46.7237 
  155000     130.5744   -11046.834   -9794.3318    268.46122     102002.7      46.7237      46.7237      46.7237 
  156000    130.54262   -11016.118   -9763.9207    107.20725     102002.7      46.7237      46.7237      46.7237 
  157000    127.39293   -11043.056   -9821.0716    352.55846     102002.7      46.7237      46.7237      46.7237 
  158000    133.45827    -11051.22   -9771.0557    339.22764     102002.7      46.7237      46.7237      46.7237 
  159000    129.00754   -11071.139   -9833.6668     19.52476     102002.7      46.7237      46.7237      46.7237 
  160000    129.45199   -11029.933   -9788.1975    355.08263     102002.7      46.7237      46.7237      46.7237 
  161000    127.66964   -11028.604   -9803.9655    477.83965     102002.7      46.7237      46.7237      46.7237 
  162000    128.64541   -11029.681   -9795.6825    534.56887     102002.7      46.7237      46.7237      46.7237 
  163000    125.91881   -11043.369   -9835.5245    285.57714     102002.7      46.7237      46.7237      46.7237 
  164000    128.31733   -11023.359   -9792.5072    342.14971     102002.7      46.7237      46.7237      46.7237 
  165000    128.72457   -11049.788   -9815.0304    266.57071     102002.7      46.7237      46.7237      46.7237 
  166000    131.57076   -11053.453   -9791.3933    461.79505     102002.7      46.7237      46.7237      46.7237 
  167000    131.49176   -11013.804   -9752.5024    249.73528     102002.7      46.7237      46.7237      46.7237 
  168000    128.22656   -11068.539    -9838.558    377.49299     102002.7      46.7237      46.7237      46.7237 
  169000    128.63648   -11046.335   -9812.4226    278.20669     102002.7      46.7237      46.7237      46.7237 
  170000    130.40817   -11068.321    -9817.414    78.115801     102002.7      46.7237      46.7237      46.7237 
  171000    127.98699   -11054.839   -9827.1563    281.56561     102002.7      46.7237      46.7237      46.7237 
  172000     132.8969   -11050.043    -9775.263    142.30209     102002.7      46.7237      46.7237      46.7237 
  173000     130.1139   -11046.958   -9798.8732    87.020209     102002.7      46.7237      46.7237      46.7237 
  174000       132.99   -11049.902   -9774.2294    463.42693     102002.7      46.7237      46.7237      46.7237 
  175000    130.67366   -11038.389   -9784.9354     339.4965     102002.7      46.7237      46.7237      46.7237 
  176000    128.52702   -11050.642   -9817.7791     413.1789     102002.7      46.7237      46.7237      46.7237 
  177000    131.32259   -11043.627    -9783.948    777.27605     102002.7      46.7237      46.7237      46.7237 
  178000    129.01466   -11022.195   -9784.6541    280.52999     102002.7      46.7237      46.7237      46.7237 
  179000    128.48697   -11053.699   -9821.2201    763.84665     102002.7      46.7237      46.7237      46.7237 
  180000    128.42238   -11040.416   -9808.5571     934.1256     102002.7      46.7237      46.7237      46.7237 
  181000    131.50279    -11010.59   -9749.1827    342.33245     102002.7      46.7237      46.7237      46.7237 
  182000    131.96898   -11043.005   -9777.1263    368.08517     102002.7      46.7237      46.7237      46.7237 
  183000    127.93832   -11038.401   -9811.1854    79.229507     102002.7      46.7237      46.7237      46.7237 
  184000    130.57232   -11041.628    -9789.146    188.26136     102002.7      46.7237      46.7237      46.7237 
  185000    131.84162   -11031.041   -9766.3838    404.56738     102002.7      46.7237      46.7237      46.7237 
  186000    129.52103   -11008.095   -9765.6976    354.31463     102002.7      46.7237      46.7237      46.7237 
  187000    130.80529   -11052.395   -9797.6781    326.93413     102002.7      46.7237      46.7237      46.7237 
  188000    129.50878   -11041.353   -9799.0728    119.36884     102002.7      46.7237      46.7237      46.7237 
  189000    130.58051   -11046.561   -9794.0005    399.38473     102002.7      46.7237      46.7237      46.7237 
  190000    129.98466   -11034.128    -9787.283    443.66377     102002.7      46.7237      46.7237      46.7237 
  191000    133.16416    -11044.76   -9767.4167    176.94148     102002.7      46.7237      46.7237      46.7237 
  192000     132.8207   -11023.848   -9749.7988    441.15291     102002.7      46.7237      46.7237      46.7237 
  193000      129.352   -11039.528   -9798.7521    408.04643     102002.7      46.7237      46.7237      46.7237 
  194000    131.11445   -11007.376   -9749.6939    488.88443     102002.7      46.7237      46.7237      46.7237 
  195000    127.95816   -11035.944   -9808.5379    731.14846     102002.7      46.7237      46.7237      46.7237 
  196000    132.09367   -10994.128   -9727.0534    692.06813     102002.7      46.7237      46.7237      46.7237 
  197000    130.13174   -11020.746   -9772.4899    371.94929     102002.7      46.7237      46.7237      46.7237 
  198000    132.45438   -11027.534   -9756.9987    336.29117     102002.7      46.7237      46.7237      46.7237 
  199000    130.30595    -11051.76   -9801.8328    115.04531     102002.7      46.7237      46.7237      46.7237 
  200000    129.08371   -11036.043   -9797.8405    687.73502     102002.7      46.7237      46.7237      46.7237 
  201000    129.00687   -11030.052   -9792.5864    133.13294     102002.7      46.7237      46.7237      46.7237 
  202000    130.59174   -11028.933   -9776.2649    8.4792828     102002.7      46.7237      46.7237      46.7237 
  203000    134.82161   -11038.491   -9745.2487    432.54072     102002.7      46.7237      46.7237      46.7237 
  204000    129.63733   -11033.782   -9790.2685    61.387442     102002.7      46.7237      46.7237      46.7237 
  205000    130.33101   -11032.037   -9781.8701    424.21232     102002.7      46.7237      46.7237      46.7237 
  206000    129.65382   -11022.555   -9778.8834    11.038359     102002.7      46.7237      46.7237      46.7237 
  207000    129.17013   -11064.872   -9825.8398    113.99149     102002.7      46.7237      46.7237      46.7237 
  208000    128.75487    -11057.41   -9822.3613    196.13146     102002.7      46.7237      46.7237      46.7237 
  209000    128.68086   -11044.761   -9810.4228    314.93582     102002.7      46.7237      46.7237      46.7237 
  210000    130.55439   -11040.834    -9788.524    445.71585     102002.7      46.7237      46.7237      46.7237 
  211000    132.68976   -11001.608   -9728.8147    424.55816     102002.7      46.7237      46.7237      46.7237 
  212000    130.39742   -11045.612   -9794.8083    440.30792     102002.7      46.7237      46.7237      46.7237 
  213000    134.72744   -11013.008   -9720.6697    710.17118     102002.7      46.7237      46.7237      46.7237 
  214000    133.80167   -11030.201   -9746.7421    510.26565     102002.7      46.7237      46.7237      46.7237 
  215000     129.4501    -10995.65   -9753.9322    504.92339     102002.7      46.7237      46.7237      46.7237 
  216000     128.5103   -11049.322    -9816.619   -329.56332     102002.7      46.7237      46.7237      46.7237 
  217000    132.41078   -11033.432   -9763.3148    133.64772     102002.7      46.7237      46.7237      46.7237 
  218000    131.23402   -11014.598   -9755.7685     252.5563     102002.7      46.7237      46.7237      46.7237 
  219000    129.47275   -11030.382   -9788.4472     226.9652     102002.7      46.7237      46.7237      46.7237 
  220000    133.64072   -11045.194   -9763.2791     382.5834     102002.7      46.7237      46.7237      46.7237 
  221000    130.53076   -11032.814   -9780.7307    228.41327     102002.7      46.7237      46.7237      46.7237 
  222000    125.92688   -11041.955   -9834.0335    160.92596     102002.7      46.7237      46.7237      46.7237 
  223000    128.88899   -11017.274   -9780.9389    473.77611     102002.7      46.7237      46.7237      46.7237 
  224000    131.21717   -11070.964   -9812.2967   -11.946071     102002.7      46.7237      46.7237      46.7237 
  225000    133.35055   -11049.972   -9770.8405    541.98546     102002.7      46.7237      46.7237      46.7237 
  226000    132.00983    -11024.34   -9758.0693    310.32225     102002.7      46.7237      46.7237      46.7237 
  227000    130.69465   -11025.387   -9771.7317    88.256225     102002.7      46.7237      46.7237      46.7237 
  228000    128.61734   -11039.303    -9805.574     563.5978     102002.7      46.7237      46.7237      46.7237 
  229000    132.13342   -11040.322   -9772.8656    328.15751     102002.7      46.7237      46.7237      46.7237 
  230000    130.77237   -11037.532    -9783.131    315.86241     102002.7      46.7237      46.7237      46.7237 
  231000      129.436   -11060.924   -9819.3419    80.073926     102002.7      46.7237      46.7237      46.7237 
  232000    126.91005   -11040.284   -9822.9311    105.78038     102002.7      46.7237      46.7237      46.7237 
  233000    128.29831   -11030.326   -9799.6568     47.75872     102002.7      46.7237      46.7237      46.7237 
  234000    130.87197   -11068.031   -9812.6752    888.92763     102002.7      46.7237      46.7237      46.7237 
  235000     130.0136   -11073.832   -9826.7093    723.61833     102002.7      46.7237      46.7237      46.7237 
  236000    128.93218   -11040.186   -9803.4362    151.94266     102002.7      46.7237      46.7237      46.7237 
  237000    129.79015   -11051.228   -9806.2491    118.75006     102002.7      46.7237      46.7237      46.7237 
  238000    131.01435   -11058.084   -9801.3625    115.46118     102002.7      46.7237      46.7237      46.7237 
  239000    129.58678   -11009.962   -9766.9341    212.62098     102002.7      46.7237      46.7237      46.7237 
  240000    131.55212   -11040.219   -9778.3383    576.33402     102002.7      46.7237      46.7237      46.7237 
  241000    132.06984   -11039.425   -9772.5785   -59.727205     102002.7      46.7237      46.7237      46.7237 
  242000    130.75095   -11063.109   -9808.9137    405.70476     102002.7      46.7237      46.7237      46.7237 
  243000    131.35721   -11060.564   -9800.5529    362.52378     102002.7      46.7237      46.7237      46.7237 
  244000    128.29227   -11051.807   -9821.1956     205.3492     102002.7      46.7237      46.7237      46.7237 
  245000    127.45632   -11030.183   -9807.5906    723.68924     102002.7      46.7237      46.7237      46.7237 
  246000    124.62687     -11051.3   -9855.8478    165.90052     102002.7      46.7237      46.7237      46.7237 
  247000    132.02765   -11040.962   -9774.5203    66.465083     102002.7      46.7237      46.7237      46.7237 
  248000    128.73988   -11055.225   -9820.3198    662.53871     102002.7      46.7237      46.7237      46.7237 
  249000     133.4023   -11030.287   -9750.6587   -58.109989     102002.7      46.7237      46.7237      46.7237 
  250000    129.63715   -11035.815   -9792.3032          521     102002.7      46.7237      46.7237      46.7237 
  251000    127.43707   -11030.069   -9807.6611    560.05795     102002.7      46.7237      46.7237      46.7237 
  252000    133.47986   -11011.728   -9731.3561    198.06512     102002.7      46.7237      46.7237      46.7237 
  253000    132.25199   -11042.556   -9773.9626    545.68196     102002.7      46.7237      46.7237      46.7237 
  254000    131.26538   -11043.228   -9784.0981    250.46116     102002.7      46.7237      46.7237      46.7237 
  255000    127.71924   -11024.317    -9799.202    159.60851     102002.7      46.7237      46.7237      46.7237 
  256000    132.58631   -10995.964   -9724.1633    486.00128     102002.7      46.7237      46.7237      46.7237 
  257000    128.56569   -11050.548    -9817.314    403.65397     102002.7      46.7237      46.7237      46.7237 
  258000    131.14274   -11036.709   -9778.7552    444.20183     102002.7      46.7237      46.7237      46.7237 
  259000    125.39747   -11007.879    -9805.035    452.21632     102002.7      46.7237      46.7237      46.7237 
  260000    125.50964   -11037.013    -9833.094    154.54865     102002.7      46.7237      46.7237      46.7237 
  261000    130.27249   -11026.058   -9776.4517    333.06013     102002.7      46.7237      46.7237      46.7237 
  262000    129.56963   -11049.793   -9806.9286    414.62044     102002.7      46.7237      46.7237      46.7237 
  263000    130.29105   -11034.746    -9784.962    482.10795     102002.7      46.7237      46.7237      46.7237 
  264000    126.61102    -11083.53   -9869.0459    576.16686     102002.7      46.7237      46.7237      46.7237 
  265000    129.78789   -11044.452   -9799.4943    362.47552     102002.7      46.7237      46.7237      46.7237 
  266000    132.98451   -11036.446   -9760.8255    374.09086     102002.7      46.7237      46.7237      46.7237 
  267000    129.97948   -11013.211   -9766.4162    736.23694     102002.7      46.7237      46.7237      46.7237 
  268000    127.23634   -11040.515   -9820.0329    125.97203     102002.7      46.7237      46.7237      46.7237 
  269000    130.11957   -11040.975    -9792.836    163.39572     102002.7      46.7237      46.7237      46.7237 
  270000    132.94061   -11051.671   -9776.4715    458.03938     102002.7      46.7237      46.7237      46.7237 
  271000    126.67708   -11028.931   -9813.8136    118.54972     102002.7      46.7237      46.7237      46.7237 
  272000    129.08643   -11032.667    -9794.438    244.71427     102002.7      46.7237      46.7237      46.7237 
  273000    128.67163   -11027.569   -9793.3191    337.53181     102002.7      46.7237      46.7237      46.7237 
  274000    130.25387   -11035.665   -9786.2378    146.45262     102002.7      46.7237      46.7237      46.7237 
  275000    132.26579   -11029.802   -9761.0758    744.87402     102002.7      46.7237      46.7237      46.7237 
  276000     128.5959   -11010.329   -9776.8054    503.48567     102002.7      46.7237      46.7237      46.7237 
  277000    129.00167   -11034.189   -9796.7734    446.94502     102002.7      46.7237      46.7237      46.7237 
  278000    132.01212   -11026.551   -9760.2578    460.95458     102002.7      46.7237      46.7237      46.7237 
  279000    131.53321    -11036.71   -9775.0107    421.18654     102002.7      46.7237      46.7237      46.7237 
  280000    124.36505   -11062.702   -9869.7619    611.39712     102002.7      46.7237      46.7237      46.7237 
  281000    130.29346   -11021.802   -9771.9947    567.59853     102002.7      46.7237      46.7237      46.7237 
  282000    126.52712   -11036.374   -9822.6949    335.40861     102002.7      46.7237      46.7237      46.7237 
  283000    127.57968   -11043.404   -9819.6285    60.458352     102002.7      46.7237      46.7237      46.7237 
  284000    133.28784   -11047.429   -9768.8996    148.69377     102002.7      46.7237      46.7237      46.7237 
  285000    128.12179   -11053.238   -9824.2621    18.015799     102002.7      46.7237      46.7237      46.7237 
  286000    130.27412   -11060.429   -9810.8074    261.74443     102002.7      46.7237      46.7237      46.7237 
  287000    133.04722   -11014.127   -9737.9055    537.89436     102002.7      46.7237      46.7237      46.7237 
  288000    131.81198   -11044.702   -9780.3293    274.02989     102002.7      46.7237      46.7237      46.7237 
  289000    129.91487    -11069.14   -9822.9647      288.249     102002.7      46.7237      46.7237      46.7237 
  290000    131.80361   -11041.564   -9777.2711    474.24314     102002.7      46.7237      46.7237      46.7237 
  291000    131.98962   -11055.537   -9789.4603    163.92365     102002.7      46.7237      46.7237      46.7237 
  292000    132.25791   -11070.391   -9801.7406    473.91786     102002.7      46.7237      46.7237      46.7237 
  293000    130.77812    -11049.29   -9794.8337    364.24732     102002.7      46.7237      46.7237      46.7237 
  294000    129.16269   -11036.573   -9797.6126    636.59104     102002.7      46.7237      46.7237      46.7237 
  295000    130.00466   -11022.386   -9775.3495    452.13961     102002.7      46.7237      46.7237      46.7237 
  296000    129.87403   -11048.478   -9802.6946     540.2915     102002.7      46.7237      46.7237      46.7237 
  297000    127.97221   -11045.562   -9818.0215    346.68156     102002.7      46.7237      46.7237      46.7237 
  298000    132.34455   -11003.914    -9734.432    311.52183     102002.7      46.7237      46.7237      46.7237 
  299000    132.15093   -11006.579   -9738.9546    745.71038     102002.7      46.7237      46.7237      46.7237 
  300000    129.00473   -11023.866   -9786.4207    333.91158     102002.7      46.7237      46.7237      46.7237 
  301000     128.8166   -11076.701   -9841.0603    69.875147     102002.7      46.7237      46.7237      46.7237 
  302000    130.83282   -11021.354   -9766.3732    521.48645     102002.7      46.7237      46.7237      46.7237 
  303000    128.21958   -11049.991   -9820.0772    323.87021     102002.7      46.7237      46.7237      46.7237 
  304000    132.53433   -11039.844   -9768.5416    254.98548     102002.7      46.7237      46.7237      46.7237 
  305000    130.98157     -11048.3   -9791.8925    542.24709     102002.7      46.7237      46.7237      46.7237 
  306000    127.50101   -11041.377   -9818.3563    264.70056     102002.7      46.7237      46.7237      46.7237 
  307000    129.87864   -11015.102   -9769.2736    417.78161     102002.7      46.7237      46.7237      46.7237 
  308000    129.62932   -11041.838   -9798.4015    382.08935     102002.7      46.7237      46.7237      46.7237 
  309000      127.372   -11044.935   -9823.1513     193.0311     102002.7      46.7237      46.7237      46.7237 
  310000     128.9479   -11011.137   -9774.2372    506.25955     102002.7      46.7237      46.7237      46.7237 
  311000    124.38892   -11050.754   -9857.5844    443.34979     102002.7      46.7237      46.7237      46.7237 
  312000    128.28298    -11023.05   -9792.5283    449.97879     102002.7      46.7237      46.7237      46.7237 
  313000    132.40683   -11060.634   -9790.5552    553.50664     102002.7      46.7237      46.7237      46.7237 
  314000    133.41544    -11054.79   -9775.0362    214.99787     102002.7      46.7237      46.7237      46.7237 
  315000    132.13048    -11041.12   -9773.6922    586.67807     102002.7      46.7237      46.7237      46.7237 
  316000    129.62179   -11042.262   -9798.8977    425.36526     102002.7      46.7237      46.7237      46.7237 
  317000    131.24987   -11032.354   -9773.3724    226.15571     102002.7      46.7237      46.7237      46.7237 
  318000    128.68474   -11055.816   -9821.4398     180.0306     102002.7      46.7237      46.7237      46.7237 
  319000     132.5504   -11005.541   -9734.0852    307.23685     102002.7      46.7237      46.7237      46.7237 
  320000    131.11331    -11003.85   -9746.1784    500.14947     102002.7      46.7237      46.7237      46.7237 
  321000    126.52876     -11044.6   -9830.9051    164.02932     102002.7      46.7237      46.7237      46.7237 
  322000    131.31267   -11016.807   -9757.2233    221.38074     102002.7      46.7237      46.7237      46.7237 
  323000    132.00784   -11027.595   -9761.3431    418.51809     102002.7      46.7237      46.7237      46.7237 
  324000    128.78654    -11039.81   -9804.4574    497.80548     102002.7      46.7237      46.7237      46.7237 
  325000    132.79825   -11028.714   -9754.8805    363.92056     102002.7      46.7237      46.7237      46.7237 
  326000    130.84055   -11058.631   -9803.5767    311.62173     102002.7      46.7237      46.7237      46.7237 
  327000    125.08085   -11078.875   -9879.0687    318.06713     102002.7      46.7237      46.7237      46.7237 
  328000    127.80878   -11034.896   -9808.9222    333.78739     102002.7      46.7237      46.7237      46.7237 
  329000    131.29252   -11032.381   -9772.9911    285.06675     102002.7      46.7237      46.7237      46.7237 
  330000    131.39554   -11057.847   -9797.4685    334.78605     102002.7      46.7237      46.7237      46.7237 
  331000    127.25856   -11031.464   -9810.7685    384.68499     102002.7      46.7237      46.7237      46.7237 
  332000    128.49168   -11055.027   -9822.5035    649.33732     102002.7      46.7237      46.7237      46.7237 
  333000    129.58572    -11042.39   -9799.3718    484.23977     102002.7      46.7237      46.7237      46.7237 
  334000    129.67601   -11020.782   -9776.8978    248.45703     102002.7      46.7237      46.7237      46.7237 
  335000    128.50309   -11056.402    -9823.769    346.56617     102002.7      46.7237      46.7237      46.7237 
  336000    131.75074   -11020.386   -9756.6008    818.17017     102002.7      46.7237      46.7237      46.7237 
  337000     130.5988   -11071.148    -9818.412    519.17282     102002.7      46.7237      46.7237      46.7237 
  338000    130.85074   -11040.081   -9784.9284    220.82317     102002.7      46.7237      46.7237      46.7237 
  339000    128.17484   -11049.318   -9819.8335    570.05676     102002.7      46.7237      46.7237      46.7237 
  340000    130.16724   -11042.294   -9793.6981    260.09472     102002.7      46.7237      46.7237      46.7237 
  341000    128.06173   -11037.354   -9808.9542    398.43057     102002.7      46.7237      46.7237      46.7237 
  342000    128.74938   -11047.757   -9812.7608    378.52043     102002.7      46.7237      46.7237      46.7237 
  343000     130.9427   -11052.157   -9796.1218   -17.570404     102002.7      46.7237      46.7237      46.7237 
  344000    128.52525   -11046.863   -9814.0166    493.32178     102002.7      46.7237      46.7237      46.7237 
  345000    126.26373   -11058.569   -9847.4165    422.24522     102002.7      46.7237      46.7237      46.7237 
  346000     133.2947   -11037.398   -9758.8028    123.63935     102002.7      46.7237      46.7237      46.7237 
  347000    129.44703   -11061.417   -9819.7291    499.70943     102002.7      46.7237      46.7237      46.7237 
  348000    132.31542   -11039.026   -9769.8238    162.17551     102002.7      46.7237      46.7237      46.7237 
  349000    132.25961   -11058.226   -9789.5596    182.48695     102002.7      46.7237      46.7237      46.7237 
  350000    129.77168   -11039.046   -9794.2442    552.05547     102002.7      46.7237      46.7237      46.7237 
  351000    130.70505   -11027.917   -9774.1619    83.422968     102002.7      46.7237      46.7237      46.7237 
  352000    129.53461   -11050.993   -9808.4651    334.45188     102002.7      46.7237      46.7237      46.7237 
  353000    128.28858   -11048.725   -9818.1489    90.463848     102002.7      46.7237      46.7237      46.7237 
  354000    128.15466   -11039.071   -9809.7803    347.39359     102002.7      46.7237      46.7237      46.7237 
  355000    126.89974   -11057.927   -9840.6729    617.79864     102002.7      46.7237      46.7237      46.7237 
  356000    128.51859   -11042.113   -9809.3305    311.06238     102002.7      46.7237      46.7237      46.7237 
  357000    131.18067   -11015.732   -9757.4151    463.28034     102002.7      46.7237      46.7237      46.7237 
  358000    132.49193   -11034.583   -9763.6879    197.31636     102002.7      46.7237      46.7237      46.7237 
  359000    127.44158    -11038.42   -9815.9687     3.739582     102002.7      46.7237      46.7237      46.7237 
  360000     130.3452   -11061.886   -9811.5823    96.377587     102002.7      46.7237      46.7237      46.7237 
  361000      130.469   -11027.005    -9775.514    19.732973     102002.7      46.7237      46.7237      46.7237 
  362000    133.94613   -11057.274   -9772.4294    165.62585     102002.7      46.7237      46.7237      46.7237 
  363000    126.70891   -11050.592   -9835.1687    401.48899     102002.7      46.7237      46.7237      46.7237 
  364000    133.01356   -11018.276   -9742.3768    207.67513     102002.7      46.7237      46.7237      46.7237 
  365000    129.10133   -11038.818   -9800.4462    329.62763     102002.7      46.7237      46.7237      46.7237 
  366000    131.09596   -11029.718   -9772.2129    179.58789     102002.7      46.7237      46.7237      46.7237 
  367000     128.8016    -11032.57   -9797.0732     205.8938     102002.7      46.7237      46.7237      46.7237 
  368000    130.91327   -11040.878   -9785.1256    415.48951     102002.7      46.7237      46.7237      46.7237 
  369000    129.39556    -11061.72   -9820.5262    459.73685     102002.7      46.7237      46.7237      46.7237 
  370000    127.82772    -11054.31   -9828.1547    223.56663     102002.7      46.7237      46.7237      46.7237 
  371000    132.84179   -11031.715   -9757.4639    516.43251     102002.7      46.7237      46.7237      46.7237 
  372000    130.00148   -11061.777   -9814.7707    273.82896     102002.7      46.7237      46.7237      46.7237 
  373000    129.57512    -11043.27   -9800.3538    376.03733     102002.7      46.7237      46.7237      46.7237 
  374000    129.72313   -11026.388   -9782.0518     540.1146     102002.7      46.7237      46.7237      46.7237 
  375000    128.85154   -11052.353    -9816.377    321.29958     102002.7      46.7237      46.7237      46.7237 
  376000    131.70754   -11027.006   -9763.6349    561.32315     102002.7      46.7237      46.7237      46.7237 
  377000    127.59343   -11031.071   -9807.1635    679.96003     102002.7      46.7237      46.7237      46.7237 
  378000    132.63344   -10987.004   -9714.7518    355.46108     102002.7      46.7237      46.7237      46.7237 
  379000    132.34153   -11060.037   -9790.5844    153.07313     102002.7      46.7237      46.7237      46.7237 
  380000    130.61641   -11034.476   -9781.5707    381.03557     102002.7      46.7237      46.7237      46.7237 
  381000     131.1625   -11040.856   -9782.7131    283.10688     102002.7      46.7237      46.7237      46.7237 
  382000    130.98773   -11035.688    -9779.221    455.17366     102002.7      46.7237      46.7237      46.7237 
  383000    131.57616   -11014.728   -9752.6171    346.71124     102002.7      46.7237      46.7237      46.7237 
  384000    126.32755    -11047.34   -9835.5747    56.144362     102002.7      46.7237      46.7237      46.7237 
  385000    130.30032   -11007.894   -9758.0211    405.24935     102002.7      46.7237      46.7237      46.7237 
  386000    126.82756    -11037.41   -9820.8491    173.60271     102002.7      46.7237      46.7237      46.7237 
  387000    129.03134   -11020.463   -9782.7624    220.81344     102002.7      46.7237      46.7237      46.7237 
  388000    128.61999   -11059.387   -9825.6326    34.585873     102002.7      46.7237      46.7237      46.7237 
  389000    134.17307    -11007.29   -9720.2692    425.86582     102002.7      46.7237      46.7237      46.7237 
  390000    129.11053   -11026.054   -9787.5941    520.63471     102002.7      46.7237      46.7237      46.7237 
  391000      131.307   -11006.218   -9746.6889    436.11945     102002.7      46.7237      46.7237      46.7237 
  392000    128.31825   -11013.226   -9782.3659    476.42884     102002.7      46.7237      46.7237      46.7237 
  393000    131.62288   -11061.992   -9799.4327    38.706582     102002.7      46.7237      46.7237      46.7237 
  394000    129.73116   -11018.447   -9774.0336    120.67405     102002.7      46.7237      46.7237      46.7237 
  395000    131.97507   -11022.648   -9756.7102    477.88157     102002.7      46.7237      46.7237      46.7237 
  396000    131.66961    -11037.18   -9774.1721    367.23974     102002.7      46.7237      46.7237      46.7237 
  397000    130.64721   -11061.786   -9808.5855    38.630807     102002.7      46.7237      46.7237      46.7237 
  398000    131.79971   -11035.593   -9771.3379    325.79109     102002.7      46.7237      46.7237      46.7237 
  399000    131.64984   -11037.476   -9774.6582    298.95088     102002.7      46.7237      46.7237      46.7237 
  400000    133.05206   -11021.138   -9744.8699    535.00475     102002.7      46.7237      46.7237      46.7237 
  401000    129.00868   -11041.858   -9804.3752    790.39821     102002.7      46.7237      46.7237      46.7237 
  402000    131.47941   -11069.166   -9807.9832    323.95475     102002.7      46.7237      46.7237      46.7237 
  403000    129.27876   -11019.647   -9779.5735    373.81157     102002.7      46.7237      46.7237      46.7237 
  404000    128.50155   -11048.157   -9815.5387    415.26971     102002.7      46.7237      46.7237      46.7237 
  405000    128.54628   -11069.289   -9836.2412    548.81221     102002.7      46.7237      46.7237      46.7237 
  406000    127.20604   -11045.394   -9825.2021    480.57405     102002.7      46.7237      46.7237      46.7237 
  407000     130.3282   -11053.338   -9803.1978    303.02284     102002.7      46.7237      46.7237      46.7237 
  408000    130.62263   -11031.209   -9778.2442     356.0313     102002.7      46.7237      46.7237      46.7237 
  409000    132.33848   -11025.898   -9756.4744    151.56199     102002.7      46.7237      46.7237      46.7237 
  410000    128.45784   -11053.121   -9820.9214    284.89645     102002.7      46.7237      46.7237      46.7237 
  411000    129.82731   -11003.781   -9758.4453    620.31197     102002.7      46.7237      46.7237      46.7237 
  412000    131.11603   -11045.791   -9788.0939    407.94459     102002.7      46.7237      46.7237      46.7237 
  413000    128.30303   -11032.956   -9802.2421    403.37016     102002.7      46.7237      46.7237      46.7237 
  414000    128.26185   -10998.603   -9768.2835    365.37671     102002.7      46.7237      46.7237      46.7237 
  415000    128.21401     -11042.4   -9812.5393    381.27618     102002.7      46.7237      46.7237      46.7237 
  416000    131.12689   -11028.828   -9771.0262    371.58852     102002.7      46.7237      46.7237      46.7237 
  417000     129.9083   -11036.355   -9790.2428    589.78978     102002.7      46.7237      46.7237      46.7237 
  418000    128.53374   -11073.067   -9840.1396    416.22912     102002.7      46.7237      46.7237      46.7237 
  419000     130.5593   -11020.232   -9767.8753    358.50734     102002.7      46.7237      46.7237      46.7237 
  420000    126.18988   -11041.594   -9831.1493    304.42614     102002.7      46.7237      46.7237      46.7237 
  421000    128.90141   -11039.818   -9803.3644    209.21077     102002.7      46.7237      46.7237      46.7237 
  422000    129.90317   -11016.517   -9770.4533    439.19364     102002.7      46.7237      46.7237      46.7237 
  423000    129.49814   -11048.733    -9806.555    125.38783     102002.7      46.7237      46.7237      46.7237 
  424000    131.33909   -11010.077     -9750.24    542.78728     102002.7      46.7237      46.7237      46.7237 
  425000    128.29087   -11039.865   -9809.2671    297.57085     102002.7      46.7237      46.7237      46.7237 
  426000    128.36786   -11051.976   -9820.6396    295.98379     102002.7      46.7237      46.7237      46.7237 
  427000    131.44837   -11037.372   -9776.4867    182.52576     102002.7      46.7237      46.7237      46.7237 
  428000    130.16111    -11017.26   -9768.7223    63.733082     102002.7      46.7237      46.7237      46.7237 
  429000    129.57805   -11050.706   -9807.7616    191.60899     102002.7      46.7237      46.7237      46.7237 
  430000    127.75988    -11032.04   -9806.5354    513.22041     102002.7      46.7237      46.7237      46.7237 
  431000    128.98338   -11005.623   -9768.3831    506.94449     102002.7      46.7237      46.7237      46.7237 
  432000     127.2027   -11033.413   -9813.2533    475.12563     102002.7      46.7237      46.7237      46.7237 
  433000    129.62333   -11063.359   -9819.9796    57.520779     102002.7      46.7237      46.7237      46.7237 
  434000    130.96558   -11028.583    -9772.329    844.08887     102002.7      46.7237      46.7237      46.7237 
  435000    129.72147   -11036.939   -9792.6188    608.33245     102002.7      46.7237      46.7237      46.7237 
  436000    130.11936   -11076.757   -9828.6203    614.67506     102002.7      46.7237      46.7237      46.7237 
  437000    133.24841   -11050.393   -9772.2416    400.17078     102002.7      46.7237      46.7237      46.7237 
  438000    131.47058   -11050.683   -9789.5851    264.29121     102002.7      46.7237      46.7237      46.7237 
  439000    130.87971   -11056.857   -9801.4261     531.9585     102002.7      46.7237      46.7237      46.7237 
  440000    131.42381   -11052.387   -9791.7373    272.19806     102002.7      46.7237      46.7237      46.7237 
  441000    131.57954   -11012.446   -9750.3027    159.93977     102002.7      46.7237      46.7237      46.7237 
  442000     133.6792   -11062.251   -9779.9668     334.9321     102002.7      46.7237      46.7237      46.7237 
  443000    129.29424   -11030.207   -9789.9847    192.23754     102002.7      46.7237      46.7237      46.7237 
  444000    129.34838   -11022.147   -9781.4059    444.26126     102002.7      46.7237      46.7237      46.7237 
  445000    128.22798   -11023.713   -9793.7183   -55.711255     102002.7      46.7237      46.7237      46.7237 
  446000    129.55188   -11035.959   -9793.2656    308.40424     102002.7      46.7237      46.7237      46.7237 
  447000    130.88101   -11043.441   -9787.9978    618.44541     102002.7      46.7237      46.7237      46.7237 
  448000    133.78417   -11036.637   -9753.3459    533.93695     102002.7      46.7237      46.7237      46.7237 
  449000    132.23741    -11052.66   -9784.2064    269.35318     102002.7      46.7237      46.7237      46.7237 
  450000    128.70416   -11047.838   -9813.2757    544.82854     102002.7      46.7237      46.7237      46.7237 
  451000    129.35773   -11023.373   -9782.5419    781.58488     102002.7      46.7237      46.7237      46.7237 
  452000    130.49178   -11050.445   -9798.7356    377.81049     102002.7      46.7237      46.7237      46.7237 
  453000    130.00411   -11033.443   -9786.4117     203.5475     102002.7      46.7237      46.7237      46.7237 
  454000    128.28255   -11019.005    -9788.487    451.42912     102002.7      46.7237      46.7237      46.7237 
  455000    127.74595   -11069.298   -9843.9269    73.719972     102002.7      46.7237      46.7237      46.7237 
  456000    131.46231   -11034.306   -9773.2871     518.9075     102002.7      46.7237      46.7237      46.7237 
  457000    126.07317   -11034.835   -9825.5096    380.94381     102002.7      46.7237      46.7237      46.7237 
  458000    130.21008    -11050.21   -9801.2022    120.25685     102002.7      46.7237      46.7237      46.7237 
  459000    131.10952   -11038.433   -9780.7978    590.21149     102002.7      46.7237      46.7237      46.7237 
  460000    134.68653   -11031.076   -9739.1294    234.12027     102002.7      46.7237      46.7237      46.7237 
  461000    128.94854   -11030.376     -9793.47    543.56614     102002.7      46.7237      46.7237      46.7237 
  462000    131.66929   -11024.747    -9761.743    764.12606     102002.7      46.7237      46.7237      46.7237 
  463000    133.17619   -11036.105    -9758.646    608.59859     102002.7      46.7237      46.7237      46.7237 
  464000    126.64211   -11047.074   -9832.2913    438.93666     102002.7      46.7237      46.7237      46.7237 
  465000    129.63487   -11020.912   -9777.4219    164.87939     102002.7      46.7237      46.7237      46.7237 
  466000    128.01431   -11011.211    -9783.266    327.95567     102002.7      46.7237      46.7237      46.7237 
  467000    127.59851   -11020.299   -9796.3424    178.90399     102002.7      46.7237      46.7237      46.7237 
  468000    131.76266   -11025.073    -9761.173    243.51564     102002.7      46.7237      46.7237      46.7237 
  469000    132.56395   -11042.346   -9770.7599    374.72694     102002.7      46.7237      46.7237      46.7237 
  470000    127.61434   -11047.794   -9823.6862   -3.6669549     102002.7      46.7237      46.7237      46.7237 
  471000    131.64626   -11045.118   -9782.3342    166.76665     102002.7      46.7237      46.7237      46.7237 
  472000    130.19429   -11052.778   -9803.9224    418.43089     102002.7      46.7237      46.7237      46.7237 
  473000    131.34854   -11053.989   -9794.0617    34.882623     102002.7      46.7237      46.7237      46.7237 
  474000     130.0484   -11037.654   -9790.1975    283.24892     102002.7      46.7237      46.7237      46.7237 
  475000    131.81226   -11046.318   -9781.9419    230.01907     102002.7      46.7237      46.7237      46.7237 
  476000    133.23047   -11063.905   -9785.9253    703.07656     102002.7      46.7237      46.7237      46.7237 
  477000    131.77408   -11047.213   -9783.2032    373.58734     102002.7      46.7237      46.7237      46.7237 
  478000    130.86824   -11042.776    -9787.456    337.77721     102002.7      46.7237      46.7237      46.7237 
  479000    127.23834   -11038.846   -9818.3444    418.40241     102002.7      46.7237      46.7237      46.7237 
  480000    129.27236   -11006.303   -9766.2904    540.66461     102002.7      46.7237      46.7237      46.7237 
  481000    130.94174   -11014.652   -9758.6264    579.80656     102002.7      46.7237      46.7237      46.7237 
  482000    130.04231   -11037.317   -9789.9191    872.96739     102002.7      46.7237      46.7237      46.7237 
  483000    129.48136   -11006.912   -9764.8945    600.31673     102002.7      46.7237      46.7237      46.7237 
  484000    133.19402   -11035.091   -9757.4607    595.38736     102002.7      46.7237      46.7237      46.7237 
  485000    128.61122   -11027.628   -9793.9572    586.57697     102002.7      46.7237      46.7237      46.7237 
  486000    129.50799   -10989.938   -9747.6654    248.55524     102002.7      46.7237      46.7237      46.7237 
  487000    129.39384   -11044.838   -9803.6605    29.739626     102002.7      46.7237      46.7237      46.7237 
  488000    128.54798   -11041.502   -9808.4377    158.82406     102002.7      46.7237      46.7237      46.7237 
  489000    130.31011   -11016.077   -9766.1108    295.07697     102002.7      46.7237      46.7237      46.7237 
  490000    131.12914   -11040.303     -9782.48    142.09897     102002.7      46.7237      46.7237      46.7237 
  491000    130.38927   -11045.195   -9794.4687    269.30052     102002.7      46.7237      46.7237      46.7237 
  492000    127.96867   -11028.958   -9801.4511    215.82911     102002.7      46.7237      46.7237      46.7237 
  493000    128.50692   -11002.731   -9770.0611     403.9824     102002.7      46.7237      46.7237      46.7237 
  494000    132.32865   -11043.263   -9773.9335    300.17186     102002.7      46.7237      46.7237      46.7237 
  495000    127.53456   -11038.166   -9814.8226    212.38943     102002.7      46.7237      46.7237      46.7237 
  496000    130.08695   -11047.293   -9799.4671    551.45031     102002.7      46.7237      46.7237      46.7237 
  497000    127.35458   -11052.176   -9830.5592    412.34257     102002.7      46.7237      46.7237      46.7237 
  498000    130.62152   -11031.765   -9778.8108    262.76782     102002.7      46.7237      46.7237      46.7237 
  499000    130.12217   -11044.521   -9796.3574    341.19904     102002.7      46.7237      46.7237      46.7237 
  500000    131.43624   -11074.421   -9813.6525    90.033328     102002.7      46.7237      46.7237      46.7237 
  500500    130.79585   -11028.997   -9774.3708    388.57423     102002.7      46.7237      46.7237      46.7237 
Loop time of 1849.63 on 16 procs for 500000 steps with 3219 atoms

Performance: 23.356 ns/day, 1.028 hours/ns, 270.325 timesteps/s
99.8% CPU use with 16 MPI tasks x no OpenMP threads

MPI task timing breakdown:
Section |  min time  |  avg time  |  max time  |%varavg| %total
---------------------------------------------------------------
Pair    | 977.3      | 1166.4     | 1460.9     | 343.0 | 63.06
Bond    | 148.92     | 174.56     | 211.46     | 122.2 |  9.44
Neigh   | 17.709     | 17.76      | 17.804     |   0.7 |  0.96
Comm    | 169.65     | 473.17     | 655.77     | 538.6 | 25.58
Output  | 0.021919   | 0.02273    | 0.026399   |   0.7 |  0.00
Modify  | 10.019     | 10.687     | 11.732     |  14.1 |  0.58
Other   |            | 6.992      |            |       |  0.38

Nlocal:    201.188 ave 230 max 168 min
Histogram: 1 1 2 2 2 1 0 3 2 2
Nghost:    4098.88 ave 4140 max 4077 min
Histogram: 7 0 0 2 2 0 3 1 0 1
Neighs:    11457 ave 17576 max 6779 min
Histogram: 2 1 1 3 4 2 0 1 1 1

Total # of neighbors = 183312
Ave neighs/atom = 56.9469
Ave special neighs/atom = 3.57875
Neighbor list builds = 5117
Dangerous builds = 0
Neighbor list info ...
  update every 1 steps, delay 10 steps, check yes
  max neighbors/atom: 2000, page size: 100000
  master list distance cutoff = 16
  ghost atom cutoff = 16
  binsize = 8, bins = 6 6 6
  3 neighbor lists, perpetual/occasional/extra = 3 0 0
  (1) pair buck6d/coul/gauss/dsf, perpetual, skip from (3)
      attributes: half, newton on
      pair build: skip
      stencil: none
      bin: none
  (2) pair lj/cut, perpetual, skip from (3)
      attributes: half, newton on
      pair build: skip
      stencil: none
      bin: none
  (3) neighbor class addition, perpetual
      attributes: half, newton on
      pair build: half/bin/newton
      stencil: half/bin/3d/newton
      bin: standard
Setting up Verlet run ...
  Unit style    : real
  Current step  : 500500
  Time step     : 1
WARNING: Inconsistent image flags (../domain.cpp:786)
Per MPI rank memory allocation (min/avg/max) = 22.98 | 23.22 | 23.44 Mbytes
Step Time TotEng KinEng PotEng E_mol E_pair Temp Pxx Pyy Pzz Pxy Pxz Pyz Cella Cellb Cellc CellAlpha CellBeta CellGamma Volume Press 
  500500       500000   -9774.3708    1254.6261   -11028.997    4394.3965   -15423.393    130.79585    374.42518    640.18108    151.11644    109.47059   -101.90128    -43.78781      46.7237      46.7237      46.7237           90           90           90     102002.7    388.57423 
  501000       500500   -9831.6554    1208.5064   -11040.162    4380.1632   -15420.325    125.98784    296.37512    207.90693    690.56584    119.44649   -83.129601    -130.2703      46.7237      46.7237      46.7237           90           90           90     102002.7    398.28263 
  502000       501500   -9788.8121    1264.4628   -11053.275    4374.7171   -15427.992    131.82134    306.07522    376.39977    711.96395    341.24835    213.16061   -321.20122      46.7237      46.7237      46.7237           90           90           90     102002.7    464.81298 
  503000       502500   -9765.7006    1253.5386   -11019.239    4367.7908    -15387.03    130.68248    434.59504    433.53232    83.668313   -269.95999     193.8875    35.180052      46.7237      46.7237      46.7237           90           90           90     102002.7    317.26523 
  504000       503500   -9807.3931    1245.6026   -11052.996    4360.4077   -15413.403    129.85515    503.74798    203.69903    629.51495   -13.887995   -339.09176     72.26185      46.7237      46.7237      46.7237           90           90           90     102002.7    445.65399 
  505000       504500   -9840.8124    1225.4456   -11066.258    4363.3074   -15429.565    127.75376   -192.45459    91.048647    654.03979    88.959173    53.254225   -54.382357      46.7237      46.7237      46.7237           90           90           90     102002.7    184.21128 
  506000       505500   -9785.7187    1234.9494   -11020.668    4396.2771   -15416.945    128.74454    446.20119   -75.623502    601.98736    133.35841    139.34232   -344.49012      46.7237      46.7237      46.7237           90           90           90     102002.7    324.18835 
  507000       506500   -9758.9956    1265.1128   -11024.108    4365.6486   -15389.757     131.8891    469.19753    652.40271    248.24235   -247.24231   -236.10405   -125.74382      46.7237      46.7237      46.7237           90           90           90     102002.7     456.6142 
  508000       507500   -9759.2888    1268.2826   -11027.571    4377.8225   -15405.394    132.21955    231.73493    759.69786    334.71201   -67.977537   -110.08125    72.998665      46.7237      46.7237      46.7237           90           90           90     102002.7    442.04827 
  509000       508500   -9822.9486    1220.7257   -11043.674     4348.361   -15392.035     127.2617    72.966345    25.412262    117.65777   -168.09862   -75.043558   -42.248611      46.7237      46.7237      46.7237           90           90           90     102002.7    72.012125 
  510000       509500     -9793.19    1231.6945   -11024.884    4362.6911   -15387.576    128.40521    52.780439    792.60265    428.44774    -106.4266    115.57191    162.31047      46.7237      46.7237      46.7237           90           90           90     102002.7    424.61028 
  511000       510500   -9828.2286    1200.6029   -11028.832    4373.0188    -15401.85    125.16389    858.16852    160.21616    235.07875    74.438086    271.88235   -162.43091      46.7237      46.7237      46.7237           90           90           90     102002.7    417.82114 
  512000       511500   -9806.3828    1241.7804   -11048.163    4344.8042   -15392.967    129.45668    296.97498    724.69732    135.34661   -41.995192    306.67892   -60.356427      46.7237      46.7237      46.7237           90           90           90     102002.7    385.67297 
  513000       512500   -9788.4992    1256.3526   -11044.852     4383.324   -15428.176    130.97584    229.08073    76.505887    328.11988   -185.39403   -167.13365     -251.337      46.7237      46.7237      46.7237           90           90           90     102002.7     211.2355 
  514000       513500   -9826.4463    1218.6828   -11045.129    4348.5699   -15393.699    127.04874    68.828618    177.81083    382.53869    65.985801   -42.520246    284.98016      46.7237      46.7237      46.7237           90           90           90     102002.7    209.72604 
  515000       514500   -9827.3585    1240.9081   -11068.267    4337.9368   -15406.203    129.36574    284.48047    159.44514     -244.185   -69.488927   -16.089648   -97.431025      46.7237      46.7237      46.7237           90           90           90     102002.7    66.580206 
  516000       515500   -9815.8412    1245.8797   -11061.721     4375.504   -15437.225    129.88403    361.80088    719.75944    525.36691   -158.25825    24.479991    144.82895      46.7237      46.7237      46.7237           90           90           90     102002.7    535.64241 
  517000       516500    -9796.737    1265.9996   -11062.737    4360.6321   -15423.369    131.98155    498.08454    265.96578     396.6355   -76.136121     2.444564   -217.40056      46.7237      46.7237      46.7237           90           90           90     102002.7    386.89527 
  518000       517500   -9785.6265    1220.3279   -11005.954    4383.5369   -15389.491    127.22024     636.4946    588.21187    229.29465    101.23148    103.02652   -11.849621      46.7237      46.7237      46.7237           90           90           90     102002.7    484.66704 
  519000       518500   -9821.1274    1223.4943   -11044.622    4338.8072   -15383.429    127.55034    886.70027   -6.4211946    832.19875   -186.28386   -401.69103   -76.414811      46.7237      46.7237      46.7237           90           90           90     102002.7    570.82594 
  520000       519500   -9811.5129    1248.8579   -11060.371    4348.4678   -15408.839    130.19452     487.2309    692.39257    814.24067    129.90818    109.43395   -57.983942      46.7237      46.7237      46.7237           90           90           90     102002.7    664.62138 
  521000       520500   -9788.0886    1229.1186   -11017.207    4379.1516   -15396.359    128.13667    307.87084    205.70083    975.58403    159.70138   -121.43699   -53.844983      46.7237      46.7237      46.7237           90           90           90     102002.7    496.38523 
  522000       521500   -9763.7603    1266.9164   -11030.677    4386.1347   -15416.811    132.07713    384.91691     332.2929   -211.22849   -207.76489    169.95769    -88.72565      46.7237      46.7237      46.7237           90           90           90     102002.7    168.66044 
  523000       522500   -9821.9351    1230.8366   -11052.772    4373.8778    -15426.65    128.31578   -194.56647   -162.50815   -101.20997   -346.75507    244.86209   -20.953466      46.7237      46.7237      46.7237           90           90           90     102002.7   -152.76153 
  524000       523500   -9829.9412    1202.7896   -11032.731    4388.3441   -15421.075    125.39186    252.93434    418.58107   -70.504074    236.03411    196.59415   -177.86055      46.7237      46.7237      46.7237           90           90           90     102002.7    200.33711 
  525000       524500   -9778.6072    1241.2313   -11019.838    4389.4329   -15409.271    129.39943    11.316645    297.79047    232.82222    370.67207   -47.354754    27.311531      46.7237      46.7237      46.7237           90           90           90     102002.7    180.64311 
  526000       525500    -9835.582    1238.1257   -11073.708    4365.2611   -15438.969    129.07567    104.25393    380.23791   -18.511976   -62.542395   -50.344043   -115.31124      46.7237      46.7237      46.7237           90           90           90     102002.7    155.32662 
  527000       526500   -9796.3988    1258.3504   -11054.749    4352.5307    -15407.28    131.18411    131.52815    481.39744   -159.40493    26.976145    11.712156    135.22446      46.7237      46.7237      46.7237           90           90           90     102002.7    151.17355 
  528000       527500   -9808.8872    1229.1796   -11038.067    4369.5584   -15407.625    128.14304     691.0511    218.41757    236.45221    319.19277   -107.94105    77.070716      46.7237      46.7237      46.7237           90           90           90     102002.7    381.97363 
  529000       528500   -9809.8175    1234.4437   -11044.261    4340.4056   -15384.667    128.69182    140.69053    610.98112    335.05494    228.22647    31.564265    14.807579      46.7237      46.7237      46.7237           90           90           90     102002.7     362.2422 
  530000       529500   -9789.6128    1253.4717   -11043.084    4368.5083   -15411.593     130.6755    759.24144    25.986765    684.97092   -35.599246   -25.295548   -49.310853      46.7237      46.7237      46.7237           90           90           90     102002.7    490.06638 
  531000       530500   -9788.1954    1249.2013   -11037.397    4357.1539   -15394.551    130.23031    590.24718    440.63998    473.28612   -18.286622    124.04193   -168.36593      46.7237      46.7237      46.7237           90           90           90     102002.7    501.39109 
  532000       531500   -9818.9636    1219.3337   -11038.297    4361.8947   -15400.192    127.11659    744.93586    394.48339     400.4005    2.1180729   -97.916751    26.688457      46.7237      46.7237      46.7237           90           90           90     102002.7    513.27325 
  533000       532500   -9831.0908    1234.0445   -11065.135     4364.911   -15430.046    128.65021    51.688263   -90.709674    569.30038    48.140741    -123.5696   -132.53555      46.7237      46.7237      46.7237           90           90           90     102002.7    176.75965 
  534000       533500   -9757.9724    1282.3989   -11040.371    4371.2061   -15411.577    133.69119   -209.33418    426.76686   -57.634358    149.22941     105.1057    12.699924      46.7237      46.7237      46.7237           90           90           90     102002.7    53.266109 
  535000       534500    -9793.058    1232.9119    -11025.97      4393.22    -15419.19    128.53213     457.8051    114.28256    215.68542    57.216852    334.51843   -13.775805      46.7237      46.7237      46.7237           90           90           90     102002.7    262.59102 
  536000       535500   -9788.5927    1264.0809   -11052.674    4387.8472   -15440.521    131.78153   -157.02223    430.43121   -221.80638    172.89824    177.95599   -83.442679      46.7237      46.7237      46.7237           90           90           90     102002.7    17.200866 
  537000       536500    -9752.206     1261.342   -11013.548    4391.0331   -15404.581    131.49599    83.633952    227.51381    37.360402    -91.78489    14.929518    39.749769      46.7237      46.7237      46.7237           90           90           90     102002.7    116.16939 
  538000       537500   -9772.5722    1275.9416   -11048.514    4381.2965    -15429.81    133.01801    105.78318    71.391947    27.249967   -105.44895    58.092352   -33.885766      46.7237      46.7237      46.7237           90           90           90     102002.7    68.141697 
  539000       538500   -9753.1439    1281.6451   -11034.789    4385.4784   -15420.267    133.61261    48.514508     616.7718     420.2658     144.5825    82.847675    213.88156      46.7237      46.7237      46.7237           90           90           90     102002.7     361.8507 
  540000       539500    -9774.461    1241.0386     -11015.5    4386.6516   -15402.151    129.37934    840.00985    496.89089    934.22863     46.05644    168.87701    63.904488      46.7237      46.7237      46.7237           90           90           90     102002.7    757.04312 
  541000       540500   -9795.2014    1231.0068   -11026.208     4361.113   -15387.321    128.33352    439.57833    97.084984    208.99058    209.27249   -50.282246    114.39674      46.7237      46.7237      46.7237           90           90           90     102002.7     248.5513 
  542000       541500   -9794.3696    1237.8696   -11032.239    4355.5458   -15387.785    129.04897    82.066858    732.97608    78.071242    178.40729   -264.40886   -141.74399      46.7237      46.7237      46.7237           90           90           90     102002.7    297.70473 
  543000       542500   -9754.9987    1244.9723   -10999.971     4399.307   -15399.278    129.78943   -84.890701     776.6382    151.59396    21.947191    20.521598   -247.32243      46.7237      46.7237      46.7237           90           90           90     102002.7    281.11382 
  544000       543500   -9776.6976    1249.2843   -11025.982    4368.0558   -15394.038    130.23897    173.17701    733.02969    113.31712    129.19118    107.11282   -159.66887      46.7237      46.7237      46.7237           90           90           90     102002.7    339.84127 
  545000       544500   -9851.1277    1221.2255   -11072.353    4346.3048   -15418.658    127.31381    389.09958    301.05037    464.61128    179.58711     286.1629    61.177041      46.7237      46.7237      46.7237           90           90           90     102002.7    384.92041 
  546000       545500   -9739.9538    1273.6054   -11013.559    4379.4126   -15392.972    132.77446    323.53467    307.89441    162.36588   -52.886009    46.792426   -52.536937      46.7237      46.7237      46.7237           90           90           90     102002.7    264.59832 
  547000       546500   -9782.2347    1260.3814   -11042.616    4375.4431   -15418.059    131.39585    219.18272    372.71612   -69.042767    144.42223   -339.55185     37.80767      46.7237      46.7237      46.7237           90           90           90     102002.7    174.28536 
  548000       547500   -9756.2133    1255.8903   -11012.104    4407.0409   -15419.144    130.92764    55.252559     111.1742   -207.95669    58.367466    14.467378   -36.985954      46.7237      46.7237      46.7237           90           90           90     102002.7   -13.843313 
  549000       548500   -9826.1043    1219.2944   -11045.399    4360.0064   -15405.405    127.11249    334.92129    324.98303   -498.43361    173.49272   -74.575503    -172.7802      46.7237      46.7237      46.7237           90           90           90     102002.7    53.823571 
  550000       549500   -9798.4637    1235.0244   -11033.488    4363.8106   -15397.299    128.75236    548.00623    625.86224    255.26444   -151.88231     113.1369   -89.400744      46.7237      46.7237      46.7237           90           90           90     102002.7    476.37764 
  551000       550500   -9799.3157    1259.9977   -11059.313    4354.1396   -15413.453    131.35585    284.37996    151.36054    485.73207   -200.79867    152.22333    -254.4067      46.7237      46.7237      46.7237           90           90           90     102002.7    307.15752 
  552000       551500   -9785.4318    1247.7109   -11033.143     4384.956   -15418.099    130.07494    411.01912    317.78503   -453.30082    142.19238   -361.24486   -42.230164      46.7237      46.7237      46.7237           90           90           90     102002.7    91.834442 
  553000       552500   -9772.7809    1242.0979   -11014.879    4403.2116    -15418.09    129.48978    358.24996    714.08194   -59.933526    7.2560286   -53.397028    139.94549      46.7237      46.7237      46.7237           90           90           90     102002.7    337.46612 
  554000       553500   -9841.7555    1201.7048    -11043.46    4369.4037   -15412.864    125.27876    192.41624    -98.01621   -187.97973    115.74837   -231.80186   -60.478844      46.7237      46.7237      46.7237           90           90           90     102002.7   -31.193235 
  555000       554500   -9822.6009    1245.6544   -11068.255    4348.5986   -15416.854    129.86055    98.887725    427.37996    744.27676   -218.50466   -65.466225   -14.508328      46.7237      46.7237      46.7237           90           90           90     102002.7    423.51481 
[...]
  936000       935500   -9765.3066    1264.7447   -11030.051    4380.2764   -15410.328    131.85073    163.47087    90.738269    13.480354   -152.04548     249.0741   -149.32532      46.7237      46.7237      46.7237           90           90           90     102002.7    89.229833 
  937000       936500   -9810.8692    1267.4587   -11078.328    4345.1103   -15423.438    132.13366     140.4609    632.61392     423.0997    94.213161    113.25862   -50.122808      46.7237      46.7237      46.7237           90           90           90     102002.7    398.72484 
  938000       937500   -9821.4446    1230.2005   -11051.645    4356.1725   -15407.818    128.24947    511.45485    684.91758    53.213909   -19.976605    239.70963    140.30045      46.7237      46.7237      46.7237           90           90           90     102002.7    416.52878 
  939000       938500   -9790.3165    1245.4331    -11035.75     4381.652   -15417.401    129.83747     727.1245    648.24821    240.52778   -216.06319    55.541115    77.010529      46.7237      46.7237      46.7237           90           90           90     102002.7     538.6335 
  940000       939500   -9777.9445    1265.0577   -11043.002    4363.1999   -15406.202    131.88335    411.43087     809.1683   -52.015947    40.149378   -96.093473    298.09362      46.7237      46.7237      46.7237           90           90           90     102002.7    389.52774 
  941000       940500   -9789.3559    1248.8608   -11038.217    4378.9017   -15417.118    130.19481    337.96451    236.16742   -227.99894    213.20963   -172.75302   -400.08722      46.7237      46.7237      46.7237           90           90           90     102002.7    115.37767 
  942000       941500    -9756.084    1267.1595   -11023.243    4358.9749   -15382.218    132.10247    381.46409    599.57825    726.75283     191.6849    79.057928   -11.510279      46.7237      46.7237      46.7237           90           90           90     102002.7    569.26506 
  943000       942500   -9794.6119    1232.4471   -11027.059    4365.6823   -15392.741    128.48368    860.81635   -28.721578    97.948151    108.12859   -152.15821    241.54723      46.7237      46.7237      46.7237           90           90           90     102002.7    310.01431 
  944000       943500   -9741.3469    1258.9138   -11000.261    4398.1264   -15398.387    131.24285    323.63806    436.26347    406.21695   -27.085449    -144.9638    377.47527      46.7237      46.7237      46.7237           90           90           90     102002.7    388.70616 
  945000       944500   -9779.4794    1221.6281   -11001.107    4388.1196   -15389.227    127.35578    567.81049    460.56348    370.56465   -20.836364    294.28253    44.543057      46.7237      46.7237      46.7237           90           90           90     102002.7    466.31287 
  946000       945500   -9794.7968    1251.2281   -11046.025    4357.3622   -15403.387    130.44161    54.511701    129.09755    425.99562    204.53773   -176.39495    152.35964      46.7237      46.7237      46.7237           90           90           90     102002.7    203.20163 
  947000       946500    -9825.971    1229.5533   -11055.524    4365.2881   -15420.812    128.18199   -24.243543    41.973718    358.45561     460.4735   -62.896501   -69.389064      46.7237      46.7237      46.7237           90           90           90     102002.7    125.39526 
  948000       947500   -9766.0871    1265.4632    -11031.55    4377.2242   -15408.774    131.92563    493.19069    23.105295    498.30614   -23.529527    25.107401    89.307116      46.7237      46.7237      46.7237           90           90           90     102002.7    338.20071 
  949000       948500   -9770.2691    1248.7594   -11019.029    4389.0899   -15408.118    130.18425   -188.43132    444.59452    146.65139   -4.4695895    41.226827   -104.89066      46.7237      46.7237      46.7237           90           90           90     102002.7    134.27153 
  950000       949500   -9760.2708    1272.1947   -11032.466    4397.7257   -15430.191    132.62739    87.986802    157.98448    182.71839   -8.4085661    131.59682    242.04535      46.7237      46.7237      46.7237           90           90           90     102002.7    142.89656 
  951000       950500   -9746.8935    1265.0542   -11011.948    4382.4322    -15394.38      131.883    782.39097      643.214     119.0356    87.523546    195.35064   -130.28897      46.7237      46.7237      46.7237           90           90           90     102002.7    514.88019 
  952000       951500   -9804.7394    1232.7626   -11037.502    4356.8823   -15394.384    128.51656    39.003567   -112.80472    776.84902    165.59659    86.576806    169.86002      46.7237      46.7237      46.7237           90           90           90     102002.7    234.34929 
  953000       952500   -9777.0986    1239.1921   -11016.291    4373.6423   -15389.933    129.18685    400.72486   -322.44051    436.29255    248.06642    4.7308159    -140.1844      46.7237      46.7237      46.7237           90           90           90     102002.7    171.52563 
  954000       953500   -9780.2371     1247.566   -11027.803    4385.2767    -15413.08    130.05983    686.82569    202.46825    171.68571   -102.51571   -76.163721   -181.24276      46.7237      46.7237      46.7237           90           90           90     102002.7    353.65988 
  955000       954500   -9741.0776    1294.5455   -11035.623    4384.5439   -15420.167    134.95748    55.023144    -135.9668    104.14046    -118.0671    45.647789   -191.17182      46.7237      46.7237      46.7237           90           90           90     102002.7    7.7322684 
  956000       955500   -9801.3429    1217.9148   -11019.258    4374.2048   -15393.462    126.96866    204.94008    212.12044    394.52434    2.1718763    21.831274    328.90009      46.7237      46.7237      46.7237           90           90           90     102002.7    270.52829 
  957000       956500   -9835.6438    1249.7463    -11085.39    4356.6023   -15441.992    130.28713    719.37493    590.49165   -13.061819   -25.392254   -42.167581   -45.459504      46.7237      46.7237      46.7237           90           90           90     102002.7    432.26825 
  958000       957500   -9798.8176    1245.0363   -11043.854    4355.1972   -15399.051    129.79611    224.35684    571.33749    803.31214   -192.16898    -178.2685   -1.1116447      46.7237      46.7237      46.7237           90           90           90     102002.7    533.00216 
  959000       958500    -9767.445    1244.3068   -11011.752    4373.2437   -15384.995    129.72006    537.25193    547.45776    643.46533    79.591784    17.911884    53.136663      46.7237      46.7237      46.7237           90           90           90     102002.7    576.05834 
  960000       959500   -9803.7943    1247.9265   -11051.721    4382.5396    -15434.26    130.09742   -140.56295      338.633    676.87858   -12.158009   -126.89842      122.065      46.7237      46.7237      46.7237           90           90           90     102002.7    291.64954 
  961000       960500   -9800.5491    1245.8294   -11046.378    4365.0954   -15411.474    129.87879    487.26227    786.48257     175.1091   -81.417863   -129.84554   -48.437556      46.7237      46.7237      46.7237           90           90           90     102002.7    482.95131 
  962000       961500   -9805.1685    1249.1781   -11054.347    4374.7672   -15429.114    130.22789    1047.9861    374.20045    543.79928   -174.92916   -28.509256   -187.31066      46.7237      46.7237      46.7237           90           90           90     102002.7     655.3286 
  963000       962500   -9754.6387    1253.9544   -11008.593    4382.9956   -15391.589    130.72583    801.87272    541.80929     212.7138   -209.14904    331.72906    345.25673      46.7237      46.7237      46.7237           90           90           90     102002.7     518.7986 
  964000       963500   -9805.2438    1242.0465    -11047.29    4355.0042   -15402.294    129.48441    1.4263004    730.18984    298.90355    447.67573   -29.514931    402.33433      46.7237      46.7237      46.7237           90           90           90     102002.7    343.50657 
  965000       964500   -9757.8047    1251.1089   -11008.914    4370.2078   -15379.121    130.42918    493.58686    784.50094    524.55746    186.35068    82.906418   -145.41412      46.7237      46.7237      46.7237           90           90           90     102002.7    600.88175 
  966000       965500   -9806.5725    1247.1167   -11053.689    4370.6024   -15424.292    130.01299    158.42136    465.62786   -285.65111    80.509538     -102.151   -81.407043      46.7237      46.7237      46.7237           90           90           90     102002.7    112.79937 
  967000       966500   -9789.0617    1232.7495   -11021.811    4389.1139   -15410.925     128.5152    201.07295   -69.819821    308.37379   -199.09759    176.06402    230.28517      46.7237      46.7237      46.7237           90           90           90     102002.7    146.54231 
  968000       967500   -9771.1907     1276.711   -11047.902    4370.0544   -15417.956    133.09822    662.27396    606.45641   -458.04771    89.153245   -8.2956102    70.624691      46.7237      46.7237      46.7237           90           90           90     102002.7    270.22755 
  969000       968500   -9801.6963    1248.2078   -11049.904    4369.8806   -15419.785    130.12674    484.95353    438.57462   -389.15539   -317.87598   -195.26258     153.2307      46.7237      46.7237      46.7237           90           90           90     102002.7    178.12426 
  970000       969500   -9803.5784    1226.7668   -11030.345    4375.2303   -15405.576     127.8915    390.36124    1223.0523    636.37239   -118.32952   -17.895596    72.445609      46.7237      46.7237      46.7237           90           90           90     102002.7    749.92863 
  971000       970500     -9810.28    1236.8157   -11047.096    4356.1797   -15403.275    128.93911   -160.42421    65.601799    252.43503   -108.38102   -91.997899    10.875308      46.7237      46.7237      46.7237           90           90           90     102002.7     52.53754 
  972000       971500   -9812.8363    1216.2236    -11029.06    4377.6193   -15406.679    126.79236    361.62621    575.74292    547.38337    17.655893   -60.738815     305.8544      46.7237      46.7237      46.7237           90           90           90     102002.7     494.9175 
  973000       972500   -9803.0075    1235.2897   -11038.297    4356.1409   -15394.438    128.78002    626.79598    844.97543    537.12048    51.697396    36.412045    280.42254      46.7237      46.7237      46.7237           90           90           90     102002.7    669.63063 
  974000       973500   -9793.3864    1233.6648   -11027.051    4403.9779   -15431.029    128.61062    406.79108   -233.83693    388.52517    121.81357    106.78773   -133.05614      46.7237      46.7237      46.7237           90           90           90     102002.7    187.15977 
  975000       974500   -9781.0386    1224.7142   -11005.753    4389.3874    -15395.14    127.67752    400.77039    593.18845     686.4562    32.894101    19.732663    76.372852      46.7237      46.7237      46.7237           90           90           90     102002.7    560.13835 
  976000       975500    -9766.938    1248.6456   -11015.584    4389.0991   -15404.683    130.17238    914.56175    430.14922    466.95025   -66.931382    97.663225   -7.7803509      46.7237      46.7237      46.7237           90           90           90     102002.7    603.88707 
  977000       976500   -9814.3159    1222.4277   -11036.744    4380.5503   -15417.294    127.43915    713.89838    270.24968    536.05228    47.345412    171.27873   -160.66883      46.7237      46.7237      46.7237           90           90           90     102002.7    506.73344 
  978000       977500   -9785.9177    1262.0756   -11047.993     4375.426   -15423.419    131.57247    375.84126    739.26001    615.75771    179.68702    60.244682    126.40434      46.7237      46.7237      46.7237           90           90           90     102002.7    576.95299 
  979000       978500   -9863.4455    1204.1623   -11067.608    4346.0881   -15413.696    125.53496    510.13613     225.6076    -58.43697   -152.88786    53.261863   -60.645946      46.7237      46.7237      46.7237           90           90           90     102002.7    225.76892 
  980000       979500   -9788.8168    1262.2397   -11051.056    4392.9099   -15443.966    131.58957    207.80773    301.99186    360.61696    8.4474632   -175.84995   -355.74008      46.7237      46.7237      46.7237           90           90           90     102002.7    290.13885 
  981000       980500   -9829.3163    1230.5818   -11059.898    4390.3642   -15450.262    128.28921     317.1179    454.83057    99.740907   -5.5249536      132.669    30.718575      46.7237      46.7237      46.7237           90           90           90     102002.7    290.56312 
  982000       981500   -9826.4042    1225.7486   -11052.153    4344.5877   -15396.741    127.78535    389.16253    150.06401    129.77349    -55.32801     5.901702   -112.92994      46.7237      46.7237      46.7237           90           90           90     102002.7    223.00001 
  983000       982500    -9800.671     1219.533   -11020.204    4386.6488   -15406.853    127.13737    387.18454    107.45609   -134.05975   -163.46919    144.85122   -122.20206      46.7237      46.7237      46.7237           90           90           90     102002.7    120.19363 
  984000       983500   -9763.3766    1272.5758   -11035.952    4346.6774    -15382.63    132.66713      56.7128    628.48616     524.7823    224.34766   -77.182475   -256.93857      46.7237      46.7237      46.7237           90           90           90     102002.7    403.32709 
  985000       984500     -9790.76    1236.9588   -11027.719    4352.6311    -15380.35    128.95402    366.52252    1148.8598    285.40882   -93.210819    39.763434    23.167275      46.7237      46.7237      46.7237           90           90           90     102002.7    600.26372 
  986000       985500    -9796.761    1244.6988    -11041.46    4367.2478   -15408.708    129.76092    297.26029    243.11084    461.97504    30.747329    2.2778192    219.21409      46.7237      46.7237      46.7237           90           90           90     102002.7    334.11539 
  987000       986500   -9756.4584    1287.8801   -11044.338    4365.5445   -15409.883    134.26261    439.52646    628.21626    589.87481   -83.492136   -279.13513   -139.50355      46.7237      46.7237      46.7237           90           90           90     102002.7    552.53918 
  988000       987500   -9800.3755    1251.4518   -11051.827     4363.482   -15415.309    130.46493    220.13101    835.16613    430.99448    214.85137    206.84255    187.03017      46.7237      46.7237      46.7237           90           90           90     102002.7    495.43054 
  989000       988500   -9795.9883    1246.1828   -11042.171    4379.1272   -15421.298    129.91564    37.512839    190.60095     810.8382    204.36963    95.824002    31.566949      46.7237      46.7237      46.7237           90           90           90     102002.7    346.31733 
  990000       989500   -9727.2456    1280.8282   -11008.074    4384.7747   -15392.849    133.52745    297.96202    621.15685    652.24384    36.817282    37.945125   0.92843867      46.7237      46.7237      46.7237           90           90           90     102002.7    523.78757 
  991000       990500   -9769.0348    1274.0178   -11043.053    4353.7881   -15396.841    132.81746    587.17529    340.27959   -186.09983   -153.31015   -145.94657    110.50816      46.7237      46.7237      46.7237           90           90           90     102002.7    247.11835 
  992000       991500   -9805.5274    1271.0487   -11076.576    4351.6229   -15428.199    132.50793   -12.860344    321.36251    217.34304   -183.18691   -38.083811    92.954256      46.7237      46.7237      46.7237           90           90           90     102002.7    175.28174 
  993000       992500   -9760.3604    1257.0755   -11017.436    4372.3516   -15389.788     131.0512   -24.673448    414.15766    89.427362    108.44217   -283.99542   -143.72631      46.7237      46.7237      46.7237           90           90           90     102002.7    159.63719 
  994000       993500   -9789.5294    1267.3155   -11056.845    4341.9545   -15398.799    132.11874    286.55506    120.74953    32.662443    42.856505    175.89942   -205.62951      46.7237      46.7237      46.7237           90           90           90     102002.7    146.65568 
  995000       994500   -9767.5448    1278.0924   -11045.637    4366.9094   -15412.547    133.24224    415.84093    343.30897    240.04728   -325.55102   -468.47223   -9.8455873      46.7237      46.7237      46.7237           90           90           90     102002.7    333.06573 
  996000       995500    -9799.967    1249.4886   -11049.456     4353.444     -15402.9    130.26027    493.97486    -154.1969    27.037779    118.62895   -1.1322177   -191.36452      46.7237      46.7237      46.7237           90           90           90     102002.7    122.27191 
  997000       996500   -9814.2041    1263.5541   -11077.758    4348.6845   -15426.443    131.72661     468.5364    405.85115    30.429214   -90.685659    86.338184    175.31456      46.7237      46.7237      46.7237           90           90           90     102002.7    301.60559 
  998000       997500   -9795.1765    1240.3379   -11035.514    4371.9391   -15407.454     129.3063    336.61328    362.48418    7.6509616    298.36877   -40.967444   -36.107342      46.7237      46.7237      46.7237           90           90           90     102002.7    235.58281 
  999000       998500   -9808.2376    1210.0134   -11018.251    4391.0274   -15409.278    126.14494    229.62623   -454.99859     225.9371    224.30031    -238.1346    75.354823      46.7237      46.7237      46.7237           90           90           90     102002.7   0.18824558 
 1000000       999500   -9777.7073    1235.1166   -11012.824    4398.5327   -15411.357    128.76197    38.989925    397.17457    115.61991    138.45029    13.994686   -134.86937      46.7237      46.7237      46.7237           90           90           90     102002.7    183.92813 
 1000500      1000000   -9806.4511     1245.634   -11052.085    4370.5047    -15422.59    129.85842   -261.20054    274.88774    332.28979     51.92577    176.58694    -49.30736      46.7237      46.7237      46.7237           90           90           90     102002.7    115.32566 
Loop time of 2293.82 on 16 procs for 500000 steps with 3219 atoms

Performance: 18.833 ns/day, 1.274 hours/ns, 217.977 timesteps/s
99.8% CPU use with 16 MPI tasks x no OpenMP threads

MPI task timing breakdown:
Section |  min time  |  avg time  |  max time  |%varavg| %total
---------------------------------------------------------------
Pair    | 1176       | 1476       | 1859.7     | 458.9 | 64.35
Bond    | 145.09     | 183.69     | 214.45     | 141.2 |  8.01
Neigh   | 17.898     | 17.944     | 17.985     |   0.7 |  0.78
Comm    | 179.73     | 583.88     | 898.68     | 768.7 | 25.45
Output  | 0.13098    | 0.13949    | 0.14021    |   0.6 |  0.01
Modify  | 24.786     | 25.209     | 26.261     |   7.7 |  1.10
Other   |            | 6.98       |            |       |  0.30

Nlocal:    201.188 ave 228 max 168 min
Histogram: 2 0 0 3 1 1 2 6 0 1
Nghost:    4073.06 ave 4113 max 4047 min
Histogram: 3 3 1 2 0 3 2 0 1 1
Neighs:    11466.1 ave 14962 max 7344 min
Histogram: 1 0 1 4 1 2 2 2 2 1

Total # of neighbors = 183458
Ave neighs/atom = 56.9922
Ave special neighs/atom = 3.57875
Neighbor list builds = 5095
Dangerous builds = 0
Total wall time: 1:09:08
