LAMMPS (30 Mar 2018)
Reading data file ...
  orthogonal box = (0 0 0) to (46.7237 46.7237 46.7237)
  2 by 3 by 4 MPI processor grid
  reading atoms ...
  1737 atoms
  scanning bonds ...
  5 = max bonds/atom
  scanning angles ...
  10 = max angles/atom
  scanning dihedrals ...
  32 = max dihedrals/atom
  scanning impropers ...
  3 = max impropers/atom
  reading bonds ...
  2064 bonds
  reading angles ...
  3696 angles
  reading dihedrals ...
  6240 dihedrals
  reading impropers ...
  1008 impropers
Finding 1-2 1-3 1-4 neighbors ...
  special bond factors lj:   0          0          0         
  special bond factors coul: 0          0          0         
  5 = max # of 1-2 neighbors
  8 = max # of 1-3 neighbors
  20 = max # of 1-4 neighbors
  19 = max # of special neighbors
Finding 1-2 1-3 1-4 neighbors ...
  special bond factors lj:   0          0          1         
  special bond factors coul: 1          1          1         
  5 = max # of 1-2 neighbors
  8 = max # of 1-3 neighbors
  19 = max # of special neighbors
WARNING: Using 'neigh_modify every 1 delay 0 check yes' setting during minimization (../min.cpp:168)
Neighbor list info ...
  update every 1 steps, delay 0 steps, check yes
  max neighbors/atom: 2000, page size: 100000
  master list distance cutoff = 16
  ghost atom cutoff = 16
  binsize = 8, bins = 6 6 6
  3 neighbor lists, perpetual/occasional/extra = 3 0 0
  (1) pair buck6d/coul/gauss/dsf, perpetual, skip from (3)
      attributes: half, newton on
      pair build: skip
      stencil: none
      bin: none
  (2) pair lj/cut, perpetual, skip from (3)
      attributes: half, newton on
      pair build: skip
      stencil: none
      bin: none
  (3) neighbor class addition, perpetual
      attributes: half, newton on
      pair build: half/bin/newton
      stencil: half/bin/3d/newton
      bin: standard
Setting up cg style minimization ...
  Unit style    : real
  Current step  : 0
WARNING: Inconsistent image flags (../domain.cpp:786)
Per MPI rank memory allocation (min/avg/max) = 22.87 | 23.27 | 24.42 Mbytes
Step Temp E_pair E_mol TotEng Press 
       0            0   -11539.746    6482.8914   -5056.8541    6282.4544 
     504            0   -11570.699    3744.5493   -7826.1493   -515.07588 
Loop time of 1.23452 on 24 procs for 504 steps with 1737 atoms

99.8% CPU use with 24 MPI tasks x no OpenMP threads

Minimization stats:
  Stopping criterion = max force evaluations
  Energy initial, next-to-last, final = 
        -5056.85407157     -7826.12955747     -7826.14934785
  Force two-norm initial, final = 2576.93 6.46986
  Force max component initial, final = 151.974 0.646905
  Final line search alpha, max atom move = 0.0271047 0.0175342
  Iterations, force evaluations = 504 1001

MPI task timing breakdown:
Section |  min time  |  avg time  |  max time  |%varavg| %total
---------------------------------------------------------------
Pair    | 0.441      | 0.61008    | 0.81419    |  11.4 | 49.42
Bond    | 0.11957    | 0.15805    | 0.19372    |   5.3 | 12.80
Neigh   | 0.0076765  | 0.007777   | 0.0078694  |   0.1 |  0.63
Comm    | 0.22544    | 0.4365     | 0.63204    |  14.0 | 35.36
Output  | 0          | 0          | 0          |   0.0 |  0.00
Modify  | 0          | 0          | 0          |   0.0 |  0.00
Other   |            | 0.02211    |            |       |  1.79

Nlocal:    72.375 ave 94 max 58 min
Histogram: 3 1 4 6 2 3 4 0 0 1
Nghost:    1977.21 ave 2143 max 1879 min
Histogram: 13 3 0 0 0 0 0 0 0 8
Neighs:    7633.04 ave 11129 max 5131 min
Histogram: 4 4 3 1 2 3 2 2 1 2

Total # of neighbors = 183193
Ave neighs/atom = 105.465
Ave special neighs/atom = 6.63212
Neighbor list builds = 14
Dangerous builds = 0
Neighbor list info ...
  update every 1 steps, delay 10 steps, check yes
  max neighbors/atom: 2000, page size: 100000
  master list distance cutoff = 16
  ghost atom cutoff = 16
  binsize = 8, bins = 6 6 6
  3 neighbor lists, perpetual/occasional/extra = 3 0 0
  (1) pair buck6d/coul/gauss/dsf, perpetual, skip from (3)
      attributes: half, newton on
      pair build: skip
      stencil: none
      bin: none
  (2) pair lj/cut, perpetual, skip from (3)
      attributes: half, newton on
      pair build: skip
      stencil: none
      bin: none
  (3) neighbor class addition, perpetual
      attributes: half, newton on
      pair build: half/bin/newton
      stencil: half/bin/3d/newton
      bin: standard
Setting up Verlet run ...
  Unit style    : real
  Current step  : 504
  Time step     : 1
WARNING: Inconsistent image flags (../domain.cpp:786)
Per MPI rank memory allocation (min/avg/max) = 22.52 | 22.69 | 23.29 Mbytes
Step Temp PotEng TotEng Press Volume Lx Ly Lz 
     504          110   -7826.1493   -7256.9339   -259.98327     102002.7      46.7237      46.7237      46.7237 
    1000    100.62304   -7339.5681   -6818.8754   -698.04115     102002.7      46.7237      46.7237      46.7237 
    2000    109.37912   -7222.4981   -6656.4955   -620.42508     102002.7      46.7237      46.7237      46.7237 
    3000    104.58496   -7229.5645   -6688.3702   -761.73494     102002.7      46.7237      46.7237      46.7237 
    4000    107.15522   -7235.3226    -6680.828   -536.18659     102002.7      46.7237      46.7237      46.7237 
    5000    109.56794   -7237.8032   -6670.8235   -710.28391     102002.7      46.7237      46.7237      46.7237 
    6000    108.40634   -7250.2894   -6689.3205   -523.58797     102002.7      46.7237      46.7237      46.7237 
    7000    111.42516   -7248.8616   -6672.2713   -489.65966     102002.7      46.7237      46.7237      46.7237 
    8000    107.75729   -7231.7344   -6674.1243   -673.80568     102002.7      46.7237      46.7237      46.7237 
    9000    110.21926   -7259.7959   -6689.4459   -501.61723     102002.7      46.7237      46.7237      46.7237 
   10000     111.7574   -7248.2807   -6669.9712   -403.97884     102002.7      46.7237      46.7237      46.7237 
   11000    107.87183     -7263.19   -6704.9872   -989.77522     102002.7      46.7237      46.7237      46.7237 
   12000    110.90309   -7251.6864   -6677.7977   -713.30442     102002.7      46.7237      46.7237      46.7237 
   13000    108.53001   -7214.3481   -6652.7393   -830.97642     102002.7      46.7237      46.7237      46.7237 
   14000    109.27499   -7255.7157   -6690.2519   -1084.0321     102002.7      46.7237      46.7237      46.7237 
   15000    112.48562   -7250.6808    -6668.603   -782.67824     102002.7      46.7237      46.7237      46.7237 
   16000    110.17674   -7244.4522   -6674.3221   -678.43156     102002.7      46.7237      46.7237      46.7237 
   17000    107.88466   -7251.1726   -6692.9034   -720.75646     102002.7      46.7237      46.7237      46.7237 
   18000    107.91465   -7261.0388   -6702.6143   -689.36822     102002.7      46.7237      46.7237      46.7237 
   19000    108.62069   -7253.9423   -6691.8643   -845.20696     102002.7      46.7237      46.7237      46.7237 
   20000    108.18431   -7207.4104   -6647.5906   -846.21323     102002.7      46.7237      46.7237      46.7237 
   21000    113.32208   -7267.1935   -6680.7873   -745.50858     102002.7      46.7237      46.7237      46.7237 
   22000    113.34865   -7265.1131   -6678.5693   -709.12919     102002.7      46.7237      46.7237      46.7237 
   23000     105.5482   -7239.5573   -6693.3785   -701.04512     102002.7      46.7237      46.7237      46.7237 
   24000    112.20565   -7259.3225   -6678.6935     -740.786     102002.7      46.7237      46.7237      46.7237 
   25000    112.68564   -7249.1727   -6666.0599   -900.86304     102002.7      46.7237      46.7237      46.7237 
   26000    106.44839   -7242.1164   -6691.2794   -1012.9102     102002.7      46.7237      46.7237      46.7237 
   27000    106.91946   -7239.0973   -6685.8226   -662.87938     102002.7      46.7237      46.7237      46.7237 
   28000    108.70037   -7248.8565   -6686.3662   -773.73145     102002.7      46.7237      46.7237      46.7237 
   29000    108.59202   -7243.8421   -6681.9125   -693.52142     102002.7      46.7237      46.7237      46.7237 
   30000    112.30146   -7241.9265   -6660.8017   -876.99799     102002.7      46.7237      46.7237      46.7237 
   31000    106.68867   -7237.3477   -6685.2674   -1006.6347     102002.7      46.7237      46.7237      46.7237 
   32000     112.9577   -7247.9462   -6663.4255   -511.23259     102002.7      46.7237      46.7237      46.7237 
   33000    111.97717   -7264.9896   -6685.5429   -736.25403     102002.7      46.7237      46.7237      46.7237 
   34000    110.15646   -7249.7494   -6679.7243   -457.06496     102002.7      46.7237      46.7237      46.7237 
   35000    110.19697   -7250.0437    -6679.809   -595.76825     102002.7      46.7237      46.7237      46.7237 
   36000    115.85698   -7255.9543   -6656.4308   -551.49719     102002.7      46.7237      46.7237      46.7237 
   37000    112.13514   -7257.1023   -6676.8382    -517.8022     102002.7      46.7237      46.7237      46.7237 
   38000    108.22068   -7245.9458   -6685.9377   -543.62069     102002.7      46.7237      46.7237      46.7237 
   39000    114.08074   -7242.4685   -6652.1365   -749.41851     102002.7      46.7237      46.7237      46.7237 
   40000     108.1009   -7241.2292   -6681.8409   -772.81243     102002.7      46.7237      46.7237      46.7237 
   41000    110.05758   -7253.2834     -6683.77   -656.47598     102002.7      46.7237      46.7237      46.7237 
   42000    111.14361   -7243.4935   -6668.3602   -885.33243     102002.7      46.7237      46.7237      46.7237 
   43000    110.88907   -7270.4546   -6696.6384   -714.39417     102002.7      46.7237      46.7237      46.7237 
   44000    109.60479   -7241.8394    -6674.669   -916.20632     102002.7      46.7237      46.7237      46.7237 
   45000    115.03959   -7249.9239   -6654.6301   -795.20676     102002.7      46.7237      46.7237      46.7237 
   46000    110.96833   -7247.1708   -6672.9445    -595.1501     102002.7      46.7237      46.7237      46.7237 
   47000     111.3861      -7264.9   -6688.5119   -897.09773     102002.7      46.7237      46.7237      46.7237 
   48000     113.9924   -7255.4314   -6665.5565   -598.35461     102002.7      46.7237      46.7237      46.7237 
   49000    106.96865   -7258.0429   -6704.5137   -518.24513     102002.7      46.7237      46.7237      46.7237 
   50000     108.6548   -7242.4616   -6680.2071   -588.40078     102002.7      46.7237      46.7237      46.7237 
   51000    111.59045   -7229.6654   -6652.2198   -332.98739     102002.7      46.7237      46.7237      46.7237 
   52000    108.99616   -7251.2143   -6687.1933   -262.73554     102002.7      46.7237      46.7237      46.7237 
   53000    108.51075   -7257.2272   -6695.7182    -662.5211     102002.7      46.7237      46.7237      46.7237 
   54000    110.69455   -7235.2716   -6662.4621   -829.03562     102002.7      46.7237      46.7237      46.7237 
   55000    109.67011   -7257.9107   -6690.4022   -489.80869     102002.7      46.7237      46.7237      46.7237 
   56000    108.40868   -7270.6706   -6709.6897   -970.81805     102002.7      46.7237      46.7237      46.7237 
   57000    112.06644   -7242.6961   -6662.7875   -720.89401     102002.7      46.7237      46.7237      46.7237 
   58000     110.6663   -7264.7081   -6692.0447   -507.83829     102002.7      46.7237      46.7237      46.7237 
   59000    113.29445   -7244.8168   -6658.5535   -937.50927     102002.7      46.7237      46.7237      46.7237 
   60000    110.59972     -7259.48   -6687.1611   -485.87419     102002.7      46.7237      46.7237      46.7237 
   61000    107.36211   -7258.5087   -6702.9435   -757.57027     102002.7      46.7237      46.7237      46.7237 
   62000    107.89594   -7227.3432   -6669.0155   -696.92017     102002.7      46.7237      46.7237      46.7237 
   63000    110.37959   -7256.6204   -6685.4407   -566.67079     102002.7      46.7237      46.7237      46.7237 
   64000    112.07695   -7206.2478   -6626.2848   -650.18627     102002.7      46.7237      46.7237      46.7237 
   65000    108.62963   -7245.1509   -6683.0266   -811.58327     102002.7      46.7237      46.7237      46.7237 
   66000     110.5178   -7237.0146   -6665.1197   -599.36371     102002.7      46.7237      46.7237      46.7237 
   67000    108.83346   -7229.5479   -6666.3689   -584.79915     102002.7      46.7237      46.7237      46.7237 
   68000    106.66889   -7247.4239   -6695.4458   -526.26063     102002.7      46.7237      46.7237      46.7237 
   69000    108.73689   -7237.0781   -6674.3988   -284.32042     102002.7      46.7237      46.7237      46.7237 
   70000    112.55597   -7238.0012   -6655.5594   -748.56253     102002.7      46.7237      46.7237      46.7237 
   71000    113.01011   -7260.2711   -6675.4792   -647.96978     102002.7      46.7237      46.7237      46.7237 
   72000    106.87856   -7251.5973   -6698.5342   -884.01055     102002.7      46.7237      46.7237      46.7237 
   73000    113.24636   -7246.3313   -6660.3169   -790.84471     102002.7      46.7237      46.7237      46.7237 
   74000    109.21865   -7244.0868   -6678.9146    -1012.644     102002.7      46.7237      46.7237      46.7237 
   75000    103.79536   -7250.0365   -6712.9281   -1086.1701     102002.7      46.7237      46.7237      46.7237 
   76000    110.41564   -7241.8249   -6670.4586   -778.19722     102002.7      46.7237      46.7237      46.7237 
   77000    111.02768   -7253.2681   -6678.7347   -764.17752     102002.7      46.7237      46.7237      46.7237 
   78000    111.39599   -7238.1601   -6661.7208   -918.10626     102002.7      46.7237      46.7237      46.7237 
   79000    110.09253   -7264.1756   -6694.4813   -773.39473     102002.7      46.7237      46.7237      46.7237 
   80000    109.14251   -7255.5101   -6690.7319   -613.56191     102002.7      46.7237      46.7237      46.7237 
   81000    110.69579   -7244.9561   -6672.1401   -828.64701     102002.7      46.7237      46.7237      46.7237 
   82000    110.54787   -7267.8455    -6695.795   -768.82446     102002.7      46.7237      46.7237      46.7237 
   83000    113.14498   -7240.6727   -6655.1829   -426.82538     102002.7      46.7237      46.7237      46.7237 
   84000    112.60618   -7243.6059   -6660.9043   -518.56722     102002.7      46.7237      46.7237      46.7237 
   85000    107.58883   -7247.3341   -6690.5957   -574.02241     102002.7      46.7237      46.7237      46.7237 
   86000    109.62767   -7264.1583   -6696.8695   -770.78725     102002.7      46.7237      46.7237      46.7237 
   87000    111.49848   -7248.1974   -6671.2277   -760.23246     102002.7      46.7237      46.7237      46.7237 
   88000    110.94188   -7257.4328   -6683.3434   -910.41387     102002.7      46.7237      46.7237      46.7237 
   89000    109.43027   -7242.7761   -6676.5088   -820.17237     102002.7      46.7237      46.7237      46.7237 
   90000    112.34784   -7216.0312   -6634.6663   -879.67164     102002.7      46.7237      46.7237      46.7237 
   91000    107.23252   -7235.8729   -6680.9782   -886.43761     102002.7      46.7237      46.7237      46.7237 
   92000    111.45697   -7273.2533   -6696.4984   -724.96411     102002.7      46.7237      46.7237      46.7237 
   93000    109.16049   -7239.6429   -6674.7717   -851.82279     102002.7      46.7237      46.7237      46.7237 
   94000     107.0227   -7249.7488   -6695.9399    -786.4645     102002.7      46.7237      46.7237      46.7237 
   95000    108.91805    -7241.057   -6677.4403   -930.87145     102002.7      46.7237      46.7237      46.7237 
   96000    105.85668   -7223.8867   -6676.1116   -767.67315     102002.7      46.7237      46.7237      46.7237 
   97000    113.62931   -7235.3194   -6647.3234   -776.75484     102002.7      46.7237      46.7237      46.7237 
   98000    109.84303   -7240.4685   -6672.0653   -915.53993     102002.7      46.7237      46.7237      46.7237 
   99000    109.76869   -7260.5938   -6692.5753   -703.52468     102002.7      46.7237      46.7237      46.7237 
  100000    107.14822   -7244.9344   -6690.4759   -908.17785     102002.7      46.7237      46.7237      46.7237 
  101000    108.21318   -7224.0441   -6664.0749   -644.65798     102002.7      46.7237      46.7237      46.7237 
  102000    109.62385   -7256.4762   -6689.2072   -984.85428     102002.7      46.7237      46.7237      46.7237 
  103000    109.21343   -7241.6405   -6676.4953   -615.37498     102002.7      46.7237      46.7237      46.7237 
  104000    108.24405   -7234.6448   -6674.5158    -855.6012     102002.7      46.7237      46.7237      46.7237 
  105000    111.47914   -7242.5384   -6665.6688   -891.54127     102002.7      46.7237      46.7237      46.7237 
  106000    109.71661   -7234.6364   -6666.8874   -633.13261     102002.7      46.7237      46.7237      46.7237 
  107000    108.96493   -7251.6133    -6687.754   -773.88076     102002.7      46.7237      46.7237      46.7237 
  108000    108.77611   -7233.7234   -6670.8412   -733.62336     102002.7      46.7237      46.7237      46.7237 
  109000    109.22282   -7242.8156   -6677.6218   -759.82916     102002.7      46.7237      46.7237      46.7237 
  110000    107.37324   -7256.5855   -6700.9627   -745.07801     102002.7      46.7237      46.7237      46.7237 
  111000    111.22067   -7247.7694   -6672.2373   -570.88972     102002.7      46.7237      46.7237      46.7237 
  112000    109.33895   -7251.6811   -6685.8864   -654.79594     102002.7      46.7237      46.7237      46.7237 
  113000    112.10078   -7242.0614   -6661.9751   -613.31294     102002.7      46.7237      46.7237      46.7237 
  114000    108.76705   -7259.2389   -6696.4035   -879.88545     102002.7      46.7237      46.7237      46.7237 
  115000    117.02251   -7262.7526   -6657.1978   -606.67114     102002.7      46.7237      46.7237      46.7237 
  116000    112.04257   -7246.2673   -6666.4822    -695.3805     102002.7      46.7237      46.7237      46.7237 
  117000    107.06318   -7235.2958   -6681.2774   -889.14229     102002.7      46.7237      46.7237      46.7237 
  118000    109.75453   -7239.9213   -6671.9761   -729.94068     102002.7      46.7237      46.7237      46.7237 
  119000    108.09537   -7234.0444   -6674.6847   -1030.9938     102002.7      46.7237      46.7237      46.7237 
  120000    104.07465   -7240.3733   -6701.8196   -515.34347     102002.7      46.7237      46.7237      46.7237 
  121000    112.59109   -7259.0937   -6676.4701   -787.49263     102002.7      46.7237      46.7237      46.7237 
  122000    111.24429   -7247.3992   -6671.7449   -614.42285     102002.7      46.7237      46.7237      46.7237 
  123000    110.51925   -7248.5142   -6676.6117   -907.77902     102002.7      46.7237      46.7237      46.7237 
  124000    108.54432   -7251.4912   -6689.8084   -797.05946     102002.7      46.7237      46.7237      46.7237 
  125000    107.63029   -7237.4029   -6680.4499   -650.90937     102002.7      46.7237      46.7237      46.7237 
  126000    111.46762   -7217.8929   -6641.0829   -829.73297     102002.7      46.7237      46.7237      46.7237 
  127000    111.01752   -7260.4987   -6686.0179   -342.84572     102002.7      46.7237      46.7237      46.7237 
  128000    108.97144    -7258.978    -6695.085   -779.25454     102002.7      46.7237      46.7237      46.7237 
  129000    110.66544   -7244.2347   -6671.5758   -817.09347     102002.7      46.7237      46.7237      46.7237 
  130000    111.30684   -7249.2875   -6673.3096   -759.14186     102002.7      46.7237      46.7237      46.7237 
  131000    109.81039   -7236.4498   -6668.2154   -936.36195     102002.7      46.7237      46.7237      46.7237 
  132000     110.6824   -7254.9967     -6682.25   -915.81954     102002.7      46.7237      46.7237      46.7237 
  133000    112.02865   -7236.1427   -6656.4296   -891.94169     102002.7      46.7237      46.7237      46.7237 
  134000    109.17632   -7245.7829   -6680.8297   -998.32311     102002.7      46.7237      46.7237      46.7237 
  135000     111.7563   -7244.2922   -6665.9884   -872.83236     102002.7      46.7237      46.7237      46.7237 
  136000    105.85142   -7245.0296   -6697.2817   -994.09455     102002.7      46.7237      46.7237      46.7237 
  137000    110.24363   -7250.6679   -6680.1917   -991.81042     102002.7      46.7237      46.7237      46.7237 
  138000    114.48047   -7251.3348   -6658.9343   -654.74592     102002.7      46.7237      46.7237      46.7237 
  139000    109.48286    -7255.596   -6689.0566   -786.77721     102002.7      46.7237      46.7237      46.7237 
  140000    111.92952    -7246.807   -6667.6069   -689.95879     102002.7      46.7237      46.7237      46.7237 
  141000    112.88903   -7244.1383   -6659.9729   -505.85987     102002.7      46.7237      46.7237      46.7237 
  142000    111.85891   -7252.6163   -6673.7816   -724.76687     102002.7      46.7237      46.7237      46.7237 
  143000    110.17176   -7251.3522   -6681.2479   -609.41886     102002.7      46.7237      46.7237      46.7237 
  144000    109.97646   -7227.7694   -6658.6757   -605.60944     102002.7      46.7237      46.7237      46.7237 
  145000    108.13427   -7251.8886   -6692.3277   -806.28009     102002.7      46.7237      46.7237      46.7237 
  146000    109.16089   -7238.3272   -6673.4538   -675.24363     102002.7      46.7237      46.7237      46.7237 
  147000    107.53361   -7242.1283   -6685.6756   -630.05658     102002.7      46.7237      46.7237      46.7237 
  148000    106.52457    -7251.092   -6699.8608   -627.31864     102002.7      46.7237      46.7237      46.7237 
  149000    109.80556    -7242.597   -6674.3876   -361.26207     102002.7      46.7237      46.7237      46.7237 
  150000    107.55048   -7253.0449   -6696.5049   -714.39291     102002.7      46.7237      46.7237      46.7237 
  151000    105.71706   -7231.0892   -6684.0366   -621.71563     102002.7      46.7237      46.7237      46.7237 
  152000    111.81343   -7248.2956   -6669.6961   -667.10032     102002.7      46.7237      46.7237      46.7237 
  153000    110.62181   -7266.1262    -6693.693   -668.27113     102002.7      46.7237      46.7237      46.7237 
  154000    106.85741   -7236.6314   -6683.6779   -597.71692     102002.7      46.7237      46.7237      46.7237 
  155000    111.45252   -7240.9443   -6664.2125   -583.98811     102002.7      46.7237      46.7237      46.7237 
  156000    110.33889    -7243.694   -6672.7249   -868.29908     102002.7      46.7237      46.7237      46.7237 
  157000    112.61331   -7236.4582   -6653.7197   -577.91223     102002.7      46.7237      46.7237      46.7237 
  158000    106.61666   -7232.8597   -6681.1519   -765.07945     102002.7      46.7237      46.7237      46.7237 
  159000     112.9807   -7236.2123   -6651.5727   -911.30067     102002.7      46.7237      46.7237      46.7237 
  160000    110.72375   -7247.8665   -6674.9058   -742.83074     102002.7      46.7237      46.7237      46.7237 
  161000    109.46088   -7246.5149   -6680.0892   -976.72339     102002.7      46.7237      46.7237      46.7237 
  162000    110.39889   -7253.1757   -6681.8961    -801.8763     102002.7      46.7237      46.7237      46.7237 
  163000    110.70845   -7210.2882   -6637.4067   -929.04233     102002.7      46.7237      46.7237      46.7237 
  164000    111.50564   -7257.0548   -6680.0481    -991.7134     102002.7      46.7237      46.7237      46.7237 
  165000    109.73069   -7242.0493   -6674.2274   -881.63002     102002.7      46.7237      46.7237      46.7237 
  166000    109.60448   -7257.8286   -6690.6598   -725.92829     102002.7      46.7237      46.7237      46.7237 
  167000    105.56931   -7228.1336   -6681.8455   -822.90358     102002.7      46.7237      46.7237      46.7237 
  168000    113.32811   -7239.7877   -6653.3503   -584.71814     102002.7      46.7237      46.7237      46.7237 
  169000    107.15505   -7240.4605   -6685.9668   -893.72553     102002.7      46.7237      46.7237      46.7237 
  170000    111.76132   -7238.7723   -6660.4425   -782.98746     102002.7      46.7237      46.7237      46.7237 
  171000    108.79647   -7245.6877   -6682.7001   -707.50598     102002.7      46.7237      46.7237      46.7237 
  172000     105.8733   -7245.9751    -6698.114   -845.13391     102002.7      46.7237      46.7237      46.7237 
  173000    109.76466   -7258.5881   -6690.5904   -658.29616     102002.7      46.7237      46.7237      46.7237 
  174000    115.73077   -7244.9624    -6646.092   -551.09023     102002.7      46.7237      46.7237      46.7237 
  175000    108.62579   -7235.0637   -6672.9594   -688.72096     102002.7      46.7237      46.7237      46.7237 
  176000    109.52313   -7279.0738    -6712.326   -364.12679     102002.7      46.7237      46.7237      46.7237 
  177000    108.53342   -7239.2454    -6677.619   -632.39089     102002.7      46.7237      46.7237      46.7237 
  178000     112.4514   -7249.3491   -6667.4483   -292.56976     102002.7      46.7237      46.7237      46.7237 
  179000    107.90272    -7245.611   -6687.2483   -895.15042     102002.7      46.7237      46.7237      46.7237 
  180000    111.69984   -7259.0203   -6681.0087   -731.35871     102002.7      46.7237      46.7237      46.7237 
  181000    113.53607   -7248.5193   -6661.0057   -775.38491     102002.7      46.7237      46.7237      46.7237 
  182000    110.18688   -7256.1998   -6686.0173   -810.24066     102002.7      46.7237      46.7237      46.7237 
  183000     109.9149   -7235.2321    -6666.457   -645.92927     102002.7      46.7237      46.7237      46.7237 
  184000    107.49504    -7266.194   -6709.9409   -569.53265     102002.7      46.7237      46.7237      46.7237 
  185000    110.05367   -7232.1656   -6662.6724    -741.0556     102002.7      46.7237      46.7237      46.7237 
  186000    105.73719   -7257.9732   -6710.8164   -609.14791     102002.7      46.7237      46.7237      46.7237 
  187000    109.34034   -7257.8956   -6692.0936   -143.48624     102002.7      46.7237      46.7237      46.7237 
  188000    109.68822   -7247.3335   -6679.7313   -626.31924     102002.7      46.7237      46.7237      46.7237 
  189000    110.09403   -7242.1539   -6672.4518   -472.86584     102002.7      46.7237      46.7237      46.7237 
  190000    108.86338   -7244.4034   -6681.0696   -636.51662     102002.7      46.7237      46.7237      46.7237 
  191000    112.31679   -7223.6021    -6642.398   -566.81826     102002.7      46.7237      46.7237      46.7237 
  192000    109.08154   -7245.4427     -6680.98   -489.73249     102002.7      46.7237      46.7237      46.7237 
  193000    110.63577   -7271.7693   -6699.2639   -599.28167     102002.7      46.7237      46.7237      46.7237 
  194000    111.50425   -7242.2389   -6665.2394   -488.89016     102002.7      46.7237      46.7237      46.7237 
  195000     110.1552   -7252.9462   -6682.9276   -285.53016     102002.7      46.7237      46.7237      46.7237 
  196000    110.55981   -7253.9836   -6681.8713   -287.72413     102002.7      46.7237      46.7237      46.7237 
  197000    109.60549   -7240.0814   -6672.9074   -595.46101     102002.7      46.7237      46.7237      46.7237 
  198000    110.72863    -7250.385    -6677.399   -467.98155     102002.7      46.7237      46.7237      46.7237 
  199000    108.13409   -7234.0405   -6674.4805   -776.48322     102002.7      46.7237      46.7237      46.7237 
  200000    109.97572   -7246.5813   -6677.4915    -614.2598     102002.7      46.7237      46.7237      46.7237 
  201000     106.2005   -7238.6381   -6689.0838   -492.68037     102002.7      46.7237      46.7237      46.7237 
  202000    111.20719   -7245.4753    -6670.013    -750.5322     102002.7      46.7237      46.7237      46.7237 
  203000    109.68622   -7245.4643   -6677.8725   -576.55698     102002.7      46.7237      46.7237      46.7237 
  204000    106.99252   -7247.8523   -6694.1995    -763.3429     102002.7      46.7237      46.7237      46.7237 
  205000    113.48071   -7230.0301   -6642.8031   -415.50422     102002.7      46.7237      46.7237      46.7237 
  206000     107.6838   -7236.0625   -6678.8326   -818.99166     102002.7      46.7237      46.7237      46.7237 
  207000    108.95517   -7233.3782   -6669.5694    -722.8256     102002.7      46.7237      46.7237      46.7237 
  208000    110.99062   -7243.8304   -6669.4887   -927.83841     102002.7      46.7237      46.7237      46.7237 
  209000    109.32696   -7245.6403   -6679.9076   -770.17119     102002.7      46.7237      46.7237      46.7237 
  210000    110.70847   -7234.0122   -6661.1306   -751.15766     102002.7      46.7237      46.7237      46.7237 
  211000    110.06818   -7251.8745   -6682.3062   -904.69265     102002.7      46.7237      46.7237      46.7237 
  212000    112.66957   -7253.0371   -6670.0074   -575.32534     102002.7      46.7237      46.7237      46.7237 
  213000    108.63715   -7260.5166   -6698.3534   -650.97503     102002.7      46.7237      46.7237      46.7237 
  214000    105.75624   -7255.5245   -6708.2692    -746.4953     102002.7      46.7237      46.7237      46.7237 
  215000    111.77274    -7239.745   -6661.3562   -642.31024     102002.7      46.7237      46.7237      46.7237 
  216000    107.09762   -7239.4523   -6685.2557   -948.42136     102002.7      46.7237      46.7237      46.7237 
  217000    108.98246   -7255.2053   -6691.2552   -866.63532     102002.7      46.7237      46.7237      46.7237 
  218000    109.76946    -7230.418   -6662.3955   -815.99945     102002.7      46.7237      46.7237      46.7237 
  219000    106.29876   -7244.7792   -6694.7164   -931.87067     102002.7      46.7237      46.7237      46.7237 
  220000    109.95859   -7262.0136   -6693.0123   -808.27939     102002.7      46.7237      46.7237      46.7237 
  221000    109.73163    -7257.352   -6689.5253   -1067.1944     102002.7      46.7237      46.7237      46.7237 
  222000    107.09747   -7235.5307   -6681.3349    -590.9677     102002.7      46.7237      46.7237      46.7237 
  223000    110.64436   -7246.9577   -6674.4079   -670.32451     102002.7      46.7237      46.7237      46.7237 
  224000    113.43004   -7232.6317   -6645.6669   -698.72116     102002.7      46.7237      46.7237      46.7237 
  225000    111.35194   -7248.6963    -6672.485   -938.41053     102002.7      46.7237      46.7237      46.7237 
  226000    109.40603    -7249.349   -6683.2071   -451.19744     102002.7      46.7237      46.7237      46.7237 
  227000    112.63241   -7237.1344    -6654.297   -557.19019     102002.7      46.7237      46.7237      46.7237 
  228000    105.99095    -7257.827   -6709.3571   -343.75479     102002.7      46.7237      46.7237      46.7237 
  229000    113.51729   -7250.3268   -6662.9104   -494.34897     102002.7      46.7237      46.7237      46.7237 
  230000     107.8785   -7243.8149   -6685.5775   -544.95473     102002.7      46.7237      46.7237      46.7237 
  231000    110.37758   -7230.6352   -6659.4659   -507.20323     102002.7      46.7237      46.7237      46.7237 
  232000    110.35421    -7247.944   -6676.8956   -710.43608     102002.7      46.7237      46.7237      46.7237 
  233000    105.61603   -7249.8494   -6703.3196   -744.17905     102002.7      46.7237      46.7237      46.7237 
  234000    107.90851   -7233.9199   -6675.5273    -1227.746     102002.7      46.7237      46.7237      46.7237 
  235000    107.82455   -7242.2404   -6684.2822   -882.47523     102002.7      46.7237      46.7237      46.7237 
  236000    112.67203   -7240.1056   -6657.0632   -872.89284     102002.7      46.7237      46.7237      46.7237 
  237000    112.24003   -7256.8683   -6676.0614   -680.19944     102002.7      46.7237      46.7237      46.7237 
  238000    113.69735   -7247.2306   -6658.8825   -799.09937     102002.7      46.7237      46.7237      46.7237 
  239000      110.281   -7260.4477   -6689.7781   -782.67533     102002.7      46.7237      46.7237      46.7237 
  240000    114.00756   -7235.8773    -6645.924   -544.61012     102002.7      46.7237      46.7237      46.7237 
  241000    112.04753   -7250.4163   -6670.6055   -1004.0459     102002.7      46.7237      46.7237      46.7237 
  242000      108.775   -7233.5646   -6670.6881   -872.95589     102002.7      46.7237      46.7237      46.7237 
  243000    111.18008   -7266.4085   -6691.0864    -771.3495     102002.7      46.7237      46.7237      46.7237 
  244000    113.63654   -7242.4616   -6654.4282   -710.25878     102002.7      46.7237      46.7237      46.7237 
  245000    111.49415   -7254.2299   -6677.2827   -791.65805     102002.7      46.7237      46.7237      46.7237 
  246000    107.70111   -7257.5761   -6700.2566   -947.56178     102002.7      46.7237      46.7237      46.7237 
  247000    111.37265   -7244.3578   -6668.0393   -728.70481     102002.7      46.7237      46.7237      46.7237 
  248000    111.01782   -7230.8935   -6656.4112   -1221.2919     102002.7      46.7237      46.7237      46.7237 
  249000     109.3937   -7262.0329   -6695.9548   -681.86775     102002.7      46.7237      46.7237      46.7237 
  250000    107.40522   -7231.5563    -6675.768   -837.77174     102002.7      46.7237      46.7237      46.7237 
  251000    111.08356   -7240.9892   -6666.1666   -990.37921     102002.7      46.7237      46.7237      46.7237 
  252000    110.99377   -7255.2734   -6680.9154   -736.68698     102002.7      46.7237      46.7237      46.7237 
  253000    111.15395   -7251.6309   -6676.4441   -755.25324     102002.7      46.7237      46.7237      46.7237 
  254000    112.08587   -7253.2084   -6673.1992    -821.4926     102002.7      46.7237      46.7237      46.7237 
  255000    108.66944   -7251.4725   -6689.1422   -841.93628     102002.7      46.7237      46.7237      46.7237 
  256000     112.1749   -7248.3186   -6667.8487   -886.42477     102002.7      46.7237      46.7237      46.7237 
  257000     108.0857   -7243.1217   -6683.8121   -424.06019     102002.7      46.7237      46.7237      46.7237 
  258000    113.60186   -7241.5586   -6653.7046   -656.50481     102002.7      46.7237      46.7237      46.7237 
  259000    106.83563   -7254.5049   -6701.6641   -615.01396     102002.7      46.7237      46.7237      46.7237 
  260000    109.14223   -7252.0715   -6687.2947   -518.37089     102002.7      46.7237      46.7237      46.7237 
  261000    110.71534   -7255.2215   -6682.3044   -656.90384     102002.7      46.7237      46.7237      46.7237 
  262000    104.59823   -7252.0309   -6710.7678   -651.67446     102002.7      46.7237      46.7237      46.7237 
  263000    107.99282    -7231.779   -6672.9501   -791.12209     102002.7      46.7237      46.7237      46.7237 
  264000    107.00711   -7259.3331   -6705.6049   -657.90997     102002.7      46.7237      46.7237      46.7237 
  265000     108.1763   -7230.3705   -6670.5921   -559.52408     102002.7      46.7237      46.7237      46.7237 
  266000    110.20046   -7257.2673   -6687.0145   -896.22621     102002.7      46.7237      46.7237      46.7237 
  267000    111.20175   -7209.4974   -6634.0632   -697.24653     102002.7      46.7237      46.7237      46.7237 
  268000    111.51928   -7256.5065   -6679.4292   -724.95678     102002.7      46.7237      46.7237      46.7237 
  269000    114.69489   -7259.5123   -6666.0022   -780.23324     102002.7      46.7237      46.7237      46.7237 
  270000      110.734   -7252.5669   -6679.5532   -592.35023     102002.7      46.7237      46.7237      46.7237 
  271000    109.57335   -7247.0835   -6680.0758   -615.40103     102002.7      46.7237      46.7237      46.7237 
  272000    107.82375   -7256.4878   -6698.5337   -686.40533     102002.7      46.7237      46.7237      46.7237 
  273000    113.82982   -7254.9566    -6665.923   -922.13255     102002.7      46.7237      46.7237      46.7237 
  274000    108.57858   -7257.7221    -6695.862   -574.68976     102002.7      46.7237      46.7237      46.7237 
  275000    109.70782   -7258.1574   -6690.4538   -688.22189     102002.7      46.7237      46.7237      46.7237 
  276000    109.91829   -7231.5498   -6662.7572   -711.12417     102002.7      46.7237      46.7237      46.7237 
  277000     106.9091   -7255.4338   -6702.2128   -510.90603     102002.7      46.7237      46.7237      46.7237 
  278000    111.23876   -7255.1625   -6679.5368   -508.78927     102002.7      46.7237      46.7237      46.7237 
  279000    112.04338   -7263.1834    -6683.394   -612.51051     102002.7      46.7237      46.7237      46.7237 
  280000    105.81418   -7243.2672   -6695.7121   -685.05105     102002.7      46.7237      46.7237      46.7237 
  281000     111.7502   -7245.5048   -6667.2326   -545.73713     102002.7      46.7237      46.7237      46.7237 
  282000    108.17114   -7261.5218     -6701.77   -391.62552     102002.7      46.7237      46.7237      46.7237 
  283000    111.78271   -7259.6142   -6681.1738    -789.3371     102002.7      46.7237      46.7237      46.7237 
  284000     108.7161   -7241.3101   -6678.7384   -857.80242     102002.7      46.7237      46.7237      46.7237 
  285000      110.526   -7258.8883   -6686.9509   -426.59739     102002.7      46.7237      46.7237      46.7237 
  286000    111.88441   -7232.6381   -6653.6714   -593.40318     102002.7      46.7237      46.7237      46.7237 
  287000    110.96082   -7257.8656   -6683.6782   -656.04228     102002.7      46.7237      46.7237      46.7237 
  288000    108.33048   -7230.4693    -6669.893   -445.35275     102002.7      46.7237      46.7237      46.7237 
  289000    113.94707   -7240.0182   -6650.3778   -810.69489     102002.7      46.7237      46.7237      46.7237 
  290000    106.69445   -7240.3824   -6688.2721   -811.19243     102002.7      46.7237      46.7237      46.7237 
  291000    110.24642   -7243.4575   -6672.9668   -659.37722     102002.7      46.7237      46.7237      46.7237 
  292000     106.7904    -7249.519   -6696.9122    -509.4075     102002.7      46.7237      46.7237      46.7237 
  293000    111.43374   -7236.3867   -6659.7521   -487.63413     102002.7      46.7237      46.7237      46.7237 
  294000    105.01122   -7248.8526   -6705.4525   -619.44312     102002.7      46.7237      46.7237      46.7237 
  295000     109.5617   -7242.9478   -6676.0004   -841.82375     102002.7      46.7237      46.7237      46.7237 
  296000    108.24358   -7263.1619   -6703.0353   -606.52504     102002.7      46.7237      46.7237      46.7237 
  297000     111.4862   -7246.8301    -6669.924   -885.43241     102002.7      46.7237      46.7237      46.7237 
  298000    111.66509   -7254.1552   -6676.3234   -790.52673     102002.7      46.7237      46.7237      46.7237 
  299000    107.69326    -7273.853   -6716.5742   -949.70414     102002.7      46.7237      46.7237      46.7237 
  300000    109.78824   -7236.0676   -6667.9479   -706.00068     102002.7      46.7237      46.7237      46.7237 
  301000    109.67649        -7250   -6682.4586   -815.62691     102002.7      46.7237      46.7237      46.7237 
  302000    107.13476   -7232.7433   -6678.3545   -734.67464     102002.7      46.7237      46.7237      46.7237 
  303000    112.81826   -7242.6671    -6658.868   -381.92391     102002.7      46.7237      46.7237      46.7237 
  304000       109.39   -7242.3668   -6676.3079   -396.89475     102002.7      46.7237      46.7237      46.7237 
  305000      113.401   -7252.5498   -6665.7352   -765.92977     102002.7      46.7237      46.7237      46.7237 
  306000    108.56392   -7245.7143     -6683.93   -548.63795     102002.7      46.7237      46.7237      46.7237 
  307000    108.95209   -7236.2149    -6672.422   -378.58866     102002.7      46.7237      46.7237      46.7237 
  308000     109.7975   -7258.7103   -6690.5427   -435.93171     102002.7      46.7237      46.7237      46.7237 
  309000    108.76019   -7246.6773   -6683.8774   -585.66248     102002.7      46.7237      46.7237      46.7237 
  310000    110.26568   -7253.4034   -6682.8131   -446.23214     102002.7      46.7237      46.7237      46.7237 
  311000    106.17608   -7234.7944   -6685.3665    -317.4079     102002.7      46.7237      46.7237      46.7237 
  312000    115.23811   -7226.8518   -6630.5307   -614.65893     102002.7      46.7237      46.7237      46.7237 
  313000     110.9819   -7244.9319   -6670.6353   -709.68765     102002.7      46.7237      46.7237      46.7237 
  314000    107.08434   -7248.6883   -6694.5605    -761.0523     102002.7      46.7237      46.7237      46.7237 
  315000    111.83013   -7247.5982   -6668.9123   -662.25076     102002.7      46.7237      46.7237      46.7237 
  316000    108.99578   -7250.8974   -6686.8784   -693.35825     102002.7      46.7237      46.7237      46.7237 
  317000    108.25844   -7253.6073   -6693.4038   -736.90466     102002.7      46.7237      46.7237      46.7237 
  318000    111.56734   -7230.0437   -6652.7177   -746.65017     102002.7      46.7237      46.7237      46.7237 
  319000    107.87321   -7249.8246   -6691.6145   -634.98465     102002.7      46.7237      46.7237      46.7237 
  320000    110.77099   -7244.6459   -6671.4408   -762.85009     102002.7      46.7237      46.7237      46.7237 
  321000    114.36294   -7263.9317   -6672.1394    -686.3924     102002.7      46.7237      46.7237      46.7237 
  322000    107.77428   -7253.3655   -6695.6674   -957.57173     102002.7      46.7237      46.7237      46.7237 
  323000    111.37829    -7252.006   -6675.6583   -716.21844     102002.7      46.7237      46.7237      46.7237 
  324000    111.40852   -7241.7425   -6665.2383   -721.68514     102002.7      46.7237      46.7237      46.7237 
  325000    108.76839    -7268.531   -6705.6887   -835.81985     102002.7      46.7237      46.7237      46.7237 
  326000    109.65672   -7249.5084   -6682.0693   -838.22593     102002.7      46.7237      46.7237      46.7237 
  327000     111.1359   -7235.4245   -6660.3311   -907.31883     102002.7      46.7237      46.7237      46.7237 
  328000    108.62381   -7265.1344   -6703.0403   -673.36176     102002.7      46.7237      46.7237      46.7237 
  329000    111.50893   -7241.9421   -6664.9184    -1017.106     102002.7      46.7237      46.7237      46.7237 
  330000    106.88804   -7246.8883   -6693.7762   -793.20484     102002.7      46.7237      46.7237      46.7237 
  331000    111.08356   -7240.4879   -6665.6653    -637.8401     102002.7      46.7237      46.7237      46.7237 
  332000    111.01813   -7253.0161   -6678.5322   -536.35078     102002.7      46.7237      46.7237      46.7237 
  333000    111.58575   -7252.9244   -6675.5032    -653.1174     102002.7      46.7237      46.7237      46.7237 
  334000    109.59055   -7253.0874   -6685.9907   -369.24844     102002.7      46.7237      46.7237      46.7237 
  335000     109.6619   -7237.8806   -6670.4147   -961.50074     102002.7      46.7237      46.7237      46.7237 
  336000    111.08147   -7250.2813   -6675.4695   -500.26644     102002.7      46.7237      46.7237      46.7237 
  337000    107.76467   -7235.1347   -6677.4863   -493.06757     102002.7      46.7237      46.7237      46.7237 
  338000    107.27921   -7251.7832   -6696.6469   -615.73047     102002.7      46.7237      46.7237      46.7237 
  339000    108.77489    -7265.737    -6702.861   -773.48487     102002.7      46.7237      46.7237      46.7237 
  340000    108.34633   -7236.5755   -6675.9172   -738.79997     102002.7      46.7237      46.7237      46.7237 
  341000      109.748   -7256.9756   -6689.0641      -477.68     102002.7      46.7237      46.7237      46.7237 
  342000    109.40371   -7260.5525   -6694.4226   -575.41345     102002.7      46.7237      46.7237      46.7237 
  343000    104.79249   -7233.5234   -6691.2551   -571.72965     102002.7      46.7237      46.7237      46.7237 
  344000    111.86532    -7245.885   -6667.0171   -555.43349     102002.7      46.7237      46.7237      46.7237 
  345000    109.71377   -7261.6172   -6693.8828   -527.08059     102002.7      46.7237      46.7237      46.7237 
  346000    107.46995    -7241.637   -6685.5138   -596.10226     102002.7      46.7237      46.7237      46.7237 
  347000    111.15393   -7244.6653   -6669.4785   -442.87958     102002.7      46.7237      46.7237      46.7237 
  348000    106.00707   -7258.6318   -6710.0784   -757.95933     102002.7      46.7237      46.7237      46.7237 
  349000    110.55296   -7242.4438    -6670.367   -566.39295     102002.7      46.7237      46.7237      46.7237 
  350000    111.59797   -7235.5162   -6658.0317   -512.61069     102002.7      46.7237      46.7237      46.7237 
  351000    110.63582   -7259.8366   -6687.3309   -504.79929     102002.7      46.7237      46.7237      46.7237 
  352000    113.48667   -7237.4772   -6650.2193    -340.6733     102002.7      46.7237      46.7237      46.7237 
  353000    109.11851   -7243.6644   -6679.0103   -833.73085     102002.7      46.7237      46.7237      46.7237 
  354000    112.85802   -7246.7843   -6662.7794   -546.82079     102002.7      46.7237      46.7237      46.7237 
  355000    109.62034    -7248.497   -6681.2461   -417.66529     102002.7      46.7237      46.7237      46.7237 
  356000    109.73362   -7262.1744   -6694.3374   -534.35963     102002.7      46.7237      46.7237      46.7237 
  357000    114.95427   -7221.5442   -6626.6919     -593.119     102002.7      46.7237      46.7237      46.7237 
  358000    109.75266   -7244.8498   -6676.9142    -715.3241     102002.7      46.7237      46.7237      46.7237 
  359000    111.79091   -7249.3064   -6670.8235   -336.02421     102002.7      46.7237      46.7237      46.7237 
  360000    106.32856   -7254.4155   -6704.1986   -764.71451     102002.7      46.7237      46.7237      46.7237 
  361000     111.7372   -7250.9111   -6672.7061   -406.15864     102002.7      46.7237      46.7237      46.7237 
  362000    109.41962   -7247.7789   -6681.5666   -800.73969     102002.7      46.7237      46.7237      46.7237 
  363000    108.99161   -7206.0612   -6642.0638    -477.8699     102002.7      46.7237      46.7237      46.7237 
  364000    106.58675   -7243.1836   -6691.6306   -380.25688     102002.7      46.7237      46.7237      46.7237 
  365000    108.66019   -7246.4259   -6684.1435   -612.23939     102002.7      46.7237      46.7237      46.7237 
  366000    109.96579    -7243.035   -6673.9965   -714.63052     102002.7      46.7237      46.7237      46.7237 
  367000    108.37335   -7267.8175   -6707.0194   -650.24963     102002.7      46.7237      46.7237      46.7237 
  368000      110.276   -7258.6274   -6687.9837   -758.70824     102002.7      46.7237      46.7237      46.7237 
  369000    107.97427   -7243.4506   -6684.7177   -698.68579     102002.7      46.7237      46.7237      46.7237 
  370000    113.43963   -7242.4759   -6655.4615   -828.46161     102002.7      46.7237      46.7237      46.7237 
  371000    111.42935   -7264.4482   -6687.8363   -775.03477     102002.7      46.7237      46.7237      46.7237 
  372000     112.2265   -7246.4863   -6665.7493   -835.09803     102002.7      46.7237      46.7237      46.7237 
  373000     109.3871   -7247.2041   -6681.1602   -792.62114     102002.7      46.7237      46.7237      46.7237 
  374000    110.07723   -7235.6895   -6666.0744   -754.10016     102002.7      46.7237      46.7237      46.7237 
  375000    110.60762   -7240.3607    -6668.001   -568.74165     102002.7      46.7237      46.7237      46.7237 
  376000    109.37202   -7269.7372   -6703.7713   -734.70804     102002.7      46.7237      46.7237      46.7237 
  377000    111.54326   -7237.1092   -6659.9078    -617.5242     102002.7      46.7237      46.7237      46.7237 
  378000    110.92235   -7255.9104    -6681.922   -784.79867     102002.7      46.7237      46.7237      46.7237 
  379000    110.01852   -7242.2997   -6672.9883   -857.69051     102002.7      46.7237      46.7237      46.7237 
  380000    109.21121   -7225.3324   -6660.1986   -806.48662     102002.7      46.7237      46.7237      46.7237 
  381000     107.7712    -7248.634   -6690.9519    -842.9974     102002.7      46.7237      46.7237      46.7237 
  382000    106.93894   -7235.2762   -6681.9007    -701.0173     102002.7      46.7237      46.7237      46.7237 
  383000    108.87807    -7239.451   -6676.0411   -832.23358     102002.7      46.7237      46.7237      46.7237 
  384000    115.77935   -7240.7311   -6641.6093   -548.58283     102002.7      46.7237      46.7237      46.7237 
  385000    111.61077   -7258.8777    -6681.327   -655.55014     102002.7      46.7237      46.7237      46.7237 
  386000    110.13026   -7234.6255   -6664.7359   -468.00113     102002.7      46.7237      46.7237      46.7237 
  387000    114.98645   -7235.3487   -6640.3299   -525.65859     102002.7      46.7237      46.7237      46.7237 
  388000    110.16162   -7243.4002   -6673.3484    -848.6945     102002.7      46.7237      46.7237      46.7237 
  389000    108.27924   -7244.3609   -6684.0498   -628.65902     102002.7      46.7237      46.7237      46.7237 
  390000    106.08763   -7247.4639   -6698.4937   -804.52101     102002.7      46.7237      46.7237      46.7237 
  391000    111.31663   -7233.4648   -6657.4362   -639.41917     102002.7      46.7237      46.7237      46.7237 
  392000    110.67219   -7260.4415   -6687.7477   -948.07749     102002.7      46.7237      46.7237      46.7237 
  393000    115.28106   -7243.3466   -6646.8033   -504.46898     102002.7      46.7237      46.7237      46.7237 
  394000    107.88906   -7222.8198   -6664.5278    -943.6227     102002.7      46.7237      46.7237      46.7237 
  395000     105.3118   -7243.8828   -6698.9272   -734.72742     102002.7      46.7237      46.7237      46.7237 
  396000    111.17931   -7244.8247   -6669.5066   -490.07148     102002.7      46.7237      46.7237      46.7237 
  397000    110.50556    -7227.217   -6655.3854   -763.75012     102002.7      46.7237      46.7237      46.7237 
  398000    110.49406   -7254.9524   -6683.1803   -555.22443     102002.7      46.7237      46.7237      46.7237 
  399000    106.12345   -7234.8033   -6685.6478   -757.78233     102002.7      46.7237      46.7237      46.7237 
  400000    107.31474   -7258.5625   -6703.2423   -614.49241     102002.7      46.7237      46.7237      46.7237 
  401000    110.05459    -7240.309    -6670.811   -777.75094     102002.7      46.7237      46.7237      46.7237 
  402000    110.89884     -7257.19   -6683.3233   -492.39379     102002.7      46.7237      46.7237      46.7237 
  403000    111.86622    -7240.889   -6662.0164    -627.3844     102002.7      46.7237      46.7237      46.7237 
  404000    110.06837   -7231.1793   -6661.6101   -479.83518     102002.7      46.7237      46.7237      46.7237 
  405000    110.38827   -7250.8778   -6679.6531   -702.68972     102002.7      46.7237      46.7237      46.7237 
  406000    111.11257   -7219.6617    -6644.689   -730.67377     102002.7      46.7237      46.7237      46.7237 
  407000    113.89571   -7264.8131   -6675.4385   -810.09842     102002.7      46.7237      46.7237      46.7237 
  408000    112.53037    -7224.743   -6642.4336   -689.77763     102002.7      46.7237      46.7237      46.7237 
  409000    109.05834   -7246.6528   -6682.3101   -561.12875     102002.7      46.7237      46.7237      46.7237 
  410000    107.53713   -7252.6492   -6696.1783   -440.92322     102002.7      46.7237      46.7237      46.7237 
  411000    106.69624   -7244.2265   -6692.1069    -655.6784     102002.7      46.7237      46.7237      46.7237 
  412000    113.44426    -7241.391   -6654.3526   -591.66152     102002.7      46.7237      46.7237      46.7237 
  413000    109.69111    -7235.232   -6667.6149   -695.43247     102002.7      46.7237      46.7237      46.7237 
  414000    109.27236   -7231.9428   -6666.4926   -642.96556     102002.7      46.7237      46.7237      46.7237 
  415000    108.26503   -7259.2295    -6698.992   -667.25732     102002.7      46.7237      46.7237      46.7237 
  416000    109.55194   -7233.5561   -6666.6592   -629.47399     102002.7      46.7237      46.7237      46.7237 
  417000    110.96394   -7248.5261   -6674.3226   -547.71627     102002.7      46.7237      46.7237      46.7237 
  418000    108.94352   -7255.6223   -6691.8737   -512.13711     102002.7      46.7237      46.7237      46.7237 
  419000    113.58536   -7244.7252   -6656.9567   -562.52232     102002.7      46.7237      46.7237      46.7237 
  420000    111.14481   -7254.4077   -6679.2682   -576.14892     102002.7      46.7237      46.7237      46.7237 
  421000    106.68096   -7265.9072   -6713.8667   -520.31531     102002.7      46.7237      46.7237      46.7237 
  422000    110.64754   -7244.0767   -6671.5104   -685.84753     102002.7      46.7237      46.7237      46.7237 
  423000    106.02969   -7250.9685   -6702.2981   -682.74633     102002.7      46.7237      46.7237      46.7237 
  424000    109.47328    -7256.858   -6690.3681   -725.05149     102002.7      46.7237      46.7237      46.7237 
  425000      114.163   -7254.9286   -6664.1709   -494.74045     102002.7      46.7237      46.7237      46.7237 
  426000    110.91715   -7262.6062   -6688.6447    -497.4657     102002.7      46.7237      46.7237      46.7237 
  427000    110.42517   -7232.9144   -6661.4988    -646.6433     102002.7      46.7237      46.7237      46.7237 
  428000    109.40818   -7247.8679   -6681.7149   -640.45453     102002.7      46.7237      46.7237      46.7237 
  429000    112.54271   -7251.7638   -6669.3906   -559.45599     102002.7      46.7237      46.7237      46.7237 
  430000    109.53852   -7239.5867   -6672.7592   -935.31349     102002.7      46.7237      46.7237      46.7237 
  431000    110.87533   -7250.1431    -6676.398   -676.18157     102002.7      46.7237      46.7237      46.7237 
  432000    113.94371   -7232.1261   -6642.5032   -795.00442     102002.7      46.7237      46.7237      46.7237 
  433000    110.57594   -7251.4513   -6679.2556   -768.82212     102002.7      46.7237      46.7237      46.7237 
  434000    109.87709   -7265.5212   -6696.9417   -322.35332     102002.7      46.7237      46.7237      46.7237 
  435000    110.64342   -7246.4134   -6673.8684    -712.0171     102002.7      46.7237      46.7237      46.7237 
  436000    105.70946   -7240.1879   -6693.1746   -169.43709     102002.7      46.7237      46.7237      46.7237 
  437000    111.53482    -7221.814   -6644.6563    -299.1495     102002.7      46.7237      46.7237      46.7237 
  438000    109.74235   -7245.8077   -6677.9255   -574.61144     102002.7      46.7237      46.7237      46.7237 
  439000     107.3713   -7245.2433   -6689.6305   -527.64935     102002.7      46.7237      46.7237      46.7237 
  440000    109.04203   -7229.8294   -6665.5711   -500.98972     102002.7      46.7237      46.7237      46.7237 
  441000      113.091   -7258.3547   -6673.1442    -796.3392     102002.7      46.7237      46.7237      46.7237 
  442000    113.17588   -7254.6646   -6669.0149   -456.63929     102002.7      46.7237      46.7237      46.7237 
  443000    110.62214   -7269.1189   -6696.6841   -427.42167     102002.7      46.7237      46.7237      46.7237 
  444000    109.45761   -7238.2751   -6671.8663   -703.70536     102002.7      46.7237      46.7237      46.7237 
  445000    106.51462   -7229.0369   -6677.8571   -520.25939     102002.7      46.7237      46.7237      46.7237 
  446000    110.39463   -7249.2593   -6678.0017   -963.85318     102002.7      46.7237      46.7237      46.7237 
  447000    107.18342   -7248.1665    -6693.526   -910.61496     102002.7      46.7237      46.7237      46.7237 
  448000    109.70082   -7231.0119   -6663.3446   -656.80027     102002.7      46.7237      46.7237      46.7237 
  449000    107.02719   -7238.5451   -6684.7129   -966.53078     102002.7      46.7237      46.7237      46.7237 
  450000    109.73165   -7254.8258    -6686.999   -794.94042     102002.7      46.7237      46.7237      46.7237 
  451000    112.74516   -7257.2623   -6673.8414   -679.78131     102002.7      46.7237      46.7237      46.7237 
  452000    108.43732   -7250.6058   -6689.4767   -538.12229     102002.7      46.7237      46.7237      46.7237 
  453000    110.75718   -7245.1435   -6672.0099   -658.13074     102002.7      46.7237      46.7237      46.7237 
  454000    107.38375   -7258.0572     -6702.38   -626.83929     102002.7      46.7237      46.7237      46.7237 
  455000    108.51676   -7233.7424   -6672.2022   -473.46425     102002.7      46.7237      46.7237      46.7237 
  456000    109.01899   -7265.7262   -6701.5871   -759.11725     102002.7      46.7237      46.7237      46.7237 
  457000    109.30007   -7243.5532   -6677.9596   -760.26799     102002.7      46.7237      46.7237      46.7237 
  458000    107.38215   -7239.5855   -6683.9166   -800.94196     102002.7      46.7237      46.7237      46.7237 
  459000    113.47815   -7239.0239   -6651.8101   -772.51535     102002.7      46.7237      46.7237      46.7237 
  460000    108.29427   -7247.0749    -6686.686    -724.5739     102002.7      46.7237      46.7237      46.7237 
  461000    110.13746   -7248.2699    -6678.343   -542.18257     102002.7      46.7237      46.7237      46.7237 
  462000    112.65193   -7248.7019   -6665.7635   -600.78896     102002.7      46.7237      46.7237      46.7237 
  463000    106.02629   -7241.4295   -6692.7767   -808.15512     102002.7      46.7237      46.7237      46.7237 
  464000    111.58424   -7240.4326   -6663.0192    -722.8491     102002.7      46.7237      46.7237      46.7237 
  465000    108.25399   -7235.7161   -6675.5357   -699.76204     102002.7      46.7237      46.7237      46.7237 
  466000    104.69542   -7246.1927   -6704.4267   -680.68387     102002.7      46.7237      46.7237      46.7237 
  467000    112.28875    -7262.708   -6681.6489   -732.42952     102002.7      46.7237      46.7237      46.7237 
  468000    109.94823   -7256.2961   -6687.3485   -702.08143     102002.7      46.7237      46.7237      46.7237 
  469000    107.84432   -7233.8903   -6675.8298   -824.28198     102002.7      46.7237      46.7237      46.7237 
  470000    106.55752   -7261.2089   -6709.8071   -647.64521     102002.7      46.7237      46.7237      46.7237 
  471000    112.06716   -7250.5297   -6670.6173   -609.50199     102002.7      46.7237      46.7237      46.7237 
  472000    109.24484   -7252.1685   -6686.8608   -977.65933     102002.7      46.7237      46.7237      46.7237 
  473000    105.26604   -7236.6601   -6691.9413   -648.50042     102002.7      46.7237      46.7237      46.7237 
  474000    110.69961   -7256.1297    -6683.294   -1016.2106     102002.7      46.7237      46.7237      46.7237 
  475000    108.68365   -7235.4658    -6673.062   -654.31872     102002.7      46.7237      46.7237      46.7237 
  476000    111.56802   -7260.8318   -6683.5024   -629.38253     102002.7      46.7237      46.7237      46.7237 
  477000    105.50461    -7252.507   -6706.5537   -641.89426     102002.7      46.7237      46.7237      46.7237 
  478000      109.207    -7232.818    -6667.706   -668.93784     102002.7      46.7237      46.7237      46.7237 
  479000    112.11173   -7230.2415   -6650.0985   -648.49231     102002.7      46.7237      46.7237      46.7237 
  480000    109.74493   -7253.1391   -6685.2435   -772.74168     102002.7      46.7237      46.7237      46.7237 
  481000    109.45151   -7241.6193   -6675.2421   -875.47223     102002.7      46.7237      46.7237      46.7237 
  482000    111.59604   -7241.1766   -6663.7021   -769.90684     102002.7      46.7237      46.7237      46.7237 
  483000    109.69967   -7263.7221   -6696.0607   -868.00418     102002.7      46.7237      46.7237      46.7237 
  484000    110.53556   -7245.9173   -6673.9304   -668.95119     102002.7      46.7237      46.7237      46.7237 
  485000    107.88275   -7270.6773   -6712.4179   -663.39466     102002.7      46.7237      46.7237      46.7237 
  486000    110.54313   -7250.2497   -6678.2237   -768.94062     102002.7      46.7237      46.7237      46.7237 
  487000    111.38595   -7232.0732   -6655.6858    -785.8951     102002.7      46.7237      46.7237      46.7237 
  488000    110.05492   -7248.8755   -6679.3758   -644.84482     102002.7      46.7237      46.7237      46.7237 
  489000    108.57873    -7257.624   -6695.7632    -663.4949     102002.7      46.7237      46.7237      46.7237 
  490000    106.75541   -7240.4683   -6688.0426    -743.5441     102002.7      46.7237      46.7237      46.7237 
  491000    108.30248   -7231.2719   -6670.8406   -576.76112     102002.7      46.7237      46.7237      46.7237 
  492000    111.53156   -7253.5901   -6676.4493   -780.56395     102002.7      46.7237      46.7237      46.7237 
  493000     110.4287   -7249.5212   -6678.0873   -466.31145     102002.7      46.7237      46.7237      46.7237 
  494000      109.731   -7269.7532   -6701.9298   -827.85098     102002.7      46.7237      46.7237      46.7237 
  495000    111.35176   -7253.9544    -6677.744   -844.85489     102002.7      46.7237      46.7237      46.7237 
  496000    106.85436   -7242.5306   -6689.5928   -1132.6376     102002.7      46.7237      46.7237      46.7237 
  497000    110.92295   -7235.4218   -6661.4303    -521.5678     102002.7      46.7237      46.7237      46.7237 
  498000    107.03115   -7233.6098   -6679.7572   -535.05348     102002.7      46.7237      46.7237      46.7237 
  499000    111.98959   -7240.4788   -6660.9678   -728.51302     102002.7      46.7237      46.7237      46.7237 
  500000    108.47052   -7228.4707   -6667.1698   -718.92343     102002.7      46.7237      46.7237      46.7237 
  500504    108.79614   -7250.2247   -6687.2388   -730.95315     102002.7      46.7237      46.7237      46.7237 
Loop time of 574.421 on 24 procs for 500000 steps with 1737 atoms

Performance: 75.206 ns/day, 0.319 hours/ns, 870.442 timesteps/s
99.9% CPU use with 24 MPI tasks x no OpenMP threads

MPI task timing breakdown:
Section |  min time  |  avg time  |  max time  |%varavg| %total
---------------------------------------------------------------
Pair    | 181.74     | 276.43     | 390.02     | 314.5 | 48.12
Bond    | 74.495     | 78.56      | 82.625     |  23.0 | 13.68
Neigh   | 1.7078     | 1.7272     | 1.7412     |   0.9 |  0.30
Comm    | 93.27      | 210.54     | 305.63     | 363.3 | 36.65
Output  | 0.3243     | 0.32457    | 0.32816    |   0.1 |  0.06
Modify  | 3.2971     | 3.8404     | 4.2149     |  12.8 |  0.67
Other   |            | 2.996      |            |       |  0.52

Nlocal:    72.375 ave 96 max 56 min
Histogram: 1 2 5 8 1 1 2 1 2 1
Nghost:    1976.54 ave 2128 max 1883 min
Histogram: 7 9 0 0 0 0 0 0 0 8
Neighs:    7634.92 ave 11024 max 4412 min
Histogram: 1 4 2 4 1 4 2 1 2 3

Total # of neighbors = 183238
Ave neighs/atom = 105.491
Ave special neighs/atom = 6.63212
Neighbor list builds = 3204
Dangerous builds = 0
Neighbor list info ...
  update every 1 steps, delay 10 steps, check yes
  max neighbors/atom: 2000, page size: 100000
  master list distance cutoff = 16
  ghost atom cutoff = 16
  binsize = 8, bins = 6 6 6
  3 neighbor lists, perpetual/occasional/extra = 3 0 0
  (1) pair buck6d/coul/gauss/dsf, perpetual, skip from (3)
      attributes: half, newton on
      pair build: skip
      stencil: none
      bin: none
  (2) pair lj/cut, perpetual, skip from (3)
      attributes: half, newton on
      pair build: skip
      stencil: none
      bin: none
  (3) neighbor class addition, perpetual
      attributes: half, newton on
      pair build: half/bin/newton
      stencil: half/bin/3d/newton
      bin: standard
Setting up Verlet run ...
  Unit style    : real
  Current step  : 500504
  Time step     : 1
WARNING: Inconsistent image flags (../domain.cpp:786)
Per MPI rank memory allocation (min/avg/max) = 24.11 | 24.48 | 24.57 Mbytes
Step Time TotEng KinEng PotEng E_mol E_pair Temp Pxx Pyy Pzz Pxy Pxz Pyz Cella Cellb Cellc CellAlpha CellBeta CellGamma Volume Press 
  500504       500000   -6687.2388     562.9859   -7250.2247    4325.0692   -11575.294    108.79614   -817.34575   -951.00499    -424.5087   -222.72935   -27.093671   -93.842693      46.7237      46.7237      46.7237           90           90           90     102002.7   -730.95315 
  501000       500496   -6689.5899    558.25034   -7247.8402    4321.7927   -11569.633      107.881     -1166.67   -456.70415   -1011.2043   -59.092807    145.03113    209.85812      46.7237      46.7237      46.7237           90           90           90     102002.7    -878.1928 
  502000       501496    -6656.579     582.1925   -7238.7715    4321.7565   -11560.528    112.50779   -465.41018   -962.34884   -579.56805    101.47165    97.126364   -18.227841      46.7237      46.7237      46.7237           90           90           90     102002.7   -669.10902 
  503000       502496   -6691.9493    557.19484   -7249.1441    4323.5133   -11572.657    107.67703   -859.15128   -1003.2273   -937.73725   -5.4486505    229.76542     259.8416      46.7237      46.7237      46.7237           90           90           90     102002.7   -933.37196 
  504000       503496   -6681.0944    576.79034   -7257.8847    4295.7729   -11553.658    111.46383    -1002.392   -483.25413   -765.21644   -22.035715    -50.96743   -34.940557      46.7237      46.7237      46.7237           90           90           90     102002.7   -750.28752 
  505000       504496   -6661.9134    567.67811   -7229.5915    4336.5438   -11566.135     109.7029   -677.58822   -708.86821   -890.89441    117.74023    -281.5217    184.67324      46.7237      46.7237      46.7237           90           90           90     102002.7   -759.11695 
  506000       505496    -6652.742    591.64774   -7244.3898    4300.1717   -11544.562      114.335   -542.52591   -840.44958    -1090.364   -98.763201    34.087731    53.929365      46.7237      46.7237      46.7237           90           90           90     102002.7   -824.44649 
  507000       506496   -6690.4045    555.54589   -7245.9504    4323.7253   -11569.676    107.35837   -1099.8044   -880.44316    -411.9485     43.43864    25.965919   -154.15939      46.7237      46.7237      46.7237           90           90           90     102002.7   -797.39868 
  508000       507496   -6661.3127    567.28681   -7228.5995     4333.474   -11562.073    109.62729   -304.17521   -811.23106   -564.26134   -221.83637   -294.28904    20.444915      46.7237      46.7237      46.7237           90           90           90     102002.7   -559.88921 
  509000       508496   -6669.6566    549.40497   -7219.0616    4345.7704   -11564.832    106.17165   -332.41578   -555.77635   -905.04722    44.611186   -45.588368   -310.34872      46.7237      46.7237      46.7237           90           90           90     102002.7   -597.74645 
  510000       509496   -6695.5721    570.26429   -7265.8364    4298.9526   -11564.789    110.20268   -864.59173   -1187.5467   -630.69225   -58.263073   -83.103579   -172.77887      46.7237      46.7237      46.7237           90           90           90     102002.7   -894.27688 
  511000       510496   -6679.0878     577.7553   -7256.8431    4295.0289   -11551.872    111.65031    -653.2705   -563.84428   -501.80146   -194.63544    80.717516    87.969048      46.7237      46.7237      46.7237           90           90           90     102002.7   -572.97208 
  512000       511496   -6671.6296    572.86735   -7244.4969    4323.4078   -11567.905    110.70572   -841.69222   -720.57689   -811.75531    69.950083    230.41968     65.74762      46.7237      46.7237      46.7237           90           90           90     102002.7   -791.34147 
  513000       512496   -6674.5999    553.66449   -7228.2644    4332.6524   -11560.917    106.99479   -421.16874   -796.71464   -946.04344   -240.16073   -106.36134    9.6639801      46.7237      46.7237      46.7237           90           90           90     102002.7   -721.30894 
  514000       513496   -6654.9264    576.19506   -7231.1215      4335.28   -11566.401    111.34879   -684.35003   -594.74617   -705.48572    19.906448    65.339868     9.662129      46.7237      46.7237      46.7237           90           90           90     102002.7   -661.52731 
  515000       514496   -6693.4553    568.76206   -7262.2174    4306.4296   -11568.647    109.91238   -728.16464   -534.69461   -742.39063    337.96831   -58.193732   -6.8823255      46.7237      46.7237      46.7237           90           90           90     102002.7   -668.41663 
  516000       515496   -6669.5525    573.61687   -7243.1693    4324.4414   -11567.611    110.85056   -443.67814   -488.89577   -1170.0442   -5.2966683    188.64433   -67.928082      46.7237      46.7237      46.7237           90           90           90     102002.7   -700.87271 
  517000       516496   -6711.8595    562.84989   -7274.7094     4295.245   -11569.954    108.76986   -800.95542   -780.53141   -682.35487   -99.097323   -205.06299   -98.828971      46.7237      46.7237      46.7237           90           90           90     102002.7    -754.6139 
  518000       517496    -6676.981    546.55902     -7223.54    4337.3923   -11560.932    105.62167   -738.58615   -1002.0951   -341.19579    29.697077   -31.436661   -57.328318      46.7237      46.7237      46.7237           90           90           90     102002.7   -693.95902 
  519000       518496   -6646.5592    595.79244   -7242.3516    4327.5567   -11569.908    115.13595   -644.89451   -795.25625   -946.30654    45.570158    146.77937   -220.82205      46.7237      46.7237      46.7237           90           90           90     102002.7   -795.48576 
  520000       519496   -6688.9998    563.84093   -7252.8408    4306.1329   -11558.974    108.96137   -772.16231   -168.67777   -366.10105    160.08823    150.95107   -26.841054      46.7237      46.7237      46.7237           90           90           90     102002.7   -435.64704 
  521000       520496   -6689.5648    570.58812   -7260.1529    4309.6935   -11569.846    110.26526   -657.03141    -619.1235   -591.02894   -264.24971    90.681518    185.95174      46.7237      46.7237      46.7237           90           90           90     102002.7   -622.39462 
  522000       521496   -6694.6236     572.9455   -7267.5691    4294.6786   -11562.248    110.72082   -754.79797   -257.76926   -784.97558   -5.7254022   -90.265271    118.32871      46.7237      46.7237      46.7237           90           90           90     102002.7   -599.18094 
  523000       522496   -6660.2925     566.3692   -7226.6617    4333.9672   -11560.629    109.44996   -366.71363   -496.47088    -846.1251   -68.381058    331.74819    13.897469      46.7237      46.7237      46.7237           90           90           90     102002.7   -569.76987 
  524000       523496   -6681.2718    567.96277   -7249.2346    4317.0268   -11566.261    109.75792   -140.80311   -237.78799   -533.45794   -43.502526    -90.27505    119.91002      46.7237      46.7237      46.7237           90           90           90     102002.7   -304.01635 
  525000       524496   -6657.4136    572.68176   -7230.0953    4324.4089   -11554.504    110.66985   -726.24281   -745.00671   -547.36173     338.0053   -171.25978   -55.091079      46.7237      46.7237      46.7237           90           90           90     102002.7   -672.87042 
  526000       525496   -6694.2121    570.19234   -7264.4044    4307.4747   -11571.879    110.18878   -641.51688   -792.55501   -1306.7724    59.363582   -31.384505    71.483155      46.7237      46.7237      46.7237           90           90           90     102002.7   -913.61477 
  527000       526496   -6660.5878    570.96203   -7231.5498    4322.0075   -11553.557    110.33752    -740.1738   -561.94841   -722.89861   -174.03156   -174.96812    45.201278      46.7237      46.7237      46.7237           90           90           90     102002.7   -675.00694 
  528000       527496   -6686.5971    572.99317   -7259.5902    4305.8739   -11565.464    110.73003   -520.23109   -1111.1558   -655.78044   -52.787676   -270.28247    123.06577      46.7237      46.7237      46.7237           90           90           90     102002.7    -762.3891 
  529000       528496   -6703.9588     563.8695   -7267.8284    4296.1334   -11563.962     108.9669   -457.89165   -276.43401   -760.47251   -96.690387     45.03565    32.697246      46.7237      46.7237      46.7237           90           90           90     102002.7   -498.26606 
  530000       529496   -6665.5081    573.96676   -7239.4749    4325.4217   -11564.897    110.91818   -424.31088   -630.41332   -1054.4606   -266.07132    345.59041    127.60603      46.7237      46.7237      46.7237           90           90           90     102002.7   -703.06159 
  531000       530496    -6663.607    568.30488   -7231.9118    4324.8005   -11556.712    109.82403   -651.79401   -755.95934    -729.9151    43.228545    167.94825   -111.33486      46.7237      46.7237      46.7237           90           90           90     102002.7   -712.55615 
  532000       531496   -6663.0356    580.37786   -7243.4135    4320.3244   -11563.738    112.15711    -349.6907   -197.67348   -571.06202    110.52866    42.440061   -175.24422      46.7237      46.7237      46.7237           90           90           90     102002.7   -372.80873 
  533000       532496   -6650.7601     578.4375   -7229.1976    4348.6015   -11577.799    111.78214    -870.8932   -855.74535   -506.44648   -244.91397    -61.32341   -133.70799      46.7237      46.7237      46.7237           90           90           90     102002.7   -744.36168 
  534000       533496   -6687.4381    563.11478   -7250.5529    4302.5468     -11553.1    108.82105   -567.07957   -910.27893    -543.8583    26.983013   -159.96705     78.84148      46.7237      46.7237      46.7237           90           90           90     102002.7   -673.73894 
  535000       534496   -6649.1794    583.36253   -7232.5419    4337.2859   -11569.828    112.73389   -346.96178   -1510.5165   -909.49739    29.611254     111.2136   -281.51869      46.7237      46.7237      46.7237           90           90           90     102002.7   -922.32521 
  536000       535496   -6668.3737    570.58775   -7238.9614    4300.8249   -11539.786    110.26519   -775.56322   -204.24199   -609.55724    42.955265    239.41799   -48.650791      46.7237      46.7237      46.7237           90           90           90     102002.7   -529.78748 
  537000       536496   -6686.7258    556.74473   -7243.4705    4323.1209   -11566.591    107.59005   -456.46865    -991.3678   -426.37716   -156.16437    232.86351   -6.9546772      46.7237      46.7237      46.7237           90           90           90     102002.7   -624.73787 
  538000       537496   -6664.7996    568.52088   -7233.3205    4324.1067   -11557.427    109.86577   -798.24528   -704.00836   -565.47742   -53.481764   -37.834084   -327.53947      46.7237      46.7237      46.7237           90           90           90     102002.7   -689.24368 
  539000       538496   -6699.4258    566.98736   -7266.4132     4304.024   -11570.437    109.56942   -814.27763   -553.46846   -830.30814    166.33953    256.51632   -177.02648      46.7237      46.7237      46.7237           90           90           90     102002.7   -732.68474 
  540000       539496   -6689.4639    558.11236   -7247.5762    4314.8794   -11562.456    107.85434    -786.2786   -525.35422   -919.60432    134.54109    326.83276    63.037353      46.7237      46.7237      46.7237           90           90           90     102002.7   -743.74571 
  541000       540496   -6655.9316    586.51003   -7242.4416    4338.4896   -11580.931    113.34214   -904.73896   -665.40364   -613.18957    117.17883   -300.20773   -47.047206      46.7237      46.7237      46.7237           90           90           90     102002.7   -727.77739 
  542000       541496   -6681.3269    576.57403   -7257.9009     4299.349    -11557.25    111.42203   -998.98127   -405.62108   -986.43847    52.916052     104.4643   -119.88098      46.7237      46.7237      46.7237           90           90           90     102002.7   -797.01361 
  543000       542496   -6662.8745    582.26429   -7245.1388    4328.4787   -11573.618    112.52166   -607.17952   -777.31894   -710.80717   -257.51667   -26.978334    119.53318      46.7237      46.7237      46.7237           90           90           90     102002.7   -698.43521 
  544000       543496   -6656.0781    583.05073   -7239.1289    4323.9123   -11563.041    112.67364   -636.83083    -454.8258   -532.92211    165.57171   -226.06487    249.05869      46.7237      46.7237      46.7237           90           90           90     102002.7   -541.52624 
  545000       544496   -6688.3719    575.48437   -7263.8563    4306.9702   -11570.827    111.21145   -572.48147   -563.62556   -599.24997    43.805796   -58.143776   -74.105236      46.7237      46.7237      46.7237           90           90           90     102002.7   -578.45233 
  546000       545496   -6684.2392    564.38186    -7248.621    4315.3137   -11563.935    109.06591   -659.80613   -1082.7562   -890.45624    -157.9528    7.0434287    125.68327      46.7237      46.7237      46.7237           90           90           90     102002.7   -877.67285 
  547000       546496   -6661.4197    575.68874   -7237.1085    4316.0753   -11553.184    111.25095   -511.31417    -472.5009   -630.62041    359.22131   -246.75438    117.06429      46.7237      46.7237      46.7237           90           90           90     102002.7   -538.14516 
  548000       547496    -6694.019    567.05637   -7261.0754    4302.8651    -11563.94    109.58275   -719.46699   -77.440409   -788.71166    122.33564   -69.167517   -34.488483      46.7237      46.7237      46.7237           90           90           90     102002.7   -528.53968 
  549000       548496   -6683.7474    567.72917   -7251.4765    4302.2959   -11553.772    109.71277   -642.69916   -1002.3948   -1055.3929    61.361645    -51.21855    140.19696      46.7237      46.7237      46.7237           90           90           90     102002.7   -900.16231 
  550000       549496   -6677.7628    578.43243   -7256.1952    4320.7764   -11576.972    111.78116   -769.91588   -1021.2474   -559.58576   -74.910009    212.43074    13.124789      46.7237      46.7237      46.7237           90           90           90     102002.7   -783.58302 
  551000       550496   -6676.4225    573.20417   -7249.6267    4297.6857   -11547.312    110.77081   -930.32873   -664.46082   -941.24296    274.38166    144.39831    29.940305      46.7237      46.7237      46.7237           90           90           90     102002.7   -845.34417 
  552000       551496   -6685.7797    565.98153   -7251.7613    4323.6756   -11575.437    109.37504   -786.52525   -1020.7057   -883.71064    3.1598544    122.90826     197.7544      46.7237      46.7237      46.7237           90           90           90     102002.7   -896.98053 
  553000       552496   -6677.3348    570.52773   -7247.8625    4321.9929   -11569.855    110.25359   -1449.3095    -1247.244   -529.50721    31.337498   -114.32543   -151.89862      46.7237      46.7237      46.7237           90           90           90     102002.7   -1075.3535 
  554000       553496   -6687.6866    567.84033   -7255.5269    4315.3173   -11570.844    109.73425   -821.98025   -1194.8372   -803.79115   -73.531811    149.69542    202.27649      46.7237      46.7237      46.7237           90           90           90     102002.7   -940.20286 
  555000       554496   -6655.8338     586.4543   -7242.2881    4336.3405   -11578.629    113.33137   -370.19282   -981.43085   -829.73159    12.956563    81.228975    93.307765      46.7237      46.7237      46.7237           90           90           90     102002.7   -727.11842 
[...]
  936000       935496   -6641.1638    581.58741   -7222.7513    4325.4277   -11548.179    112.39085   -789.92785   -486.67052    -685.1413    93.521754   -173.62152    148.67713      46.7237      46.7237      46.7237           90           90           90     102002.7   -653.91322 
  937000       936496   -6693.7099    562.32006     -7256.03    4316.4304    -11572.46    108.66747   -669.97929   -997.88245    -935.3839    289.45198    48.575189    94.939105      46.7237      46.7237      46.7237           90           90           90     102002.7   -867.74854 
  938000       937496   -6660.5834    581.37832   -7241.9617     4331.419   -11573.381    112.35045    -538.2198    -4.822852   -498.02503   -88.882595   -53.029295   -270.44721      46.7237      46.7237      46.7237           90           90           90     102002.7   -347.02256 
  939000       938496   -6689.5712    554.46626   -7244.0374    4319.7349   -11563.772    107.14973   -595.95229   -845.97986    -801.0868    133.81798    91.619405    74.353084      46.7237      46.7237      46.7237           90           90           90     102002.7   -747.67298 
  940000       939496   -6697.1433    560.76062   -7257.9039    4303.6826   -11561.586    108.36611   -660.23623   -889.34836   -716.98855   -34.319419    64.011556    69.638163      46.7237      46.7237      46.7237           90           90           90     102002.7   -755.52438 
  941000       940496   -6679.4925     577.8761   -7257.3686    4304.9509    -11562.32    111.67365   -827.88339    -756.8503     -728.497   -131.09703   -63.630943   -201.79861      46.7237      46.7237      46.7237           90           90           90     102002.7    -771.0769 
  942000       941496    -6662.625    572.41151   -7235.0365    4337.0413   -11572.078    110.61763   -293.85959   -684.29324    -961.9681   -61.909045   -83.631045   -122.17332      46.7237      46.7237      46.7237           90           90           90     102002.7   -646.70698 
  943000       942496   -6701.8005    551.42057   -7253.2211    4305.8483   -11559.069    106.56116   -555.73372   -657.91522   -1012.6659    -117.2407   -168.38885   -73.234034      46.7237      46.7237      46.7237           90           90           90     102002.7   -742.10494 
  944000       943496   -6673.3549    575.03431   -7248.3892    4321.7575   -11570.147    111.12448   -994.59708   -790.47583   -575.05708     68.18277    242.74275   -62.774871      46.7237      46.7237      46.7237           90           90           90     102002.7      -786.71 
  945000       944496   -6670.1193    571.88433   -7242.0036    4317.0942   -11559.098    110.51575   -1074.6827   -154.18977   -684.30087   -39.754674     340.6051      30.9657      46.7237      46.7237      46.7237           90           90           90     102002.7   -637.72445 
  946000       945496   -6687.3522    567.14414   -7254.4964    4302.5782   -11557.075    109.59972   -1091.9287   -678.31384   -913.16625   -62.460401    26.087613   -97.591993      46.7237      46.7237      46.7237           90           90           90     102002.7   -894.46961 
  947000       946496    -6675.841    564.89145   -7240.7325    4338.8573    -11579.59    109.16439   -435.40542   -477.19808   -1188.1554    -186.0158    19.433248    152.95388      46.7237      46.7237      46.7237           90           90           90     102002.7   -700.25296 
  948000       947496    -6670.229    576.26006   -7246.4891    4319.1997   -11565.689    111.36135   -606.71999   -1010.8641   -864.56041   -273.26742   -143.10866   -72.154247      46.7237      46.7237      46.7237           90           90           90     102002.7    -827.3815 
  949000       948496   -6686.8147    558.83921   -7245.6539    4309.3536   -11555.007     107.9948   -851.99512   -624.68689   -594.36418   -146.91535   -54.750052   -60.585357      46.7237      46.7237      46.7237           90           90           90     102002.7   -690.34873 
  950000       949496   -6699.6231    539.24682   -7238.8699    4333.7009   -11572.571     104.2086     -301.565   -546.27658   -1014.2341   -105.26749    92.363685    103.75675      46.7237      46.7237      46.7237           90           90           90     102002.7    -620.6919 
  951000       950496   -6671.0952    571.60399   -7242.6992    4316.0249   -11558.724    110.46157   -352.74207   -297.99815   -555.01318   -76.116934   -27.253912   -164.51318      46.7237      46.7237      46.7237           90           90           90     102002.7    -401.9178 
  952000       951496   -6706.5177    557.22243   -7263.7402     4310.835   -11574.575    107.68236   -415.20679   -693.88132   -771.04638    55.974184   -79.805403   -143.63908      46.7237      46.7237      46.7237           90           90           90     102002.7   -626.71149 
  953000       952496   -6669.9262    576.47278    -7246.399     4330.833   -11577.232    111.40246    -953.3828   -973.08519   -888.34734    6.8440627    74.483736   -328.96425      46.7237      46.7237      46.7237           90           90           90     102002.7   -938.27178 
  954000       953496   -6643.1903    584.37312   -7227.5634    4328.1543   -11555.718    112.92919   -838.64787   -343.59863   -478.67219    287.77854   -188.23856     216.0681      46.7237      46.7237      46.7237           90           90           90     102002.7   -553.63957 
  955000       954496   -6677.7153    561.13189   -7238.8472    4332.1181   -11570.965    108.43786   -292.10619   -680.06053   -853.40937    279.97194   -88.941227    210.78887      46.7237      46.7237      46.7237           90           90           90     102002.7   -608.52536 
  956000       955496   -6668.9691    575.97349   -7244.9426    4321.3039   -11566.246    111.30597   -239.63751   -572.23678   -1016.1573   -225.64511    275.08809    97.890817      46.7237      46.7237      46.7237           90           90           90     102002.7   -609.34387 
  957000       956496   -6678.5421    569.35092    -7247.893    4324.4433   -11572.336    110.02617   -609.17146   -711.37783   -104.13309   -113.14896    58.198327    72.845832      46.7237      46.7237      46.7237           90           90           90     102002.7   -474.89413 
  958000       957496   -6654.6448    572.62022    -7227.265    4344.5285   -11571.794    110.65796   -473.48028   -685.27791   -969.90905   -157.95985   -74.642338    112.97973      46.7237      46.7237      46.7237           90           90           90     102002.7   -709.55575 
  959000       958496   -6661.0379    588.78318   -7249.8211    4322.7054   -11572.527    113.78143   -946.89597   -530.47035   -679.77013   -101.74419   -82.296547    262.72177      46.7237      46.7237      46.7237           90           90           90     102002.7   -719.04548 
  960000       959496   -6663.9048    576.60131   -7240.5061    4310.7924   -11551.299     111.4273   -233.79885   -509.52278   -485.56226   -128.09461    176.67157    33.377097      46.7237      46.7237      46.7237           90           90           90     102002.7   -409.62796 
  961000       960496   -6677.9926    563.52236   -7241.5149    4312.4559   -11553.971    108.89981   -680.72906   -825.82541   -964.52102   -75.499467    3.9648072   -56.276039      46.7237      46.7237      46.7237           90           90           90     102002.7   -823.69183 
  962000       961496   -6682.2191    569.39472   -7251.6139    4326.7916   -11578.405    110.03464    -928.9626   -1002.3342   -727.18125   -52.808854    -44.65868    175.84038      46.7237      46.7237      46.7237           90           90           90     102002.7   -886.15934 
  963000       962496   -6635.2062    589.03259   -7224.2388    4343.8086   -11568.047    113.82962   -917.45886   -998.48654   -803.30073   -162.37908    83.857549   -138.48705      46.7237      46.7237      46.7237           90           90           90     102002.7   -906.41538 
  964000       963496   -6683.0604    563.49855    -7246.559    4309.2436   -11555.803    108.89521   -734.06606   -1085.2748    -729.6243    117.76029     72.17783    31.080033      46.7237      46.7237      46.7237           90           90           90     102002.7   -849.65505 
  965000       964496   -6660.3914    571.89906   -7232.2905    4332.5898    -11564.88     110.5186   -422.57097   -776.08984   -690.67876    61.561679   -21.896402    45.278343      46.7237      46.7237      46.7237           90           90           90     102002.7   -629.77986 
  966000       965496    -6676.155    555.59726   -7231.7523    4327.1475     -11558.9     107.3683   -1041.8526   -1129.0427   -985.22185    60.997417    213.33047    35.338563      46.7237      46.7237      46.7237           90           90           90     102002.7   -1052.0391 
  967000       966496     -6681.59     581.3857   -7262.9757    4289.5902   -11552.566    112.35187   -928.62626   -1090.4327   -480.50473   -197.87498    148.41573   -122.54356      46.7237      46.7237      46.7237           90           90           90     102002.7    -833.1879 
  968000       967496   -6667.7255    582.41961   -7250.1451    4316.8891   -11567.034    112.55168   -382.81801   -550.72347   -1024.6045   -161.13716   -74.440456    239.18299      46.7237      46.7237      46.7237           90           90           90     102002.7   -652.71531 
  969000       968496   -6686.0329    561.50164   -7247.5345    4316.4106   -11563.945    108.50931   -603.40186   -455.48453    -1017.449   -27.478995    205.01423    32.519723      46.7237      46.7237      46.7237           90           90           90     102002.7    -692.1118 
  970000       969496   -6670.7461    579.66117   -7250.4073    4315.9263   -11566.334    112.01861   -696.40663   -697.31873   -1185.7312    80.346562   -31.659365   -14.868711      46.7237      46.7237      46.7237           90           90           90     102002.7   -859.81885 
  971000       970496   -6679.8251    565.19672   -7245.0218    4325.7799   -11570.802    109.22338   -273.39288   -564.62404   -556.78287   -36.294624    68.374907    180.93358      46.7237      46.7237      46.7237           90           90           90     102002.7   -464.93326 
  972000       971496   -6708.4428    550.94498   -7259.3878    4307.0834   -11566.471    106.46925   -1077.1714    -612.6306   -782.28852    142.31128   -42.775735   -27.244523      46.7237      46.7237      46.7237           90           90           90     102002.7   -824.03018 
  973000       972496   -6674.3749    578.76087   -7253.1358    4298.3679   -11551.504    111.84463   -572.22356   -568.59708   -847.74897   -128.79494     5.072851   -26.160871      46.7237      46.7237      46.7237           90           90           90     102002.7   -662.85654 
  974000       973496    -6669.665    566.28314   -7235.9481    4332.9084   -11568.856    109.43333   -615.24163   -336.06702   -727.68021   -13.940892   -151.94331   -184.88664      46.7237      46.7237      46.7237           90           90           90     102002.7   -559.66295 
  975000       974496   -6700.7409    559.95894   -7260.6999    4308.1394   -11568.839    108.21119   -799.73349   -767.47287   -362.49944   -120.50191    68.297147   -75.424804      46.7237      46.7237      46.7237           90           90           90     102002.7   -643.23527 
  976000       975496   -6674.7205    566.08451    -7240.805    4301.1257   -11541.931    109.39494   -934.45897   -672.31289   -598.90168    25.508942    66.364466   -110.67149      46.7237      46.7237      46.7237           90           90           90     102002.7   -735.22451 
  977000       976496   -6687.4972    562.79867   -7250.2959    4316.6455   -11566.941    108.75996   -905.31399   -582.08725   -590.47458    31.846657   -109.64227    46.852045      46.7237      46.7237      46.7237           90           90           90     102002.7   -692.62527 
  978000       977496   -6693.3258    559.15447   -7252.4802    4299.8735   -11552.354    108.05572   -489.30406   -1160.7497   -997.50673   -249.35188   -306.78555   -107.85013      46.7237      46.7237      46.7237           90           90           90     102002.7   -882.52016 
  979000       978496   -6690.0812    557.42805   -7247.5092    4314.9663   -11562.475     107.7221    -930.9907   -914.78112   -573.11165    54.345318   -24.840432   -95.668342      46.7237      46.7237      46.7237           90           90           90     102002.7   -806.29449 
  980000       979496    -6620.286    579.84029   -7200.1263    4367.3661   -11567.492    112.05323    -822.5669   -801.69745   -1144.5399    71.411142    42.646032   -58.662166      46.7237      46.7237      46.7237           90           90           90     102002.7   -922.93475 
  981000       980496   -6678.1234    573.87452   -7251.9979    4322.7755   -11574.773    110.90035   -961.50218    -972.4156   -908.23874    64.375089  0.039162357     13.55164      46.7237      46.7237      46.7237           90           90           90     102002.7   -947.38551 
  982000       981496   -6667.7973    583.50595   -7251.3033    4329.1565    -11580.46    112.76161    -1142.594   -781.24886   -948.99253   -22.482242   -150.93925    6.3031291      46.7237      46.7237      46.7237           90           90           90     102002.7   -957.61179 
  983000       982496   -6652.3899    582.31693   -7234.7068    4319.9704   -11554.677    112.53183   -1222.3681    -805.3618    -1101.551   -60.775206    18.891615    190.45678      46.7237      46.7237      46.7237           90           90           90     102002.7   -1043.0937 
  984000       983496   -6691.3803    572.07694   -7263.4572    4306.9897   -11570.447    110.55297   -633.88968   -1066.7969   -975.27337   -146.08968    65.680145   -148.91196      46.7237      46.7237      46.7237           90           90           90     102002.7   -891.98666 
  985000       984496   -6683.7906    575.49933   -7259.2899    4299.1396   -11558.429    111.21434   -711.14048   -844.79955   -1071.7545   -39.541124    14.224586    122.01083      46.7237      46.7237      46.7237           90           90           90     102002.7   -875.89817 
  986000       985496   -6670.6698    569.23292   -7239.9027    4321.2843   -11561.187    110.00337   -678.96286   -894.96004   -1166.5068   -199.88172   -62.601339   -32.843467      46.7237      46.7237      46.7237           90           90           90     102002.7   -913.47657 
  987000       986496   -6658.3912    578.30352   -7236.6947    4334.5203   -11571.215    111.75625   -699.34233   -932.61334   -992.56137    132.04046   -122.44908   -320.13777      46.7237      46.7237      46.7237           90           90           90     102002.7   -874.83901 
  988000       987496   -6689.8247    566.60427    -7256.429    4299.4368   -11555.866    109.49539   -292.95831   -732.41768   -492.24911    46.812482    127.46337   -5.0277323      46.7237      46.7237      46.7237           90           90           90     102002.7   -505.87504 
  989000       988496    -6658.906    582.98226   -7241.8883     4328.469   -11570.357    112.66041   -900.41479   -679.02989   -991.15538    62.419042    274.67423   -59.794669      46.7237      46.7237      46.7237           90           90           90     102002.7   -856.86669 
  990000       989496   -6672.9877    572.81417   -7245.8019    4331.5026   -11577.305    110.69544   -578.54108   -354.06969   -670.52908    35.557157   -206.13113   -317.09127      46.7237      46.7237      46.7237           90           90           90     102002.7   -534.37995 
  991000       990496   -6698.7315    557.66257    -7256.394    4300.1692   -11556.563    107.76742   -356.75459   -883.34346   -289.64605    -151.0115   -228.80779   -63.972787      46.7237      46.7237      46.7237           90           90           90     102002.7    -509.9147 
  992000       991496   -6664.7875    572.28846   -7237.0759    4333.2706   -11570.346    110.59385   -592.97508   -301.89036   -652.52707    51.991058    135.14286    -114.6022      46.7237      46.7237      46.7237           90           90           90     102002.7    -515.7975 
  993000       992496   -6689.6149    546.17498   -7235.7899    4317.3138   -11553.104    105.54746   -369.86168   -269.42938   -507.63179    134.29583   -97.355886   -210.34856      46.7237      46.7237      46.7237           90           90           90     102002.7   -382.30762 
  994000       993496   -6664.1555     578.7217   -7242.8772     4314.049   -11556.926    111.83706   -479.79581   -523.00689   -833.42222    -58.13384   -125.52287   -116.64328      46.7237      46.7237      46.7237           90           90           90     102002.7   -612.07498 
  995000       994496    -6717.507    544.02117   -7261.5282    4295.7905   -11557.319    105.13124   -861.28402   -694.29137   -902.81236    55.287569   -205.14065   -153.66678      46.7237      46.7237      46.7237           90           90           90     102002.7   -819.46258 
  996000       995496    -6655.131    577.88873   -7233.0197    4324.6451   -11557.665    111.67609   -273.40926   -436.91723   -507.98205   -55.821057   -118.95721    203.29062      46.7237      46.7237      46.7237           90           90           90     102002.7   -406.10284 
  997000       996496   -6689.3314    545.93857     -7235.27    4316.3976   -11551.668    105.50177   -774.62173   -868.79705   -1024.0216   -10.038283   -148.41246    20.007928      46.7237      46.7237      46.7237           90           90           90     102002.7   -889.14681 
  998000       997496   -6663.8065    581.40915   -7245.2157    4303.7176   -11548.933    112.35641   -1557.8856   -551.18954   -757.84424     100.7147    278.84924   -44.814482      46.7237      46.7237      46.7237           90           90           90     102002.7   -955.63979 
  999000       998496   -6696.0891    557.53238   -7253.6215    4320.0652   -11573.687    107.74226   -598.99437   -958.68071   -1201.3372    98.728683    -62.94653   -26.736353      46.7237      46.7237      46.7237           90           90           90     102002.7   -919.67078 
 1000000       999496   -6673.0046    562.72237   -7235.7269    4327.8923   -11563.619    108.74521   -764.17413   -695.85558   -436.70075      45.1901    -225.5832    172.27905      46.7237      46.7237      46.7237           90           90           90     102002.7   -632.24349 
 1000504      1000000   -6649.4743    570.39431   -7219.8686    4347.0276   -11566.896    110.22781   -815.76344   -867.09908   -898.68623   -45.299843   -234.15986   -53.124039      46.7237      46.7237      46.7237           90           90           90     102002.7   -860.51625 
Loop time of 624.58 on 24 procs for 500000 steps with 1737 atoms

Performance: 69.167 ns/day, 0.347 hours/ns, 800.538 timesteps/s
99.9% CPU use with 24 MPI tasks x no OpenMP threads

MPI task timing breakdown:
Section |  min time  |  avg time  |  max time  |%varavg| %total
---------------------------------------------------------------
Pair    | 201.76     | 305.45     | 422.06     | 314.9 | 48.90
Bond    | 77.523     | 82.712     | 88.04      |  22.7 | 13.24
Neigh   | 1.6858     | 1.7045     | 1.719      |   0.9 |  0.27
Comm    | 101.67     | 219.47     | 324.16     | 372.5 | 35.14
Output  | 0.34841    | 0.40348    | 0.40604    |   1.8 |  0.06
Modify  | 11.274     | 11.861     | 12.382     |   7.8 |  1.90
Other   |            | 2.988      |            |       |  0.48

Nlocal:    72.375 ave 99 max 49 min
Histogram: 2 0 2 5 7 3 1 1 1 2
Nghost:    1968.42 ave 2124 max 1871 min
Histogram: 9 5 2 0 0 0 0 0 2 6
Neighs:    7634.46 ave 12655 max 4706 min
Histogram: 2 8 2 3 3 1 0 3 1 1

Total # of neighbors = 183227
Ave neighs/atom = 105.485
Ave special neighs/atom = 6.63212
Neighbor list builds = 3178
Dangerous builds = 0
Total wall time: 0:20:00
