LAMMPS (30 Mar 2018)
Reading data file ...
  orthogonal box = (0 0 0) to (46.7237 46.7237 46.7237)
  2 by 2 by 4 MPI processor grid
  reading atoms ...
  1744 atoms
  scanning bonds ...
  5 = max bonds/atom
  scanning angles ...
  10 = max angles/atom
  scanning dihedrals ...
  32 = max dihedrals/atom
  scanning impropers ...
  3 = max impropers/atom
  reading bonds ...
  2064 bonds
  reading angles ...
  3696 angles
  reading dihedrals ...
  6240 dihedrals
  reading impropers ...
  1008 impropers
Finding 1-2 1-3 1-4 neighbors ...
  special bond factors lj:   0          0          0         
  special bond factors coul: 0          0          0         
  5 = max # of 1-2 neighbors
  8 = max # of 1-3 neighbors
  20 = max # of 1-4 neighbors
  19 = max # of special neighbors
Finding 1-2 1-3 1-4 neighbors ...
  special bond factors lj:   0          0          1         
  special bond factors coul: 1          1          1         
  5 = max # of 1-2 neighbors
  8 = max # of 1-3 neighbors
  19 = max # of special neighbors
WARNING: Using 'neigh_modify every 1 delay 0 check yes' setting during minimization (../min.cpp:168)
Neighbor list info ...
  update every 1 steps, delay 0 steps, check yes
  max neighbors/atom: 2000, page size: 100000
  master list distance cutoff = 16
  ghost atom cutoff = 16
  binsize = 8, bins = 6 6 6
  3 neighbor lists, perpetual/occasional/extra = 3 0 0
  (1) pair buck6d/coul/gauss/dsf, perpetual, skip from (3)
      attributes: half, newton on
      pair build: skip
      stencil: none
      bin: none
  (2) pair lj/cut, perpetual, skip from (3)
      attributes: half, newton on
      pair build: skip
      stencil: none
      bin: none
  (3) neighbor class addition, perpetual
      attributes: half, newton on
      pair build: half/bin/newton
      stencil: half/bin/3d/newton
      bin: standard
Setting up cg style minimization ...
  Unit style    : real
  Current step  : 0
WARNING: Inconsistent image flags (../domain.cpp:786)
Per MPI rank memory allocation (min/avg/max) = 22.89 | 23.35 | 23.79 Mbytes
Step Temp E_pair E_mol TotEng Press 
       0            0   -11561.693    6482.8914    -5078.802    6266.1437 
     505            0   -11589.967    3738.4198   -7851.5471   -516.75573 
Loop time of 2.68125 on 16 procs for 505 steps with 1744 atoms

99.8% CPU use with 16 MPI tasks x no OpenMP threads

Minimization stats:
  Stopping criterion = max force evaluations
  Energy initial, next-to-last, final = 
        -5078.80196794     -7851.54327597     -7851.54706948
  Force two-norm initial, final = 2576.89 2.97177
  Force max component initial, final = 151.98 0.269541
  Final line search alpha, max atom move = 0.019671 0.00530213
  Iterations, force evaluations = 505 1001

MPI task timing breakdown:
Section |  min time  |  avg time  |  max time  |%varavg| %total
---------------------------------------------------------------
Pair    | 1.2352     | 1.5791     | 1.9814     |  16.8 | 58.90
Bond    | 0.29899    | 0.35999    | 0.4193     |   6.6 | 13.43
Neigh   | 0.011139   | 0.011268   | 0.011477   |   0.1 |  0.42
Comm    | 0.29546    | 0.6913     | 1.0661     |  25.0 | 25.78
Output  | 0          | 0          | 0          |   0.0 |  0.00
Modify  | 0          | 0          | 0          |   0.0 |  0.00
Other   |            | 0.03956    |            |       |  1.48

Nlocal:    109 ave 123 max 95 min
Histogram: 1 2 0 4 3 0 1 1 3 1
Nghost:    2200.25 ave 2217 max 2186 min
Histogram: 3 1 1 2 2 1 3 1 1 1
Neighs:    11437.9 ave 14348 max 8109 min
Histogram: 3 0 3 0 1 1 1 1 2 4

Total # of neighbors = 183006
Ave neighs/atom = 104.935
Ave special neighs/atom = 6.6055
Neighbor list builds = 9
Dangerous builds = 0
Neighbor list info ...
  update every 1 steps, delay 10 steps, check yes
  max neighbors/atom: 2000, page size: 100000
  master list distance cutoff = 16
  ghost atom cutoff = 16
  binsize = 8, bins = 6 6 6
  3 neighbor lists, perpetual/occasional/extra = 3 0 0
  (1) pair buck6d/coul/gauss/dsf, perpetual, skip from (3)
      attributes: half, newton on
      pair build: skip
      stencil: none
      bin: none
  (2) pair lj/cut, perpetual, skip from (3)
      attributes: half, newton on
      pair build: skip
      stencil: none
      bin: none
  (3) neighbor class addition, perpetual
      attributes: half, newton on
      pair build: half/bin/newton
      stencil: half/bin/3d/newton
      bin: standard
Setting up Verlet run ...
  Unit style    : real
  Current step  : 505
  Time step     : 1
WARNING: Inconsistent image flags (../domain.cpp:786)
Per MPI rank memory allocation (min/avg/max) = 22.54 | 22.65 | 23.01 Mbytes
Step Temp PotEng TotEng Press Volume Lx Ly Lz 
     505           91   -7851.5471   -7378.7518   -304.87364     102002.7      46.7237      46.7237      46.7237 
    1000    81.137295   -7437.2086   -7015.6555   -758.37235     102002.7      46.7237      46.7237      46.7237 
    2000    89.145736   -7346.5499   -6883.3886   -664.66045     102002.7      46.7237      46.7237      46.7237 
    3000    87.976195   -7363.0591   -6905.9742   -971.94922     102002.7      46.7237      46.7237      46.7237 
    4000    91.121394   -7374.6961   -6901.2702   -532.99074     102002.7      46.7237      46.7237      46.7237 
    5000    90.528605   -7356.7901    -6886.444   -755.95595     102002.7      46.7237      46.7237      46.7237 
    6000    88.860622   -7369.5486   -6907.8686   -718.62708     102002.7      46.7237      46.7237      46.7237 
    7000    91.279864    -7374.643   -6900.3937     -543.699     102002.7      46.7237      46.7237      46.7237 
    8000    93.630918   -7363.6453    -6877.181   -522.34679     102002.7      46.7237      46.7237      46.7237 
    9000    91.767038   -7383.1705   -6906.3901   -590.04949     102002.7      46.7237      46.7237      46.7237 
   10000    93.437066   -7372.1836   -6886.7264   -645.44332     102002.7      46.7237      46.7237      46.7237 
   11000    89.024825   -7359.3057   -6896.7727   -848.27232     102002.7      46.7237      46.7237      46.7237 
   12000    92.608365   -7366.3805    -6885.229     -555.961     102002.7      46.7237      46.7237      46.7237 
   13000    90.598523   -7382.1879   -6911.4786   -727.47488     102002.7      46.7237      46.7237      46.7237 
   14000    90.194631   -7385.8728   -6917.2619    -843.2109     102002.7      46.7237      46.7237      46.7237 
   15000    89.034382   -7358.6657    -6896.083   -646.39487     102002.7      46.7237      46.7237      46.7237 
   16000    90.646765   -7373.7017   -6902.7417   -613.01515     102002.7      46.7237      46.7237      46.7237 
   17000    93.225405     -7363.01   -6878.6526   -625.48369     102002.7      46.7237      46.7237      46.7237 
   18000    87.030194   -7366.2189    -6914.049    -507.3117     102002.7      46.7237      46.7237      46.7237 
   19000    92.124472   -7363.1045    -6884.467   -321.53084     102002.7      46.7237      46.7237      46.7237 
   20000    88.017818   -7386.8695   -6929.5684   -561.28004     102002.7      46.7237      46.7237      46.7237 
   21000    90.704398   -7366.1266   -6894.8672      -667.66     102002.7      46.7237      46.7237      46.7237 
   22000    89.348543   -7343.4007   -6879.1857   -801.95271     102002.7      46.7237      46.7237      46.7237 
   23000    91.755239   -7373.5762   -6896.8571   -891.81277     102002.7      46.7237      46.7237      46.7237 
   24000    90.937682   -7345.9227   -6873.4512   -838.66836     102002.7      46.7237      46.7237      46.7237 
   25000     90.11949   -7370.8419   -6902.6214   -945.14501     102002.7      46.7237      46.7237      46.7237 
   26000    93.898851   -7358.0745   -6870.2182   -481.35436     102002.7      46.7237      46.7237      46.7237 
   27000    91.547256   -7369.4729   -6893.8343   -691.66959     102002.7      46.7237      46.7237      46.7237 
   28000      92.4474   -7375.8257   -6895.5104   -652.83466     102002.7      46.7237      46.7237      46.7237 
   29000    91.066745   -7379.1587   -6906.0167   -723.75404     102002.7      46.7237      46.7237      46.7237 
   30000    91.469444    -7355.985   -6880.7508   -661.03926     102002.7      46.7237      46.7237      46.7237 
   31000    90.858869   -7374.0122   -6901.9503   -616.84029     102002.7      46.7237      46.7237      46.7237 
   32000    90.440244      -7383.4    -6913.513   -699.69966     102002.7      46.7237      46.7237      46.7237 
   33000    91.807667   -7375.8766   -6898.8851   -813.63514     102002.7      46.7237      46.7237      46.7237 
   34000    88.835616   -7370.6809   -6909.1309   -583.30514     102002.7      46.7237      46.7237      46.7237 
   35000    93.417953   -7366.9941   -6881.6362   -903.17003     102002.7      46.7237      46.7237      46.7237 
   36000    90.231299    -7376.258   -6907.4566   -749.29465     102002.7      46.7237      46.7237      46.7237 
   37000    92.066851    -7364.764   -6886.4259   -706.01454     102002.7      46.7237      46.7237      46.7237 
   38000    91.190167   -7376.8683    -6903.085   -691.54313     102002.7      46.7237      46.7237      46.7237 
   39000    90.660523   -7371.5137   -6900.4822   -478.85034     102002.7      46.7237      46.7237      46.7237 
   40000    91.676331   -7372.5379   -6896.2287   -798.28538     102002.7      46.7237      46.7237      46.7237 
   41000    93.415223   -7351.8807    -6866.537   -684.59859     102002.7      46.7237      46.7237      46.7237 
   42000    89.697823   -7366.3061   -6900.2765   -503.63446     102002.7      46.7237      46.7237      46.7237 
   43000    92.793817    -7373.513   -6891.3979   -453.92767     102002.7      46.7237      46.7237      46.7237 
   44000    90.315315   -7360.6477   -6891.4098   -625.35336     102002.7      46.7237      46.7237      46.7237 
   45000    88.149904   -7357.3045   -6899.3171   -491.17288     102002.7      46.7237      46.7237      46.7237 
   46000    91.948421   -7372.6625   -6894.9397   -542.59542     102002.7      46.7237      46.7237      46.7237 
   47000    89.978605   -7367.3123   -6899.8238    -674.4485     102002.7      46.7237      46.7237      46.7237 
   48000    94.386061   -7373.5269   -6883.1392   -760.16095     102002.7      46.7237      46.7237      46.7237 
   49000    90.356065   -7364.6394   -6895.1898   -756.48726     102002.7      46.7237      46.7237      46.7237 
   50000    91.970877   -7383.8959   -6906.0565   -760.79034     102002.7      46.7237      46.7237      46.7237 
   51000    93.171906   -7369.9832   -6885.9037   -679.67725     102002.7      46.7237      46.7237      46.7237 
   52000    91.719387   -7352.1876   -6875.6548   -528.84539     102002.7      46.7237      46.7237      46.7237 
   53000    90.996047   -7374.2938   -6901.5191    -284.6665     102002.7      46.7237      46.7237      46.7237 
   54000    91.925741   -7357.8602   -6880.2553   -616.48577     102002.7      46.7237      46.7237      46.7237 
   55000     90.59079   -7372.5709   -6901.9018   -722.60926     102002.7      46.7237      46.7237      46.7237 
   56000     91.23394   -7377.8519   -6903.8413   -577.85544     102002.7      46.7237      46.7237      46.7237 
   57000    91.977694   -7361.2365   -6883.3617    -611.6586     102002.7      46.7237      46.7237      46.7237 
   58000    91.733414   -7368.3213   -6891.7156   -944.19614     102002.7      46.7237      46.7237      46.7237 
   59000    88.321478   -7370.4546   -6911.5758    -674.5187     102002.7      46.7237      46.7237      46.7237 
   60000    90.995415   -7360.0421   -6887.2707   -771.56085     102002.7      46.7237      46.7237      46.7237 
   61000    91.788301   -7363.0786   -6886.1877   -725.69918     102002.7      46.7237      46.7237      46.7237 
   62000    92.851378   -7374.4182    -6892.004   -998.55275     102002.7      46.7237      46.7237      46.7237 
   63000     92.83974   -7349.8878   -6867.5341   -775.14092     102002.7      46.7237      46.7237      46.7237 
   64000    91.352343    -7374.242   -6899.6162   -718.19326     102002.7      46.7237      46.7237      46.7237 
   65000    89.879591   -7390.3335   -6923.3595   -728.48034     102002.7      46.7237      46.7237      46.7237 
   66000    90.515271   -7361.1215   -6890.8447   -660.89581     102002.7      46.7237      46.7237      46.7237 
   67000    90.921725   -7369.8393   -6897.4508   -647.76601     102002.7      46.7237      46.7237      46.7237 
   68000    91.379836   -7380.8007    -6906.032   -866.67666     102002.7      46.7237      46.7237      46.7237 
   69000     91.41396   -7371.1342   -6896.1882   -620.03689     102002.7      46.7237      46.7237      46.7237 
   70000    89.452426   -7371.5082   -6906.7534   -730.75626     102002.7      46.7237      46.7237      46.7237 
   71000    91.614766     -7362.31   -6886.3207   -654.24968     102002.7      46.7237      46.7237      46.7237 
   72000    89.990274   -7369.8633   -6902.3142    -731.7016     102002.7      46.7237      46.7237      46.7237 
   73000    93.070443   -7369.6987   -6886.1464   -854.94255     102002.7      46.7237      46.7237      46.7237 
   74000    88.901528    -7370.242   -6908.3495   -524.71095     102002.7      46.7237      46.7237      46.7237 
   75000    93.886687   -7372.4868   -6884.6936   -590.06017     102002.7      46.7237      46.7237      46.7237 
   76000    89.143755    -7368.568    -6905.417    -967.3468     102002.7      46.7237      46.7237      46.7237 
   77000    95.301222   -7368.0441   -6872.9016   -545.41127     102002.7      46.7237      46.7237      46.7237 
   78000    87.688032   -7371.4228   -6915.8351    -946.5428     102002.7      46.7237      46.7237      46.7237 
   79000    89.200641   -7372.9704   -6909.5238    -704.7685     102002.7      46.7237      46.7237      46.7237 
   80000    94.920633   -7378.0971    -6884.932   -921.08273     102002.7      46.7237      46.7237      46.7237 
   81000    91.276764    -7362.552   -6888.3188   -608.46866     102002.7      46.7237      46.7237      46.7237 
   82000    91.247557   -7366.5029   -6892.4215   -547.57548     102002.7      46.7237      46.7237      46.7237 
   83000    90.583491   -7374.8042    -6904.173   -531.56766     102002.7      46.7237      46.7237      46.7237 
   84000    87.964731   -7372.1215   -6915.0961   -452.83355     102002.7      46.7237      46.7237      46.7237 
   85000    91.075412   -7365.5232   -6892.3361   -513.47063     102002.7      46.7237      46.7237      46.7237 
   86000    91.749817   -7370.8027   -6894.1118    -375.7462     102002.7      46.7237      46.7237      46.7237 
   87000    93.643824   -7370.9325   -6884.4012   -747.45614     102002.7      46.7237      46.7237      46.7237 
   88000    91.739632   -7374.1906   -6897.5526   -255.81139     102002.7      46.7237      46.7237      46.7237 
   89000    89.754096   -7367.3168   -6900.9947   -542.69384     102002.7      46.7237      46.7237      46.7237 
   90000    93.053599   -7365.8132   -6882.3484   -554.98951     102002.7      46.7237      46.7237      46.7237 
   91000    91.050339   -7367.9981   -6894.9413   -623.84077     102002.7      46.7237      46.7237      46.7237 
   92000    90.265292   -7375.0073   -6906.0293   -544.39784     102002.7      46.7237      46.7237      46.7237 
   93000    90.592089   -7361.8331   -6891.1572   -866.50733     102002.7      46.7237      46.7237      46.7237 
   94000    90.454661   -7394.0086   -6924.0467   -667.14753     102002.7      46.7237      46.7237      46.7237 
   95000    91.120798   -7370.3229   -6896.9001   -765.32155     102002.7      46.7237      46.7237      46.7237 
   96000    93.893344   -7365.3672   -6877.5395   -993.17598     102002.7      46.7237      46.7237      46.7237 
   97000    89.850319   -7362.0089   -6895.1869    -616.7204     102002.7      46.7237      46.7237      46.7237 
   98000    93.362551   -7368.3047   -6883.2347   -663.41418     102002.7      46.7237      46.7237      46.7237 
   99000    90.698369    -7375.928   -6904.6999   -660.61924     102002.7      46.7237      46.7237      46.7237 
  100000    88.620147   -7371.2697   -6910.8391    -678.6822     102002.7      46.7237      46.7237      46.7237 
  101000    93.222289    -7365.574   -6881.2328   -642.55042     102002.7      46.7237      46.7237      46.7237 
  102000    91.277012   -7380.6633   -6906.4289   -375.02378     102002.7      46.7237      46.7237      46.7237 
  103000      93.1214   -7357.4498   -6873.6327   -794.90575     102002.7      46.7237      46.7237      46.7237 
  104000    89.683968   -7351.8438   -6885.8861   -572.69763     102002.7      46.7237      46.7237      46.7237 
  105000    87.407813   -7375.4829   -6921.3511   -667.14244     102002.7      46.7237      46.7237      46.7237 
  106000    92.963407   -7368.9715   -6885.9753   -725.97081     102002.7      46.7237      46.7237      46.7237 
  107000    94.693871   -7364.3859    -6872.399   -468.14984     102002.7      46.7237      46.7237      46.7237 
  108000    89.144537   -7365.6111    -6902.456    -780.6512     102002.7      46.7237      46.7237      46.7237 
  109000    94.779634   -7387.7315    -6895.299   -702.60822     102002.7      46.7237      46.7237      46.7237 
  110000    92.215609   -7357.9466   -6878.8357   -726.65145     102002.7      46.7237      46.7237      46.7237 
  111000    92.058599   -7372.1224   -6893.8272   -982.51778     102002.7      46.7237      46.7237      46.7237 
  112000    90.502151   -7367.0343   -6896.8257   -829.45267     102002.7      46.7237      46.7237      46.7237 
  113000    92.131548   -7368.9887   -6890.3145   -834.75478     102002.7      46.7237      46.7237      46.7237 
  114000    91.718398   -7382.6192   -6906.0915   -766.95633     102002.7      46.7237      46.7237      46.7237 
  115000    92.744296   -7364.4074   -6882.5496   -861.87177     102002.7      46.7237      46.7237      46.7237 
  116000    90.584391   -7372.8061   -6902.1702   -610.50225     102002.7      46.7237      46.7237      46.7237 
  117000    90.310459   -7387.2141   -6918.0014   -783.98192     102002.7      46.7237      46.7237      46.7237 
  118000    89.445721   -7355.1359    -6890.416   -1014.6954     102002.7      46.7237      46.7237      46.7237 
  119000    92.448079   -7356.8683   -6876.5495   -921.55313     102002.7      46.7237      46.7237      46.7237 
  120000    93.036445   -7361.0332   -6877.6575   -706.58337     102002.7      46.7237      46.7237      46.7237 
  121000    90.272765   -7366.1797   -6897.1628   -648.03926     102002.7      46.7237      46.7237      46.7237 
  122000     90.99837   -7372.3811   -6899.5944   -554.55504     102002.7      46.7237      46.7237      46.7237 
  123000    88.909756   -7347.3623   -6885.4271   -661.76263     102002.7      46.7237      46.7237      46.7237 
  124000    88.181856    -7367.358   -6909.2046   -619.69632     102002.7      46.7237      46.7237      46.7237 
  125000    88.730251   -7361.8662   -6900.8635   -758.59082     102002.7      46.7237      46.7237      46.7237 
  126000    93.338165   -7374.6686   -6889.7253   -590.60619     102002.7      46.7237      46.7237      46.7237 
  127000    87.820883   -7368.9104   -6912.6324   -664.07283     102002.7      46.7237      46.7237      46.7237 
  128000    92.534003   -7363.6977   -6882.9325   -730.56649     102002.7      46.7237      46.7237      46.7237 
  129000    88.109284     -7377.13   -6919.3536    -411.0184     102002.7      46.7237      46.7237      46.7237 
  130000    89.532281   -7350.8162   -6885.6466   -807.96835     102002.7      46.7237      46.7237      46.7237 
  131000    88.792681   -7370.9634   -6909.6364   -693.63052     102002.7      46.7237      46.7237      46.7237 
  132000    91.279867   -7347.0998   -6872.8505   -846.60951     102002.7      46.7237      46.7237      46.7237 
  133000    91.650587   -7374.8886   -6898.7132    -619.9389     102002.7      46.7237      46.7237      46.7237 
  134000    91.286831   -7383.2308   -6908.9453   -786.84897     102002.7      46.7237      46.7237      46.7237 
  135000    91.989561   -7351.5887   -6873.6522    -585.5322     102002.7      46.7237      46.7237      46.7237 
  136000    92.788441   -7381.5863   -6899.4991   -600.09381     102002.7      46.7237      46.7237      46.7237 
  137000    88.847123   -7378.7821   -6917.1722   -731.05818     102002.7      46.7237      46.7237      46.7237 
  138000     91.82121   -7354.6967   -6877.6348   -512.43555     102002.7      46.7237      46.7237      46.7237 
  139000    91.328752   -7356.6855   -6882.1822   -575.24246     102002.7      46.7237      46.7237      46.7237 
  140000    90.021147   -7363.0312   -6895.3217       -792.3     102002.7      46.7237      46.7237      46.7237 
  141000     91.99564   -7363.8001   -6885.8319   -741.08012     102002.7      46.7237      46.7237      46.7237 
  142000    86.981798   -7377.2692   -6925.3508   -716.54059     102002.7      46.7237      46.7237      46.7237 
  143000     90.14413   -7355.5098   -6887.1613   -642.20458     102002.7      46.7237      46.7237      46.7237 
  144000    89.676159   -7385.7373   -6919.8202   -662.26393     102002.7      46.7237      46.7237      46.7237 
  145000    93.133857   -7369.1839   -6885.3021   -503.84442     102002.7      46.7237      46.7237      46.7237 
  146000    92.314041   -7366.1472   -6886.5248   -527.49763     102002.7      46.7237      46.7237      46.7237 
  147000     92.91969   -7373.1233   -6890.3542   -588.41353     102002.7      46.7237      46.7237      46.7237 
  148000    91.513078   -7358.8964   -6883.4354   -542.61983     102002.7      46.7237      46.7237      46.7237 
  149000    92.904896   -7365.5044   -6882.8122   -502.68962     102002.7      46.7237      46.7237      46.7237 
  150000    89.619251    -7372.321   -6906.6996   -554.18768     102002.7      46.7237      46.7237      46.7237 
  151000    91.171196   -7370.6155   -6896.9309   -742.01042     102002.7      46.7237      46.7237      46.7237 
  152000    89.755976   -7387.6889   -6921.3571   -553.57812     102002.7      46.7237      46.7237      46.7237 
  153000    89.972428   -7362.5363   -6895.0799   -384.16104     102002.7      46.7237      46.7237      46.7237 
  154000    89.442765   -7327.2901   -6862.5856   -506.89348     102002.7      46.7237      46.7237      46.7237 
  155000    91.508304   -7373.4859   -6898.0497   -613.99691     102002.7      46.7237      46.7237      46.7237 
  156000     88.49163   -7369.1794   -6909.4165   -785.18321     102002.7      46.7237      46.7237      46.7237 
  157000    90.271152   -7364.4957   -6895.4873    -769.7106     102002.7      46.7237      46.7237      46.7237 
  158000     89.51427   -7380.4754   -6915.3994   -668.84242     102002.7      46.7237      46.7237      46.7237 
  159000    89.873893   -7360.8855    -6893.941   -643.08446     102002.7      46.7237      46.7237      46.7237 
  160000    91.371491   -7364.7143    -6889.989    -664.3909     102002.7      46.7237      46.7237      46.7237 
  161000    89.692463   -7377.7455   -6911.7436   -576.19407     102002.7      46.7237      46.7237      46.7237 
  162000     90.77931   -7358.6975   -6887.0489    -664.8833     102002.7      46.7237      46.7237      46.7237 
  163000    90.242706   -7349.3297    -6880.469    -1066.804     102002.7      46.7237      46.7237      46.7237 
  164000    89.079039   -7362.4668   -6899.6521    -751.3786     102002.7      46.7237      46.7237      46.7237 
  165000    91.228468   -7378.6652    -6904.683   -791.89691     102002.7      46.7237      46.7237      46.7237 
  166000    93.852433   -7371.0826   -6883.4674     -575.827     102002.7      46.7237      46.7237      46.7237 
  167000    93.038814   -7366.7034   -6883.3154   -520.21266     102002.7      46.7237      46.7237      46.7237 
  168000    87.614592   -7375.7487   -6920.5425   -454.55112     102002.7      46.7237      46.7237      46.7237 
  169000    90.415193   -7374.0057   -6904.2489   -607.82329     102002.7      46.7237      46.7237      46.7237 
  170000    91.568514     -7360.45    -6884.701   -545.66713     102002.7      46.7237      46.7237      46.7237 
  171000    89.998328   -7371.9539   -6904.3629   -652.71307     102002.7      46.7237      46.7237      46.7237 
  172000     91.93756   -7342.8439   -6865.1775   -734.43792     102002.7      46.7237      46.7237      46.7237 
  173000    92.270953   -7375.2707   -6895.8722   -749.76562     102002.7      46.7237      46.7237      46.7237 
  174000    92.055477   -7364.5158   -6886.2368   -593.35114     102002.7      46.7237      46.7237      46.7237 
  175000    89.938452   -7370.3219    -6903.042   -736.77651     102002.7      46.7237      46.7237      46.7237 
  176000    88.849242   -7370.0203   -6908.3995   -736.56002     102002.7      46.7237      46.7237      46.7237 
  177000    94.307279   -7383.5556   -6893.5773   -493.48754     102002.7      46.7237      46.7237      46.7237 
  178000    91.809916   -7377.6137   -6900.6105    -690.1612     102002.7      46.7237      46.7237      46.7237 
  179000    91.189759   -7367.5325   -6893.7514   -665.96169     102002.7      46.7237      46.7237      46.7237 
  180000    89.857061   -7387.0291   -6920.1721    -522.8312     102002.7      46.7237      46.7237      46.7237 
  181000    88.371045   -7364.0733   -6904.9369   -718.46334     102002.7      46.7237      46.7237      46.7237 
  182000    91.143964   -7371.6074   -6898.0642    -616.4251     102002.7      46.7237      46.7237      46.7237 
  183000    87.552405   -7361.4407   -6906.5576   -661.41181     102002.7      46.7237      46.7237      46.7237 
  184000     91.12195    -7351.142   -6877.7132   -599.12555     102002.7      46.7237      46.7237      46.7237 
  185000    90.225585   -7381.6541   -6912.8824   -552.65211     102002.7      46.7237      46.7237      46.7237 
  186000    92.558552   -7357.3003   -6876.4075   -754.81434     102002.7      46.7237      46.7237      46.7237 
  187000    90.788857   -7372.5719   -6900.8737   -669.77201     102002.7      46.7237      46.7237      46.7237 
  188000    86.156584   -7378.0937   -6930.4627   -630.75939     102002.7      46.7237      46.7237      46.7237 
  189000    90.380645   -7358.4743    -6888.897   -451.10956     102002.7      46.7237      46.7237      46.7237 
  190000    88.134155   -7375.3728   -6917.4672    -420.4809     102002.7      46.7237      46.7237      46.7237 
  191000    90.632843   -7367.1871   -6896.2995   -838.90529     102002.7      46.7237      46.7237      46.7237 
  192000    94.100766   -7363.6379   -6874.7325   -567.33729     102002.7      46.7237      46.7237      46.7237 
  193000    90.138401   -7374.2441   -6905.9253   -621.24618     102002.7      46.7237      46.7237      46.7237 
  194000    91.544657   -7361.7677   -6886.1427    -916.2861     102002.7      46.7237      46.7237      46.7237 
  195000    92.471927   -7380.7279   -6900.2852   -630.04699     102002.7      46.7237      46.7237      46.7237 
  196000    91.199602    -7368.274   -6894.4417   -846.17546     102002.7      46.7237      46.7237      46.7237 
  197000    89.535397   -7381.9141   -6916.7283   -905.67848     102002.7      46.7237      46.7237      46.7237 
  198000    88.048133   -7357.4708   -6900.0121   -614.39434     102002.7      46.7237      46.7237      46.7237 
  199000    90.899005   -7361.4604   -6889.1899   -1118.0569     102002.7      46.7237      46.7237      46.7237 
  200000    90.940306   -7385.8211    -6913.336   -794.02956     102002.7      46.7237      46.7237      46.7237 
  201000    90.379506   -7377.1868   -6907.6154   -689.82374     102002.7      46.7237      46.7237      46.7237 
  202000    91.138307   -7382.7347   -6909.2209   -522.60502     102002.7      46.7237      46.7237      46.7237 
  203000    91.143979   -7364.0694   -6890.5261   -545.85585     102002.7      46.7237      46.7237      46.7237 
  204000    94.000771   -7371.8641   -6883.4782   -311.62769     102002.7      46.7237      46.7237      46.7237 
  205000    89.109509   -7364.5738   -6901.6008   -406.52354     102002.7      46.7237      46.7237      46.7237 
  206000    92.141696    -7368.264    -6889.537   -703.09777     102002.7      46.7237      46.7237      46.7237 
  207000    88.048451   -7381.6657   -6924.2055   -474.31094     102002.7      46.7237      46.7237      46.7237 
  208000    93.100637   -7366.3099   -6882.6007   -629.99914     102002.7      46.7237      46.7237      46.7237 
  209000    92.286392   -7349.8781   -6870.3993   -534.23866     102002.7      46.7237      46.7237      46.7237 
  210000    92.410881   -7382.7552   -6902.6296   -642.74312     102002.7      46.7237      46.7237      46.7237 
  211000     89.65168   -7353.1733   -6887.3833   -583.96205     102002.7      46.7237      46.7237      46.7237 
  212000    94.428293   -7349.5849   -6858.9778   -719.78213     102002.7      46.7237      46.7237      46.7237 
  213000    90.997582   -7369.2785   -6896.4958   -578.12149     102002.7      46.7237      46.7237      46.7237 
  214000    90.238839   -7380.5207   -6911.6802   -616.96517     102002.7      46.7237      46.7237      46.7237 
  215000      91.7322   -7370.8876   -6894.2882   -621.26124     102002.7      46.7237      46.7237      46.7237 
  216000    87.862467   -7377.8448   -6921.3508   -814.07374     102002.7      46.7237      46.7237      46.7237 
  217000    88.762586   -7353.4935   -6892.3228   -779.29885     102002.7      46.7237      46.7237      46.7237 
  218000    94.847582    -7358.985   -6866.1994   -631.46235     102002.7      46.7237      46.7237      46.7237 
  219000    90.985311   -7374.3986   -6901.6796    -591.1237     102002.7      46.7237      46.7237      46.7237 
  220000    93.039046   -7358.2338   -6874.8446   -778.17776     102002.7      46.7237      46.7237      46.7237 
  221000    90.602097   -7367.3819    -6896.654   -727.10919     102002.7      46.7237      46.7237      46.7237 
  222000    89.020215   -7344.3837   -6881.8745   -582.49179     102002.7      46.7237      46.7237      46.7237 
  223000     91.35915   -7356.3251   -6881.6639   -777.71083     102002.7      46.7237      46.7237      46.7237 
  224000    90.852185   -7347.6961   -6875.6688    -512.5424     102002.7      46.7237      46.7237      46.7237 
  225000    90.463981   -7368.7363    -6898.726   -799.07084     102002.7      46.7237      46.7237      46.7237 
  226000    90.246695   -7365.1158   -6896.2344   -646.43456     102002.7      46.7237      46.7237      46.7237 
  227000    92.376067   -7367.2009   -6887.2562   -744.02942     102002.7      46.7237      46.7237      46.7237 
  228000    92.411699   -7355.4979   -6875.3682   -638.68637     102002.7      46.7237      46.7237      46.7237 
  229000    91.976616   -7380.3174   -6902.4481   -709.54314     102002.7      46.7237      46.7237      46.7237 
  230000    89.730419   -7369.1198   -6902.9208   -959.02573     102002.7      46.7237      46.7237      46.7237 
  231000    90.809783   -7363.0671   -6891.2602   -777.77042     102002.7      46.7237      46.7237      46.7237 
  232000    91.238161   -7383.3697   -6909.3371   -801.66189     102002.7      46.7237      46.7237      46.7237 
  233000    91.657652    -7343.517   -6867.3049   -760.37997     102002.7      46.7237      46.7237      46.7237 
  234000    89.867579   -7368.9899   -6902.0783   -587.94776     102002.7      46.7237      46.7237      46.7237 
  235000    90.204335   -7368.2888   -6899.6275   -899.71783     102002.7      46.7237      46.7237      46.7237 
  236000    91.533742   -7349.7742   -6874.2059   -707.96203     102002.7      46.7237      46.7237      46.7237 
  237000    91.428182   -7363.1893   -6888.1694   -928.38692     102002.7      46.7237      46.7237      46.7237 
  238000    88.482471   -7367.2143    -6907.499    -894.2715     102002.7      46.7237      46.7237      46.7237 
  239000    90.977377   -7355.5822   -6882.9045   -957.82579     102002.7      46.7237      46.7237      46.7237 
  240000     91.99049   -7374.9336   -6896.9923   -740.34895     102002.7      46.7237      46.7237      46.7237 
  241000    90.314085   -7353.3112   -6884.0797   -458.34451     102002.7      46.7237      46.7237      46.7237 
  242000    92.291254    -7362.447    -6882.943   -708.32871     102002.7      46.7237      46.7237      46.7237 
  243000    86.707144    -7375.596   -6925.1045    -476.2115     102002.7      46.7237      46.7237      46.7237 
  244000    91.004139   -7355.4625   -6882.6458   -423.98124     102002.7      46.7237      46.7237      46.7237 
  245000    92.931645   -7383.4537   -6900.6225   -504.61329     102002.7      46.7237      46.7237      46.7237 
  246000    89.746921    -7365.564   -6899.2792   -845.87411     102002.7      46.7237      46.7237      46.7237 
  247000    93.099545   -7367.7058   -6884.0023   -615.70394     102002.7      46.7237      46.7237      46.7237 
  248000    91.375438    -7374.245   -6899.4992   -737.84142     102002.7      46.7237      46.7237      46.7237 
  249000    95.532034   -7359.6388   -6863.2971    -749.2955     102002.7      46.7237      46.7237      46.7237 
  250000    89.871749   -7371.0969   -6904.1636   -590.76917     102002.7      46.7237      46.7237      46.7237 
  251000    90.987018   -7359.5605   -6886.8327   -747.44156     102002.7      46.7237      46.7237      46.7237 
  252000    87.982618   -7372.8191   -6915.7009   -786.36409     102002.7      46.7237      46.7237      46.7237 
  253000    91.160533   -7362.6124   -6888.9831    -619.4828     102002.7      46.7237      46.7237      46.7237 
  254000    89.729428   -7374.7405   -6908.5466   -698.10977     102002.7      46.7237      46.7237      46.7237 
  255000    89.881672   -7363.6125   -6896.6276   -610.65071     102002.7      46.7237      46.7237      46.7237 
  256000    92.708009    -7364.675   -6883.0057   -809.58335     102002.7      46.7237      46.7237      46.7237 
  257000     90.60934    -7366.943   -6896.1774   -808.39443     102002.7      46.7237      46.7237      46.7237 
  258000    90.048016   -7365.8962   -6898.0471   -445.02462     102002.7      46.7237      46.7237      46.7237 
  259000    92.283457   -7362.6729   -6883.2094   -631.83776     102002.7      46.7237      46.7237      46.7237 
  260000    90.084957   -7373.6374   -6905.5963   -447.55802     102002.7      46.7237      46.7237      46.7237 
  261000    92.451285    -7378.266   -6897.9305   -632.69463     102002.7      46.7237      46.7237      46.7237 
  262000     93.75189   -7378.0931   -6891.0003   -847.79729     102002.7      46.7237      46.7237      46.7237 
  263000    91.326143   -7376.9929   -6902.5031   -591.45663     102002.7      46.7237      46.7237      46.7237 
  264000    90.745622   -7349.4566    -6877.983    -644.7535     102002.7      46.7237      46.7237      46.7237 
  265000    91.822125   -7370.8388   -6893.7722   -392.03702     102002.7      46.7237      46.7237      46.7237 
  266000    88.793509   -7385.6017   -6924.2705   -402.07422     102002.7      46.7237      46.7237      46.7237 
  267000    91.261015   -7378.3954    -6904.244   -722.61007     102002.7      46.7237      46.7237      46.7237 
  268000    92.764084   -7361.6276    -6879.667   -486.28628     102002.7      46.7237      46.7237      46.7237 
  269000    90.644051    -7357.367   -6886.4212   -620.13431     102002.7      46.7237      46.7237      46.7237 
  270000    92.234488   -7382.7905   -6903.5815   -967.29389     102002.7      46.7237      46.7237      46.7237 
  271000    91.046773   -7357.5908   -6884.5525    -780.0582     102002.7      46.7237      46.7237      46.7237 
  272000    91.091338   -7357.7585   -6884.4887   -918.49237     102002.7      46.7237      46.7237      46.7237 
  273000    91.007088    -7380.543   -6907.7109   -565.77188     102002.7      46.7237      46.7237      46.7237 
  274000    90.451789   -7354.3167   -6884.3698   -563.96385     102002.7      46.7237      46.7237      46.7237 
  275000    90.702643   -7379.2562   -6908.0059    -577.8337     102002.7      46.7237      46.7237      46.7237 
  276000    90.865809   -7365.0358   -6892.9378   -581.42364     102002.7      46.7237      46.7237      46.7237 
  277000    90.404578   -7377.5527   -6907.8511   -844.84321     102002.7      46.7237      46.7237      46.7237 
  278000    89.183109   -7358.8145   -6895.4591   -662.08925     102002.7      46.7237      46.7237      46.7237 
  279000    90.687029   -7376.7243   -6905.5551   -928.55246     102002.7      46.7237      46.7237      46.7237 
  280000     92.79568   -7362.6755   -6880.5508   -738.04732     102002.7      46.7237      46.7237      46.7237 
  281000    89.635192   -7371.9798   -6906.2756   -735.56937     102002.7      46.7237      46.7237      46.7237 
  282000    91.756243   -7371.0782   -6894.3539   -705.35222     102002.7      46.7237      46.7237      46.7237 
  283000     91.01625   -7375.0092   -6902.1296   -608.15495     102002.7      46.7237      46.7237      46.7237 
  284000    89.816758   -7367.7584   -6901.1108   -761.05871     102002.7      46.7237      46.7237      46.7237 
  285000    88.586338   -7359.3304   -6899.0755   -662.60573     102002.7      46.7237      46.7237      46.7237 
  286000    89.826326    -7371.915   -6905.2176    -970.1047     102002.7      46.7237      46.7237      46.7237 
  287000    91.180381   -7365.5528   -6891.8204   -827.84873     102002.7      46.7237      46.7237      46.7237 
  288000    92.725075     -7371.99   -6890.2321   -720.18121     102002.7      46.7237      46.7237      46.7237 
  289000    91.247778   -7374.5748   -6900.4922   -688.88168     102002.7      46.7237      46.7237      46.7237 
  290000    91.161289   -7358.6263   -6884.9931   -604.93114     102002.7      46.7237      46.7237      46.7237 
  291000    89.147264   -7370.0192     -6906.85   -698.61118     102002.7      46.7237      46.7237      46.7237 
  292000    90.088819   -7374.8651    -6906.804    -830.9215     102002.7      46.7237      46.7237      46.7237 
  293000     93.20309   -7360.5816   -6876.3401    -561.7232     102002.7      46.7237      46.7237      46.7237 
  294000    90.653588   -7371.5029   -6900.5075    -493.6442     102002.7      46.7237      46.7237      46.7237 
  295000    91.372798   -7370.7691    -6896.037   -826.03699     102002.7      46.7237      46.7237      46.7237 
  296000    91.846249   -7377.5026   -6900.3107   -569.47305     102002.7      46.7237      46.7237      46.7237 
  297000    90.571141    -7359.619   -6889.0519   -626.90471     102002.7      46.7237      46.7237      46.7237 
  298000    89.540002   -7380.8211   -6915.6114   -429.47435     102002.7      46.7237      46.7237      46.7237 
  299000    91.854333   -7380.5137   -6903.2798   -831.23796     102002.7      46.7237      46.7237      46.7237 
  300000    90.360675   -7357.6376    -6888.164   -799.65522     102002.7      46.7237      46.7237      46.7237 
  301000    91.143346   -7383.4382   -6909.8983   -636.46998     102002.7      46.7237      46.7237      46.7237 
  302000    91.621902   -7382.0902   -6906.0639   -824.46172     102002.7      46.7237      46.7237      46.7237 
  303000    90.756094   -7380.5232   -6908.9952   -419.29743     102002.7      46.7237      46.7237      46.7237 
  304000     91.03861   -7357.8891   -6884.8932   -656.18041     102002.7      46.7237      46.7237      46.7237 
  305000     88.90997    -7366.914   -6904.9776   -1027.6109     102002.7      46.7237      46.7237      46.7237 
  306000    91.039719   -7388.4432   -6915.4416   -644.50683     102002.7      46.7237      46.7237      46.7237 
  307000    92.112946    -7379.075   -6900.4974   -797.96312     102002.7      46.7237      46.7237      46.7237 
  308000    91.717142   -7376.8919   -6900.3707    -855.9951     102002.7      46.7237      46.7237      46.7237 
  309000    92.940967   -7366.6262   -6883.7466   -725.69301     102002.7      46.7237      46.7237      46.7237 
  310000    92.888648   -7378.1827   -6895.5749   -585.79344     102002.7      46.7237      46.7237      46.7237 
  311000    89.725588   -7376.6292   -6910.4553   -681.58953     102002.7      46.7237      46.7237      46.7237 
  312000    95.590794   -7370.8007   -6874.1538   -746.51295     102002.7      46.7237      46.7237      46.7237 
  313000    92.524052   -7389.3386   -6908.6251   -731.22389     102002.7      46.7237      46.7237      46.7237 
  314000     93.88676   -7364.2871   -6876.4935    -972.0903     102002.7      46.7237      46.7237      46.7237 
  315000    92.000839   -7380.7565   -6902.7614   -623.59439     102002.7      46.7237      46.7237      46.7237 
  316000    91.521659   -7357.3098   -6881.8043   -601.84206     102002.7      46.7237      46.7237      46.7237 
  317000    93.594134   -7368.5333   -6882.2602   -582.02265     102002.7      46.7237      46.7237      46.7237 
  318000    93.162202   -7382.7164   -6898.6874   -678.79248     102002.7      46.7237      46.7237      46.7237 
  319000    90.111435   -7374.7862   -6906.6075   -759.80727     102002.7      46.7237      46.7237      46.7237 
  320000    89.812931   -7366.0402   -6899.4124   -604.77053     102002.7      46.7237      46.7237      46.7237 
  321000    90.934343   -7356.8571    -6884.403   -835.53211     102002.7      46.7237      46.7237      46.7237 
  322000     91.87144    -7394.729   -6917.4061   -864.69753     102002.7      46.7237      46.7237      46.7237 
  323000    91.765646   -7370.3463   -6893.5732   -755.40811     102002.7      46.7237      46.7237      46.7237 
  324000    88.551468   -7386.7073   -6926.6335   -653.55567     102002.7      46.7237      46.7237      46.7237 
  325000    93.593668   -7372.4566   -6886.1859   -713.85537     102002.7      46.7237      46.7237      46.7237 
  326000    87.468372   -7358.2924    -6903.846   -715.95869     102002.7      46.7237      46.7237      46.7237 
  327000    90.118647   -7358.0541    -6889.838   -892.33999     102002.7      46.7237      46.7237      46.7237 
  328000    89.612823   -7364.6098   -6899.0217   -817.39124     102002.7      46.7237      46.7237      46.7237 
  329000    91.644945   -7354.0084   -6877.8623   -792.31234     102002.7      46.7237      46.7237      46.7237 
  330000    89.326495   -7367.0747   -6902.9742   -814.67136     102002.7      46.7237      46.7237      46.7237 
  331000    90.889036   -7350.4877    -6878.269   -536.86355     102002.7      46.7237      46.7237      46.7237 
  332000    90.668149   -7361.6392   -6890.5681   -759.94079     102002.7      46.7237      46.7237      46.7237 
  333000    91.274537   -7355.7975   -6881.5759   -776.75412     102002.7      46.7237      46.7237      46.7237 
  334000    89.770609   -7389.7851   -6923.3772   -774.52026     102002.7      46.7237      46.7237      46.7237 
  335000    89.934152   -7373.0513   -6905.7937   -797.79906     102002.7      46.7237      46.7237      46.7237 
  336000    93.215215   -7358.0025    -6873.698   -667.90011     102002.7      46.7237      46.7237      46.7237 
  337000    90.754211   -7369.3034   -6897.7852   -825.87393     102002.7      46.7237      46.7237      46.7237 
  338000    92.323615   -7357.2562   -6877.5841   -589.23033     102002.7      46.7237      46.7237      46.7237 
  339000    91.481308   -7379.3747   -6904.0788   -596.80552     102002.7      46.7237      46.7237      46.7237 
  340000    93.829796   -7361.0732   -6873.5756   -668.35632     102002.7      46.7237      46.7237      46.7237 
  341000    89.374413   -7363.2467   -6898.8973    -781.1275     102002.7      46.7237      46.7237      46.7237 
  342000    89.022077   -7358.7365   -6896.2177   -673.31338     102002.7      46.7237      46.7237      46.7237 
  343000    94.124612   -7372.1182   -6883.0889    -797.8653     102002.7      46.7237      46.7237      46.7237 
  344000    89.779441   -7377.3394   -6910.8856   -879.74136     102002.7      46.7237      46.7237      46.7237 
  345000     90.25666   -7364.2588   -6895.3256   -661.66247     102002.7      46.7237      46.7237      46.7237 
  346000    91.499817   -7357.2681   -6881.8761   -734.59347     102002.7      46.7237      46.7237      46.7237 
  347000    90.961966   -7373.4352   -6900.8376   -709.27369     102002.7      46.7237      46.7237      46.7237 
  348000    90.062951   -7360.2591   -6892.3324   -579.56084     102002.7      46.7237      46.7237      46.7237 
  349000    89.303213    -7358.564   -6894.5845   -774.88998     102002.7      46.7237      46.7237      46.7237 
  350000    91.414864   -7389.2787    -6914.328   -355.62264     102002.7      46.7237      46.7237      46.7237 
  351000     98.47441    -7391.411   -6879.7821   -505.62436     102002.7      46.7237      46.7237      46.7237 
  352000    88.744959   -7384.9646   -6923.8856   -1047.5216     102002.7      46.7237      46.7237      46.7237 
  353000    91.561244   -7367.8462    -6892.135   -753.19088     102002.7      46.7237      46.7237      46.7237 
  354000    92.251676    -7358.897   -6879.5986   -829.26774     102002.7      46.7237      46.7237      46.7237 
  355000    90.258567   -7370.5401    -6901.597   -820.64636     102002.7      46.7237      46.7237      46.7237 
  356000    90.876199   -7377.4405   -6905.2885   -617.06699     102002.7      46.7237      46.7237      46.7237 
  357000    90.780472   -7361.1455   -6889.4909   -633.18132     102002.7      46.7237      46.7237      46.7237 
  358000    91.846178   -7375.9477   -6898.7561   -564.41788     102002.7      46.7237      46.7237      46.7237 
  359000    93.114934   -7377.2062   -6893.4227   -659.30197     102002.7      46.7237      46.7237      46.7237 
  360000    87.408388   -7370.7213   -6916.5865    -680.4875     102002.7      46.7237      46.7237      46.7237 
  361000    93.098164   -7379.0488   -6895.3525   -454.61684     102002.7      46.7237      46.7237      46.7237 
  362000    90.005065   -7358.5656   -6890.9396   -765.47659     102002.7      46.7237      46.7237      46.7237 
  363000    89.593913    -7373.523   -6908.0332   -690.65025     102002.7      46.7237      46.7237      46.7237 
  364000    91.154781   -7366.1192   -6892.5198   -462.56956     102002.7      46.7237      46.7237      46.7237 
  365000     91.46906   -7382.0416   -6906.8093    -759.5742     102002.7      46.7237      46.7237      46.7237 
  366000    95.106479   -7372.2778   -6878.1471   -647.39357     102002.7      46.7237      46.7237      46.7237 
  367000    90.005021    -7356.718   -6889.0923   -720.06445     102002.7      46.7237      46.7237      46.7237 
  368000    90.623118   -7362.0633   -6891.2262   -652.74772     102002.7      46.7237      46.7237      46.7237 
  369000    89.503665   -7369.5577   -6904.5367   -431.70162     102002.7      46.7237      46.7237      46.7237 
  370000    92.684839   -7364.9931   -6883.4442   -661.45753     102002.7      46.7237      46.7237      46.7237 
  371000    90.233287   -7373.5159   -6904.7042   -778.35238     102002.7      46.7237      46.7237      46.7237 
  372000    90.467538   -7359.3611   -6889.3323    -669.8107     102002.7      46.7237      46.7237      46.7237 
  373000     90.70254   -7379.4537    -6908.204   -650.77347     102002.7      46.7237      46.7237      46.7237 
  374000    92.315817   -7370.5412   -6890.9095   -592.11031     102002.7      46.7237      46.7237      46.7237 
  375000    92.137557   -7353.7552   -6875.0497   -599.70724     102002.7      46.7237      46.7237      46.7237 
  376000    90.258793   -7365.0698   -6896.1255   -508.49843     102002.7      46.7237      46.7237      46.7237 
  377000    94.598215   -7370.3454   -6878.8555   -372.92976     102002.7      46.7237      46.7237      46.7237 
  378000    91.019884   -7380.0529   -6907.1544   -504.97324     102002.7      46.7237      46.7237      46.7237 
  379000     92.72142   -7357.4665   -6875.7275    -298.6082     102002.7      46.7237      46.7237      46.7237 
  380000    88.341988   -7371.6697   -6912.6843    -600.5513     102002.7      46.7237      46.7237      46.7237 
  381000    93.461837   -7377.3574   -6891.7716   -640.13864     102002.7      46.7237      46.7237      46.7237 
  382000    88.336192   -7369.3759   -6910.4207   -769.35874     102002.7      46.7237      46.7237      46.7237 
  383000     90.70761   -7370.6682   -6899.3921   -625.57182     102002.7      46.7237      46.7237      46.7237 
  384000    92.345932   -7382.4322   -6902.6441   -665.47473     102002.7      46.7237      46.7237      46.7237 
  385000    93.006524   -7355.1102     -6871.89   -544.73241     102002.7      46.7237      46.7237      46.7237 
  386000    93.217997     -7371.56   -6887.2411   -638.94741     102002.7      46.7237      46.7237      46.7237 
  387000    91.262597   -7376.7789   -6902.6193   -770.76798     102002.7      46.7237      46.7237      46.7237 
  388000     90.44393   -7360.5841   -6890.6779   -779.49825     102002.7      46.7237      46.7237      46.7237 
  389000    89.725655     -7370.61   -6904.4357     -699.995     102002.7      46.7237      46.7237      46.7237 
  390000    87.606218   -7378.0555   -6922.8928   -774.43294     102002.7      46.7237      46.7237      46.7237 
  391000    92.201668    -7366.922   -6887.8834   -844.72688     102002.7      46.7237      46.7237      46.7237 
  392000    89.949339   -7357.2094    -6889.873    -619.2377     102002.7      46.7237      46.7237      46.7237 
  393000    91.534066   -7374.5605   -6898.9905   -807.22161     102002.7      46.7237      46.7237      46.7237 
  394000    94.961185    -7364.908   -6871.5322   -731.22461     102002.7      46.7237      46.7237      46.7237 
  395000    89.730444   -7362.4299   -6896.2307   -871.41732     102002.7      46.7237      46.7237      46.7237 
  396000    92.781571    -7363.893   -6881.8415   -897.89029     102002.7      46.7237      46.7237      46.7237 
  397000    88.265537   -7379.7363   -6921.1481   -1002.3264     102002.7      46.7237      46.7237      46.7237 
  398000    90.921683   -7365.1939   -6892.8056   -1025.7303     102002.7      46.7237      46.7237      46.7237 
  399000    90.308578   -7382.2555   -6913.0526   -570.11939     102002.7      46.7237      46.7237      46.7237 
  400000    90.634555    -7363.277   -6892.3805   -889.60935     102002.7      46.7237      46.7237      46.7237 
  401000    92.413478   -7378.9745   -6898.8355   -560.45289     102002.7      46.7237      46.7237      46.7237 
  402000    88.881999   -7373.6553   -6911.8643   -722.44812     102002.7      46.7237      46.7237      46.7237 
  403000    92.071334   -7365.9668   -6887.6054   -969.00307     102002.7      46.7237      46.7237      46.7237 
  404000    89.900257   -7376.3735   -6909.2921   -590.45664     102002.7      46.7237      46.7237      46.7237 
  405000    90.804428   -7355.4068   -6883.6277    -809.7215     102002.7      46.7237      46.7237      46.7237 
  406000    89.703961   -7372.3605   -6906.2989   -758.30364     102002.7      46.7237      46.7237      46.7237 
  407000    90.781365   -7372.2732   -6900.6139   -426.39703     102002.7      46.7237      46.7237      46.7237 
  408000    93.524558   -7376.6806   -6890.7689   -695.24616     102002.7      46.7237      46.7237      46.7237 
  409000    90.089499   -7375.2125   -6907.1478   -687.94339     102002.7      46.7237      46.7237      46.7237 
  410000    90.539573   -7358.5709   -6888.1678   -1183.9854     102002.7      46.7237      46.7237      46.7237 
  411000    88.999428   -7378.3214   -6915.9203   -747.87881     102002.7      46.7237      46.7237      46.7237 
  412000    90.970333   -7363.2488   -6890.6077   -844.30993     102002.7      46.7237      46.7237      46.7237 
  413000    93.311528   -7357.7737   -6872.9688   -870.16833     102002.7      46.7237      46.7237      46.7237 
  414000    91.490232   -7370.7444   -6895.4021   -750.21414     102002.7      46.7237      46.7237      46.7237 
  415000    91.549069   -7367.8817   -6892.2338   -785.08767     102002.7      46.7237      46.7237      46.7237 
  416000    93.326823   -7363.0382   -6878.1538   -538.09624     102002.7      46.7237      46.7237      46.7237 
  417000     91.00305   -7366.7698   -6893.9587   -747.20505     102002.7      46.7237      46.7237      46.7237 
  418000    93.216364   -7347.7379   -6863.4275    -455.2714     102002.7      46.7237      46.7237      46.7237 
  419000    88.822426    -7359.837   -6898.3555    -718.2584     102002.7      46.7237      46.7237      46.7237 
  420000    90.200814   -7364.4822   -6895.8391   -669.11425     102002.7      46.7237      46.7237      46.7237 
  421000    90.816931   -7375.5816   -6903.7376   -456.09439     102002.7      46.7237      46.7237      46.7237 
  422000    93.997654    -7384.625   -6896.2553   -788.69778     102002.7      46.7237      46.7237      46.7237 
  423000    94.068665    -7366.337   -6877.5983   -802.60403     102002.7      46.7237      46.7237      46.7237 
  424000    88.650718   -7387.0689   -6926.4795   -916.02866     102002.7      46.7237      46.7237      46.7237 
  425000    91.630338   -7372.8576   -6896.7874   -724.32599     102002.7      46.7237      46.7237      46.7237 
  426000    92.249237   -7355.8947    -6876.609   -585.61421     102002.7      46.7237      46.7237      46.7237 
  427000    93.141694   -7360.1691   -6876.2466   -804.40437     102002.7      46.7237      46.7237      46.7237 
  428000    91.947011   -7377.8679   -6900.1524   -523.38188     102002.7      46.7237      46.7237      46.7237 
  429000    93.786705   -7357.1997    -6869.926   -650.65143     102002.7      46.7237      46.7237      46.7237 
  430000    91.981848   -7381.3358   -6903.4393   -636.02726     102002.7      46.7237      46.7237      46.7237 
  431000    88.358473   -7361.7706   -6902.6996    -623.0431     102002.7      46.7237      46.7237      46.7237 
  432000    89.390286     -7385.31   -6920.8782   -868.11676     102002.7      46.7237      46.7237      46.7237 
  433000    90.263803    -7357.989   -6889.0187   -650.32828     102002.7      46.7237      46.7237      46.7237 
  434000     92.40738   -7374.9423    -6894.835   -689.27668     102002.7      46.7237      46.7237      46.7237 
  435000     94.29917   -7380.2405   -6890.3042   -714.56041     102002.7      46.7237      46.7237      46.7237 
  436000    89.956913   -7379.1645   -6911.7887   -606.17614     102002.7      46.7237      46.7237      46.7237 
  437000    88.782147   -7350.4122     -6889.14   -806.22365     102002.7      46.7237      46.7237      46.7237 
  438000    92.976522     -7381.65   -6898.5857   -573.89681     102002.7      46.7237      46.7237      46.7237 
  439000    89.728063   -7388.2694   -6922.0826   -803.06761     102002.7      46.7237      46.7237      46.7237 
  440000    90.749489   -7382.0396   -6910.5459    -744.7071     102002.7      46.7237      46.7237      46.7237 
  441000    93.152654    -7384.945   -6900.9656   -962.92613     102002.7      46.7237      46.7237      46.7237 
  442000    90.684247    -7360.025   -6888.8703   -829.22049     102002.7      46.7237      46.7237      46.7237 
  443000    89.464503   -7380.9612   -6916.1437    -719.0735     102002.7      46.7237      46.7237      46.7237 
  444000    91.849887   -7369.0998   -6891.8889   -527.44496     102002.7      46.7237      46.7237      46.7237 
  445000    90.601501    -7385.263   -6914.5382   -701.85842     102002.7      46.7237      46.7237      46.7237 
  446000    92.715936   -7368.3694    -6886.659   -645.83454     102002.7      46.7237      46.7237      46.7237 
  447000    90.721275   -7365.6922   -6894.3451   -750.06856     102002.7      46.7237      46.7237      46.7237 
  448000    91.217559   -7369.2097   -6895.2841   -790.09142     102002.7      46.7237      46.7237      46.7237 
  449000    92.277703   -7377.8481   -6898.4145   -748.19865     102002.7      46.7237      46.7237      46.7237 
  450000    93.245991   -7361.3573   -6876.8929   -767.76697     102002.7      46.7237      46.7237      46.7237 
  451000    89.958844   -7369.7318    -6902.346   -351.57755     102002.7      46.7237      46.7237      46.7237 
  452000    91.898928   -7362.8994   -6885.4337    -606.0362     102002.7      46.7237      46.7237      46.7237 
  453000    90.002221   -7352.7929   -6885.1817   -669.90399     102002.7      46.7237      46.7237      46.7237 
  454000    88.813077   -7382.8249   -6921.3919   -418.01256     102002.7      46.7237      46.7237      46.7237 
  455000    93.197963   -7367.0238   -6882.8089   -788.28527     102002.7      46.7237      46.7237      46.7237 
  456000    90.067949   -7361.1345   -6893.1818   -691.96428     102002.7      46.7237      46.7237      46.7237 
  457000    87.714066   -7364.4646   -6908.7416   -554.74619     102002.7      46.7237      46.7237      46.7237 
  458000    94.143505    -7367.974   -6878.8465   -931.25959     102002.7      46.7237      46.7237      46.7237 
  459000    89.465134   -7356.5324   -6891.7117   -734.16996     102002.7      46.7237      46.7237      46.7237 
  460000    87.265138   -7352.4268   -6899.0363   -943.97753     102002.7      46.7237      46.7237      46.7237 
  461000    92.946919   -7374.1778   -6891.2673   -685.71554     102002.7      46.7237      46.7237      46.7237 
  462000    90.795445   -7363.2757   -6891.5433   -804.37957     102002.7      46.7237      46.7237      46.7237 
  463000    86.856441   -7375.2474   -6923.9802   -772.24956     102002.7      46.7237      46.7237      46.7237 
  464000    92.936286   -7369.7464   -6886.8911   -626.98377     102002.7      46.7237      46.7237      46.7237 
  465000    92.084957   -7359.8427   -6881.4105   -778.97925     102002.7      46.7237      46.7237      46.7237 
  466000    91.159085   -7386.7152   -6913.0934   -756.36061     102002.7      46.7237      46.7237      46.7237 
  467000    90.888615   -7377.6852   -6905.4687   -445.84427     102002.7      46.7237      46.7237      46.7237 
  468000    91.406019   -7356.6096   -6881.7048   -401.35317     102002.7      46.7237      46.7237      46.7237 
  469000    93.555835    -7365.617   -6879.5428      -632.36     102002.7      46.7237      46.7237      46.7237 
  470000    89.318375   -7368.9189   -6904.8607   -813.93786     102002.7      46.7237      46.7237      46.7237 
  471000     91.80831    -7363.204   -6886.2091   -508.38086     102002.7      46.7237      46.7237      46.7237 
  472000    88.698308   -7365.6462   -6904.8095   -547.75628     102002.7      46.7237      46.7237      46.7237 
  473000    93.224836   -7360.0539   -6875.6994   -409.88589     102002.7      46.7237      46.7237      46.7237 
  474000     91.26397   -7364.1537    -6889.987   -595.12342     102002.7      46.7237      46.7237      46.7237 
  475000     89.44809   -7375.6737   -6910.9415   -647.74291     102002.7      46.7237      46.7237      46.7237 
  476000    93.339536   -7381.4449   -6896.4945   -489.72546     102002.7      46.7237      46.7237      46.7237 
  477000    91.184567   -7377.5059   -6903.7517   -668.25524     102002.7      46.7237      46.7237      46.7237 
  478000    91.737809   -7362.7891   -6886.1606   -594.00283     102002.7      46.7237      46.7237      46.7237 
  479000    88.359301   -7361.2562   -6902.1808   -651.51484     102002.7      46.7237      46.7237      46.7237 
  480000     90.07718    -7369.304   -6901.3033   -760.83315     102002.7      46.7237      46.7237      46.7237 
  481000    89.165454   -7376.0047   -6912.7409   -507.42158     102002.7      46.7237      46.7237      46.7237 
  482000     90.67717    -7368.193    -6897.075   -708.48492     102002.7      46.7237      46.7237      46.7237 
  483000     94.27351   -7375.8192   -6886.0163   -873.70065     102002.7      46.7237      46.7237      46.7237 
  484000    91.847035   -7366.9137   -6889.7176   -688.89286     102002.7      46.7237      46.7237      46.7237 
  485000    92.790697   -7369.0753   -6886.9764   -1016.5333     102002.7      46.7237      46.7237      46.7237 
  486000    93.447784   -7360.0317   -6874.5188   -538.61328     102002.7      46.7237      46.7237      46.7237 
  487000    87.010842   -7353.0888   -6901.0194   -747.72194     102002.7      46.7237      46.7237      46.7237 
  488000    88.509384   -7359.7804   -6899.9253   -897.50934     102002.7      46.7237      46.7237      46.7237 
  489000    91.321044   -7353.2934   -6878.8301   -851.46075     102002.7      46.7237      46.7237      46.7237 
  490000    91.903394   -7376.9827   -6899.4939   -731.91777     102002.7      46.7237      46.7237      46.7237 
  491000    92.904966    -7374.519   -6891.8264    -623.5156     102002.7      46.7237      46.7237      46.7237 
  492000    90.987617    -7361.803   -6889.0722   -560.61235     102002.7      46.7237      46.7237      46.7237 
  493000    89.439212    -7360.826   -6896.1399   -491.18371     102002.7      46.7237      46.7237      46.7237 
  494000    90.201345   -7370.9338    -6902.288   -599.39895     102002.7      46.7237      46.7237      46.7237 
  495000    90.655899   -7357.6047   -6886.5973   -558.92142     102002.7      46.7237      46.7237      46.7237 
  496000    91.554974    -7368.253   -6892.5744   -791.69719     102002.7      46.7237      46.7237      46.7237 
  497000    88.287299   -7384.5787   -6925.8775   -674.55388     102002.7      46.7237      46.7237      46.7237 
  498000    90.013459   -7356.0075   -6888.3379   -761.30039     102002.7      46.7237      46.7237      46.7237 
  499000    90.299375   -7387.0499   -6917.8948   -748.97849     102002.7      46.7237      46.7237      46.7237 
  500000    89.614304   -7368.9491   -6903.3534    -615.9634     102002.7      46.7237      46.7237      46.7237 
  500505    93.243088   -7351.1241   -6866.6747   -740.56931     102002.7      46.7237      46.7237      46.7237 
Loop time of 1276.62 on 16 procs for 500000 steps with 1744 atoms

Performance: 33.839 ns/day, 0.709 hours/ns, 391.659 timesteps/s
99.8% CPU use with 16 MPI tasks x no OpenMP threads

MPI task timing breakdown:
Section |  min time  |  avg time  |  max time  |%varavg| %total
---------------------------------------------------------------
Pair    | 525.35     | 686.54     | 916.03     | 463.7 | 53.78
Bond    | 165.86     | 174.01     | 190.16     |  56.0 | 13.63
Neigh   | 3.4684     | 3.4974     | 3.5502     |   1.6 |  0.27
Comm    | 155.93     | 399.23     | 568.39     | 616.8 | 31.27
Output  | 0.020564   | 0.020941   | 0.024225   |   0.6 |  0.00
Modify  | 7.7507     | 8.0795     | 8.6055     |   7.8 |  0.63
Other   |            | 5.242      |            |       |  0.41

Nlocal:    109 ave 138 max 89 min
Histogram: 1 1 5 3 2 0 1 1 1 1
Nghost:    2216.38 ave 2239 max 2189 min
Histogram: 1 2 1 0 1 2 4 3 1 1
Neighs:    11451.1 ave 16808 max 7909 min
Histogram: 4 2 2 1 1 1 2 1 1 1

Total # of neighbors = 183218
Ave neighs/atom = 105.056
Ave special neighs/atom = 6.6055
Neighbor list builds = 3001
Dangerous builds = 0
Neighbor list info ...
  update every 1 steps, delay 10 steps, check yes
  max neighbors/atom: 2000, page size: 100000
  master list distance cutoff = 16
  ghost atom cutoff = 16
  binsize = 8, bins = 6 6 6
  3 neighbor lists, perpetual/occasional/extra = 3 0 0
  (1) pair buck6d/coul/gauss/dsf, perpetual, skip from (3)
      attributes: half, newton on
      pair build: skip
      stencil: none
      bin: none
  (2) pair lj/cut, perpetual, skip from (3)
      attributes: half, newton on
      pair build: skip
      stencil: none
      bin: none
  (3) neighbor class addition, perpetual
      attributes: half, newton on
      pair build: half/bin/newton
      stencil: half/bin/3d/newton
      bin: standard
Setting up Verlet run ...
  Unit style    : real
  Current step  : 500505
  Time step     : 1
WARNING: Inconsistent image flags (../domain.cpp:786)
Per MPI rank memory allocation (min/avg/max) = 22.87 | 23.2 | 23.34 Mbytes
Step Time TotEng KinEng PotEng E_mol E_pair Temp Pxx Pyy Pzz Pxy Pxz Pyz Cella Cellb Cellc CellAlpha CellBeta CellGamma Volume Press 
  500505       500000   -6866.6747    484.44931   -7351.1241    4226.4153   -11577.539    93.243088   -619.17259   -636.87499   -965.66034   -139.13188   -56.527682    3.3783263      46.7237      46.7237      46.7237           90           90           90     102002.7   -740.56931 
  501000       500495    -6887.174     476.3853   -7363.5593    4200.8305    -11564.39     91.69099   -593.89475   -1099.6953   -579.09471   -4.0576077    6.7130337   -91.363255      46.7237      46.7237      46.7237           90           90           90     102002.7    -757.5616 
  502000       501495   -6896.1966    478.26753   -7374.4642    4192.9702   -11567.434    92.053268   -440.31141   -544.33851   -600.40979   -149.48127   -10.034301   -29.899724      46.7237      46.7237      46.7237           90           90           90     102002.7   -528.35323 
  503000       502495   -6898.6787    479.57808   -7378.2568    4187.0197   -11565.276    92.305513   -399.41453   -309.31801   -786.27115    90.529876   -137.35968   -90.250113      46.7237      46.7237      46.7237           90           90           90     102002.7   -498.33456 
  504000       503495   -6899.4033    468.09871   -7367.5021    4212.7967   -11580.299    90.096051   -549.95536   -931.75053   -991.58383   -46.892693   -76.957163    244.77673      46.7237      46.7237      46.7237           90           90           90     102002.7    -824.4299 
  505000       504495   -6879.7846    494.89044    -7374.675    4208.8247     -11583.5    95.252717   -474.20404   -455.90522   -640.84157    165.01463   -139.96785   -47.270113      46.7237      46.7237      46.7237           90           90           90     102002.7   -523.65028 
  506000       505495    -6892.318    481.44394   -7373.7619    4194.2064   -11567.968    92.664639   -287.27911   -143.32076   -931.55357   -71.701619    78.189321    22.800972      46.7237      46.7237      46.7237           90           90           90     102002.7   -454.05115 
  507000       506495   -6879.1915    473.09472   -7352.2862    4234.8189   -11587.105    91.057645   -581.24839   -441.34486   -754.79409   -49.690156   -115.35333   -155.16933      46.7237      46.7237      46.7237           90           90           90     102002.7   -592.46245 
  508000       507495   -6896.2729    469.19272   -7365.4656    4201.9217   -11567.387    90.306618   -444.76535    -774.7939   -433.62905   -110.33853   -37.437554    95.131474      46.7237      46.7237      46.7237           90           90           90     102002.7   -551.06277 
  509000       508495   -6907.1248    457.54089   -7364.6657    4206.6747    -11571.34    88.063962   -435.79964   -665.89549   -586.66509   -158.76796    199.98654    203.51427      46.7237      46.7237      46.7237           90           90           90     102002.7   -562.78674 
  510000       509495   -6902.4327    469.06006   -7371.4928    4212.0438   -11583.537    90.281084    -698.3212   -1134.6793   -283.30075   -231.80503    115.31837    208.97625      46.7237      46.7237      46.7237           90           90           90     102002.7   -705.43375 
  511000       510495   -6899.2534    473.01464   -7372.2681    4210.3186   -11582.587    91.042232   -378.58992   -622.98751   -1002.0357   -85.079446    235.36785   -61.287905      46.7237      46.7237      46.7237           90           90           90     102002.7   -667.87105 
  512000       511495   -6873.8171    478.50665   -7352.3237    4234.8641   -11587.188    92.099291   -542.29913   -553.39384   -565.57731    212.18587   -70.495055    40.258916      46.7237      46.7237      46.7237           90           90           90     102002.7   -553.75676 
  513000       512495   -6900.5189    475.57214    -7376.091    4209.9493    -11586.04     91.53448    -432.4208   -464.60693   -1018.2076    53.390733     41.95976   -5.6023714      46.7237      46.7237      46.7237           90           90           90     102002.7   -638.41177 
  514000       513495   -6899.0795    484.91931   -7383.9988     4189.245   -11573.244    93.333552    -911.5064   -390.56518   -846.21388    5.1756819    97.296027    54.041567      46.7237      46.7237      46.7237           90           90           90     102002.7   -716.09516 
  515000       514495   -6860.5242    493.73181    -7354.256    4227.9618   -11582.218    95.029713    -935.8605    -735.5326   -956.25596    202.58653   -86.256371   -24.324092      46.7237      46.7237      46.7237           90           90           90     102002.7   -875.88302 
  516000       515495   -6895.1136    479.92215   -7375.0358    4214.5455   -11589.581    92.371736   -902.75125   -863.60539   -927.95258    2.7877401   -100.72689    51.492529      46.7237      46.7237      46.7237           90           90           90     102002.7   -898.10307 
  517000       516495   -6919.3597    472.08052   -7391.4402    4184.6385   -11576.079     90.86244   -689.54864    -415.9317   -566.29073   -85.278066   -28.423263   -264.43304      46.7237      46.7237      46.7237           90           90           90     102002.7   -557.25703 
  518000       517495   -6884.9674    480.65972   -7365.6271     4222.168   -11587.795    92.513699   -668.08935   -893.97744   -698.65403   -86.467845   -40.932667    37.852965      46.7237      46.7237      46.7237           90           90           90     102002.7    -753.5736 
  519000       518495   -6891.6072    466.00175    -7357.609    4233.5303   -11591.139    89.692444    -931.1428   -693.53847   -867.88211    10.137352    83.576567    234.03019      46.7237      46.7237      46.7237           90           90           90     102002.7   -830.85446 
  520000       519495   -6907.7067    462.23773   -7369.9444    4212.2741   -11582.219    88.967975   -723.36715   -845.06199   -514.51649    43.850842   -95.637853    90.644253      46.7237      46.7237      46.7237           90           90           90     102002.7   -694.31521 
  521000       520495    -6866.139    481.23468   -7347.3737    4243.6426   -11591.016    92.624362   -244.21875   -815.23378   -487.55475   -112.92643   -160.61355     146.9347      46.7237      46.7237      46.7237           90           90           90     102002.7   -515.66909 
  522000       521495   -6895.2205    485.65466   -7380.8752    4194.3793   -11575.255    93.475086   -351.17239   -734.50105   -735.59905    14.174122    65.531929   -13.692734      46.7237      46.7237      46.7237           90           90           90     102002.7   -607.09083 
  523000       522495    -6914.405    452.77218   -7367.1772    4223.8939   -11591.071    87.146118   -935.14099   -551.31819   -198.80194    81.621642    55.131383    190.32607      46.7237      46.7237      46.7237           90           90           90     102002.7   -561.75371 
  524000       523495   -6904.3891    477.35079   -7381.7399    4206.8724   -11588.612     91.87682   -307.75118   -664.78006   -838.56662   -121.34539   -291.61798    2.2072714      46.7237      46.7237      46.7237           90           90           90     102002.7   -603.69928 
  525000       524495   -6879.6629    476.12036   -7355.7832    4204.3803   -11560.164    91.639997   -387.50143   -667.54729    -623.0913   -285.80474   -58.990481   -154.13282      46.7237      46.7237      46.7237           90           90           90     102002.7      -559.38 
  526000       525495   -6875.2881     491.2502   -7366.5383    4230.3929   -11596.931    94.552072   -416.01387   -861.14555   -538.01924    10.803945   -166.79824   -65.349098      46.7237      46.7237      46.7237           90           90           90     102002.7   -605.05955 
  527000       526495   -6884.5269    476.33057   -7360.8575    4219.7442   -11580.602    91.680457   -705.94815    -420.1154   -593.49614    242.12617   -171.07966    -125.0093      46.7237      46.7237      46.7237           90           90           90     102002.7   -573.18656 
  528000       527495   -6917.4814    457.23086   -7374.7122    4197.8163   -11572.528     88.00429   -770.28749   -624.23304   -735.75358   -105.68605    55.988513    173.01058      46.7237      46.7237      46.7237           90           90           90     102002.7   -710.09137 
  529000       528495   -6880.9951    482.29644   -7363.2915    4214.6718   -11577.963    92.828721   -723.55668   -238.35293   -1183.5543    146.64631   -125.08103    52.614287      46.7237      46.7237      46.7237           90           90           90     102002.7   -715.15463 
  530000       529495   -6895.8223    474.68123   -7370.5035    4196.8667    -11567.37    91.363003   -531.00827   -118.31852   -316.98926    324.82873   -291.07466    -83.58878      46.7237      46.7237      46.7237           90           90           90     102002.7   -322.10535 
  531000       530495   -6893.3474     480.7364   -7374.0838    4209.0842   -11583.168    92.528456   -846.63111   -671.04349    -396.3894      258.773    31.568045   -125.80989      46.7237      46.7237      46.7237           90           90           90     102002.7   -638.02133 
  532000       531495   -6896.3971    469.32372   -7365.7208    4200.7116   -11566.432    90.331832     -312.102   -453.87545   -500.16436    199.33004   -49.371161   -122.12557      46.7237      46.7237      46.7237           90           90           90     102002.7   -422.04727 
  533000       532495    -6896.188    474.10569   -7370.2937    4217.9126   -11588.206    91.252228   -537.93436   -761.04507   -320.01953    151.19463    50.890373    183.36902      46.7237      46.7237      46.7237           90           90           90     102002.7   -539.66632 
  534000       533495   -6915.4069    459.22242   -7374.6293    4181.6639   -11556.293     88.38761   -844.40902   -831.93568   -277.93234   -13.855624    36.808235    135.32245      46.7237      46.7237      46.7237           90           90           90     102002.7   -651.42568 
  535000       534495   -6888.9844    473.64344   -7362.6279    4220.3113   -11582.939    91.163258   -372.24856   -547.76775   -883.36703   -12.270733    425.08919   -127.12566      46.7237      46.7237      46.7237           90           90           90     102002.7   -601.12778 
  536000       535495   -6882.2225    486.06114   -7368.2837    4212.6742   -11580.958    93.553321   -691.36558    -859.6167    -939.0105    -97.23931    18.660246    86.299409      46.7237      46.7237      46.7237           90           90           90     102002.7   -829.99759 
  537000       536495   -6916.1177    466.03928   -7382.1569    4195.5573   -11577.714    89.699667    -604.0685   -580.20809   -841.66882    241.99594    36.017683    337.88894      46.7237      46.7237      46.7237           90           90           90     102002.7   -675.31514 
  538000       537495   -6886.9339    476.04645   -7362.9803    4218.3901    -11581.37    91.625771   -610.38533   -476.56918   -1312.7139    158.01258    61.845608    68.377081      46.7237      46.7237      46.7237           90           90           90     102002.7   -799.88948 
  539000       538495   -6899.2733    478.07798   -7377.3513    4199.5248   -11576.876    92.016785   -480.53244   -855.11009   -676.15234    46.821949   -218.41228   -87.224758      46.7237      46.7237      46.7237           90           90           90     102002.7   -670.59829 
  540000       539495    -6873.912    476.42263   -7350.3347     4230.007   -11580.342    91.698175   -827.44782   -1016.7089   -292.98024    11.860108   -141.38691    189.90583      46.7237      46.7237      46.7237           90           90           90     102002.7   -712.37901 
  541000       540495    -6901.446    475.56562   -7377.0116    4195.3976   -11572.409    91.533224   -601.99938   -1101.9823   -697.67332   -186.22438   -62.426395    78.163975      46.7237      46.7237      46.7237           90           90           90     102002.7   -800.55167 
  542000       541495   -6922.4991    458.56535   -7381.0644    4205.6503   -11586.715    88.261143   -511.34238    -983.9334   -998.58886    196.67592   -224.62538   -149.49046      46.7237      46.7237      46.7237           90           90           90     102002.7   -831.28821 
  543000       542495   -6883.0808    475.00967   -7358.0905    4205.4551   -11563.546    91.426219    -629.9449   -653.90324   -484.95083   -68.532985   -295.24161    52.142807      46.7237      46.7237      46.7237           90           90           90     102002.7   -589.59966 
  544000       543495   -6907.9254    464.05929   -7371.9846    4204.5673   -11576.552    89.318575    -684.7136   -709.31612   -874.18121   -14.793942    38.859858    112.03729      46.7237      46.7237      46.7237           90           90           90     102002.7   -756.07031 
  545000       544495   -6905.4318    463.71181   -7369.1436    4219.5348   -11588.678    89.251694   -698.80307   -746.79912   -962.14279    -35.35382    -188.6547    77.878348      46.7237      46.7237      46.7237           90           90           90     102002.7   -802.58166 
  546000       545495   -6866.9133    479.42686   -7346.3402    4233.7374   -11580.078    92.276407   -690.83042    -407.0418   -593.42869   -28.662737    21.042355   -89.250084      46.7237      46.7237      46.7237           90           90           90     102002.7   -563.76697 
  547000       546495   -6901.9542    460.14413   -7362.0984    4211.2577   -11573.356    88.565015   -680.57128   -1041.9283   -294.58554  -0.70955842    72.672669   -58.670661      46.7237      46.7237      46.7237           90           90           90     102002.7    -672.3617 
  548000       547495   -6891.5454     469.5956   -7361.1409    4210.8141   -11571.955    90.384161   -1013.0387    -519.7001   -832.90659    -55.12137    360.61776   -25.356922      46.7237      46.7237      46.7237           90           90           90     102002.7   -788.54846 
  549000       548495   -6879.4688    465.10428    -7344.573     4236.085   -11580.658    89.519706   -770.17291   -349.85551   -397.33955    54.123932     97.11291   -241.79629      46.7237      46.7237      46.7237           90           90           90     102002.7   -505.78933 
  550000       549495   -6900.2534    470.35014   -7370.6035    4204.1346   -11574.738    90.529389   -491.01117   -583.98411   -405.42378    2.1469267   -15.670387   -105.01186      46.7237      46.7237      46.7237           90           90           90     102002.7   -493.47302 
  551000       550495   -6867.7244    492.36347   -7360.0879    4222.6563   -11582.744    94.766345   -344.94799   -918.38077   -545.81521   -174.41349    73.230445    5.9118379      46.7237      46.7237      46.7237           90           90           90     102002.7   -603.04799 
  552000       551495   -6892.6749    471.94059   -7364.6155     4211.476   -11576.092    90.835507   -544.00703   -812.79885    -699.4536     62.45093     234.7415   -79.272197      46.7237      46.7237      46.7237           90           90           90     102002.7   -685.41983 
  553000       552495   -6894.7776    471.42434    -7366.202    4214.9013   -11581.103    90.736143   -741.78014   -937.51624    -586.4314   -104.34163    102.46025   -154.43648      46.7237      46.7237      46.7237           90           90           90     102002.7   -755.24259 
  554000       553495   -6905.3131    451.44922   -7356.7623    4219.8745   -11576.637    86.891486   -806.95211   -694.77557   -887.81537   -171.69432    252.55071   -290.21238      46.7237      46.7237      46.7237           90           90           90     102002.7   -796.51435 
  555000       554495   -6921.0867    460.20345   -7381.2901    4185.2116   -11566.502    88.576431   -865.91034   -897.42405   -698.11312    66.072119     60.42731   -220.40607      46.7237      46.7237      46.7237           90           90           90     102002.7   -820.48251 
[...]
  936000       935495   -6900.3545    490.27944    -7390.634    4198.2158    -11588.85    94.365227   -816.79628   -547.11067   -611.81219   -121.37457   -113.49078    120.03832      46.7237      46.7237      46.7237           90           90           90     102002.7   -658.57305 
  937000       936495   -6903.2429    479.52056   -7382.7635    4181.3254   -11564.089     92.29444   -518.82883   -926.50255    -525.5057    245.04097   -98.676503    249.37213      46.7237      46.7237      46.7237           90           90           90     102002.7   -656.94569 
  938000       937495   -6921.7237    460.92137   -7382.6451    4195.9273   -11578.572    88.714612   -713.77339   -839.63398   -62.347059   -9.9251734     2.204599   -145.80155      46.7237      46.7237      46.7237           90           90           90     102002.7   -538.58481 
  939000       938495   -6886.8279    477.58286   -7364.4108    4215.5977   -11580.009    91.921488   -871.71628   -564.21457   -717.58508     57.60127   -69.280387    86.047322      46.7237      46.7237      46.7237           90           90           90     102002.7   -717.83864 
  940000       939495   -6878.8206    481.62269   -7360.4433    4216.6111   -11577.054    92.699044   -664.80854   -844.63547   -515.64119    124.49903   -118.16643    369.11135      46.7237      46.7237      46.7237           90           90           90     102002.7    -675.0284 
  941000       940495   -6915.6602    449.30346   -7364.9636    4227.4682   -11592.432    86.478485   -1121.3258   -537.97293   -1154.7054    239.91715    63.734568     256.9724      46.7237      46.7237      46.7237           90           90           90     102002.7   -938.00139 
  942000       941495   -6899.3544    474.71333   -7374.0678    4210.8798   -11584.948    91.369182   -655.56328   -634.20283   -567.18982   -106.37527    10.392143     154.8903      46.7237      46.7237      46.7237           90           90           90     102002.7   -618.98531 
  943000       942495   -6895.3149    474.00498   -7369.3199    4219.8796   -11589.199    91.232845   -474.00256   -338.21528   -471.69646     175.6857    46.287864    145.73958      46.7237      46.7237      46.7237           90           90           90     102002.7   -427.97144 
  944000       943495   -6921.8005    461.23497   -7383.0354    4187.9514   -11570.987     88.77497   -921.82912   -476.93159   -232.07029     149.0949     71.18532    69.151593      46.7237      46.7237      46.7237           90           90           90     102002.7   -543.61033 
  945000       944495   -6887.7914     470.2774   -7358.0688    4242.9098   -11600.979    90.515389   -944.53901   -819.18178    -496.9723    3.9286113    -36.67967     125.5732      46.7237      46.7237      46.7237           90           90           90     102002.7   -753.56436 
  946000       945495   -6872.1061    481.27089    -7353.377    4220.7367   -11574.114    92.631331   -690.96149   -604.55417    -750.3395    123.84986   -32.436296    47.967483      46.7237      46.7237      46.7237           90           90           90     102002.7   -681.95172 
  947000       946495   -6910.2577    471.71204   -7381.9697    4191.1687   -11573.138    90.791517   -952.52735   -562.42795   -920.32001   -96.766185    124.26233   -39.520325      46.7237      46.7237      46.7237           90           90           90     102002.7   -811.75844 
  948000       947495   -6889.6628    495.22806   -7384.8908    4188.5724   -11573.463      95.3177   -1004.9859   -807.15024   -505.05491   -170.93265    16.570087    -91.04565      46.7237      46.7237      46.7237           90           90           90     102002.7   -772.39702 
  949000       948495   -6906.0227    474.64982   -7380.6725    4185.2246   -11565.897    91.356959    -485.3887   -1125.9652   -566.66485    15.165333    16.246915    11.935861      46.7237      46.7237      46.7237           90           90           90     102002.7   -726.00626 
  950000       949495   -6905.9488    458.37405   -7364.3229    4210.6764   -11574.999    88.224323   -438.49386   -498.23729   -617.80569   -54.945336    56.248789   -68.591156      46.7237      46.7237      46.7237           90           90           90     102002.7   -518.17895 
  951000       950495   -6893.8687    477.11234    -7370.981    4193.9325   -11564.914    91.830926   -991.65051   -380.00289   -840.52297    85.043956    124.20064   -35.777865      46.7237      46.7237      46.7237           90           90           90     102002.7   -737.39212 
  952000       951495    -6906.263    460.69772   -7366.9607    4213.1621   -11580.123    88.671565   -861.37683   -414.29552   -490.75084   -30.389868   -152.44767    26.553508      46.7237      46.7237      46.7237           90           90           90     102002.7   -588.80773 
  953000       952495   -6881.7555    490.70116   -7372.4567    4216.5375   -11588.994    94.446398   -656.79094   -711.49706   -751.41409   -156.77105    26.441317   -38.614817      46.7237      46.7237      46.7237           90           90           90     102002.7   -706.56736 
  954000       953495   -6916.5315    446.79772   -7363.3292    4216.5734   -11579.903    85.996199   -1078.7541   -708.89567   -299.14704    228.38127   -12.662248   -37.865666      46.7237      46.7237      46.7237           90           90           90     102002.7   -695.59895 
  955000       954495    -6880.762    488.58192   -7369.3439    4202.0867   -11571.431    94.038503    -478.3697   -709.50543   -613.40445   -45.504348    -197.9451   -180.60613      46.7237      46.7237      46.7237           90           90           90     102002.7   -600.42653 
  956000       955495   -6887.7167    483.00502   -7370.7218    4203.7015   -11574.423    92.965103   -641.28122   -984.09747   -798.14494     46.87571    162.74334    109.69876      46.7237      46.7237      46.7237           90           90           90     102002.7   -807.84121 
  957000       956495   -6905.5307      472.009   -7377.5397    4219.8511   -11597.391    90.848673    -859.8327   -803.00538   -678.93059   -25.414603   -29.839774    46.937899      46.7237      46.7237      46.7237           90           90           90     102002.7   -780.58956 
  958000       957495   -6922.6406    460.77836   -7383.4189    4206.8928   -11590.312    88.687085   -396.41431   -702.05319    -467.4409    6.1919387    47.491289    95.147002      46.7237      46.7237      46.7237           90           90           90     102002.7   -521.96947 
  959000       958495   -6888.9573    471.19378    -7360.151    4229.6804   -11589.831    90.691766   -673.64024   -835.92803   -836.13522   -16.905158    53.631234   -41.187971      46.7237      46.7237      46.7237           90           90           90     102002.7   -781.90116 
  960000       959495   -6894.1258    476.47008   -7370.5959    4219.8619   -11590.458    91.707308   -896.01357   -684.31478     -893.438     184.2113    -67.71497    190.96655      46.7237      46.7237      46.7237           90           90           90     102002.7   -824.58878 
  961000       960495   -6874.3711    484.84592    -7359.217    4235.5793   -11594.796    93.319425   -1081.1292   -1057.9878   -697.66442    255.30551    207.54518    205.35034      46.7237      46.7237      46.7237           90           90           90     102002.7   -945.59379 
  962000       961495    -6902.589    471.76619   -7374.3552    4208.0211   -11582.376     90.80194   -750.92085   -656.25144    -981.3253   -20.636849   -12.568863    209.56106      46.7237      46.7237      46.7237           90           90           90     102002.7   -796.16586 
  963000       962495   -6886.7912    476.88579   -7363.6769    4216.8128    -11580.49     91.78732   -655.70274   -919.29366   -588.51754   -106.18551   -23.228798   -20.641897      46.7237      46.7237      46.7237           90           90           90     102002.7   -721.17131 
  964000       963495   -6888.2679     475.7885   -7364.0564    4228.6992   -11592.756    91.576122   -822.92122   -842.32714   -896.81456   -20.722444   -65.899028    37.787302      46.7237      46.7237      46.7237           90           90           90     102002.7   -854.02097 
  965000       964495   -6899.9413     462.0451   -7361.9864    4219.1527   -11581.139    88.930898   -771.06536   -967.24865   -638.79619   -108.28505   -29.747891   -17.794627      46.7237      46.7237      46.7237           90           90           90     102002.7   -792.37006 
  966000       965495   -6893.5653    480.59977    -7374.165     4207.159   -11581.324     92.50216   -992.36853   -628.51343   -228.16542    82.632769    40.984241    260.17293      46.7237      46.7237      46.7237           90           90           90     102002.7   -616.34913 
  967000       966495    -6908.825    462.05613   -7370.8811    4212.5029   -11583.384    88.933021   -538.16591   -815.62829   -723.55276   -93.291465    11.287996    161.59671      46.7237      46.7237      46.7237           90           90           90     102002.7   -692.44899 
  968000       967495   -6911.9119    462.74564   -7374.6575    4198.8573   -11573.515    89.065732   -466.61191   -551.35179   -487.45538    299.94179    23.738156    274.82074      46.7237      46.7237      46.7237           90           90           90     102002.7   -501.80636 
  969000       968495     -6902.95    468.90422   -7371.8542    4226.9562    -11598.81    90.251089   -1068.3419   -953.34559    -513.1074   -175.71602    96.234704    59.387925      46.7237      46.7237      46.7237           90           90           90     102002.7   -844.93164 
  970000       969495   -6894.0818     467.7962    -7361.878    4211.9155   -11573.794    90.037827   -776.82042   -392.64023   -594.84283    68.472276    171.92889   -46.066437      46.7237      46.7237      46.7237           90           90           90     102002.7   -588.10116 
  971000       970495   -6906.1052    460.07253   -7366.1777    4205.3631   -11571.541    88.551233   -659.53701   -667.05311   -529.38425    278.04339    5.9232364    99.242857      46.7237      46.7237      46.7237           90           90           90     102002.7   -618.65812 
  972000       971495   -6888.6665    465.52952    -7354.196    4222.6675   -11576.863    89.601554   -715.86552    -478.3769   -983.57592   -101.49503    21.495006   -124.45943      46.7237      46.7237      46.7237           90           90           90     102002.7   -725.93944 
  973000       972495   -6877.0003    472.75692   -7349.7572    4238.8133    -11588.57    90.992628   -745.93625   -892.90637   -857.82423    11.542928    317.05822    53.198127      46.7237      46.7237      46.7237           90           90           90     102002.7   -832.22228 
  974000       973495    -6887.465    480.02353   -7367.4885    4215.3112     -11582.8    92.391248   -650.93484   -973.66874   -272.02074   -76.547961   -183.27992   -224.49831      46.7237      46.7237      46.7237           90           90           90     102002.7    -632.2081 
  975000       974495    -6920.442    463.35046   -7383.7925    4201.6805   -11585.473    89.182144    -606.3455   -635.30671   -316.03008    160.28768   -2.2130265   -43.050261      46.7237      46.7237      46.7237           90           90           90     102002.7   -519.22743 
  976000       975495   -6887.9797    478.15345   -7366.1332     4224.341   -11590.474    92.031311   -860.93228   -566.14304   -1031.0506   -11.678657    27.858715    24.353594      46.7237      46.7237      46.7237           90           90           90     102002.7   -819.37531 
  977000       976495   -6918.8158    463.65304   -7382.4688    4190.5445   -11573.013    89.240383   -547.87646   -940.80119   -555.36436    46.959251    8.6574175   -105.94036      46.7237      46.7237      46.7237           90           90           90     102002.7   -681.34734 
  978000       977495    -6897.084    475.11574   -7372.1997    4226.9451   -11599.145    91.446636   -778.06578   -366.25463    -880.8922   -10.280269   -73.460724    266.74766      46.7237      46.7237      46.7237           90           90           90     102002.7   -675.07087 
  979000       978495   -6879.1568    482.62986   -7361.7867    4206.4733    -11568.26    92.892896   -799.35707   -270.68652   -648.80614   -75.065721   -7.2792043    50.221869      46.7237      46.7237      46.7237           90           90           90     102002.7   -572.94991 
  980000       979495   -6891.2387    478.22953   -7369.4682    4230.0201   -11599.488    92.045954   -893.44642    -708.9218   -1133.0787   -58.699887    21.386449   -193.03296      46.7237      46.7237      46.7237           90           90           90     102002.7   -911.81563 
  981000       980495   -6910.0621    458.48836   -7368.5505    4213.8343   -11582.385    88.246324   -901.63135    -344.1582   -1043.8244   -48.159374    207.24402   -53.615606      46.7237      46.7237      46.7237           90           90           90     102002.7   -763.20465 
  982000       981495   -6883.5355    474.48503   -7358.0205    4216.9764   -11574.997     91.32524   -792.11422   -939.04386   -539.59846   -201.09602    195.67137   -55.032031      46.7237      46.7237      46.7237           90           90           90     102002.7   -756.91885 
  983000       982495   -6871.8155    479.03545    -7350.851    4222.9986    -11573.85    92.201071    -908.6686   -988.85742   -768.41845    34.035102   -343.54081   -219.74327      46.7237      46.7237      46.7237           90           90           90     102002.7   -888.64815 
  984000       983495   -6897.8496    468.57234    -7366.422    4217.5456   -11583.968    90.187211   -533.24896   -1113.5037   -853.49845    231.60812    119.17002    19.639548      46.7237      46.7237      46.7237           90           90           90     102002.7   -833.41703 
  985000       984495   -6875.4676    488.09308   -7363.5607    4218.1109   -11581.672    93.944414   -970.92191   -677.58857   -429.89204     320.7055    191.48239   -33.181332      46.7237      46.7237      46.7237           90           90           90     102002.7   -692.80084 
  986000       985495   -6885.6945    477.77035   -7363.4648     4197.251   -11560.716    91.957575   -323.53486   -1174.9636   -724.55063   -26.939561    90.970523    93.784982      46.7237      46.7237      46.7237           90           90           90     102002.7   -741.01636 
  987000       986495   -6909.5101    462.74774   -7372.2579    4216.2105   -11588.468    89.066138   -859.92609   -752.75193    -618.8878    99.357936    247.84145   -121.69542      46.7237      46.7237      46.7237           90           90           90     102002.7   -743.85527 
  988000       987495   -6907.5149    473.55938   -7381.0743    4200.0844   -11581.159    91.147078   -769.95488   -542.52693   -541.06945   -1.9499322   -187.54013   -92.857983      46.7237      46.7237      46.7237           90           90           90     102002.7   -617.85042 
  989000       988495   -6915.5181    468.13733   -7383.6555    4203.8902   -11587.546    90.103484   -516.34474   -469.50456   -739.89682    -94.18469   -196.59978   -85.872352      46.7237      46.7237      46.7237           90           90           90     102002.7   -575.24871 
  990000       989495   -6889.7989    478.91916    -7368.718    4197.0276   -11565.746    92.178688   -611.71044   -792.48936   -834.48448   -21.706278    54.316528    138.82081      46.7237      46.7237      46.7237           90           90           90     102002.7   -746.22809 
  991000       990495   -6891.0085    468.75837   -7359.7669    4217.1873   -11576.954    90.223016   -776.97997   -647.53359   -615.47245   -164.86566   -69.482469    165.97817      46.7237      46.7237      46.7237           90           90           90     102002.7   -679.99533 
  992000       991495   -6883.5106    487.48725   -7370.9978    4208.3383   -11579.336    93.827808   -868.23168   -300.65373   -475.27272   -164.85088   -64.377197    37.022886      46.7237      46.7237      46.7237           90           90           90     102002.7   -548.05271 
  993000       992495   -6895.1719    479.66211    -7374.834    4199.4097   -11574.244    92.321685    -1115.309   -719.44451   -569.33596    133.60292   -84.149924   -3.9994422      46.7237      46.7237      46.7237           90           90           90     102002.7   -801.36316 
  994000       993495   -6885.7395    489.46963   -7375.2091    4189.5108    -11564.72    94.209361   -294.61387   -757.73662   -751.31747    152.81575    -238.7411    19.679317      46.7237      46.7237      46.7237           90           90           90     102002.7   -601.22265 
  995000       994495   -6883.3931    479.47767   -7362.8708    4221.0333   -11583.904    92.286186   -569.02988    -260.7576   -1061.3551    12.075475    162.05466    56.174922      46.7237      46.7237      46.7237           90           90           90     102002.7   -630.38086 
  996000       995495   -6900.0063    475.29823   -7375.3045    4214.2438   -11589.548    91.481759   -953.75151   -676.89004   -1016.7721    200.04695    59.555278     43.19315      46.7237      46.7237      46.7237           90           90           90     102002.7   -882.47123 
  997000       996495   -6913.5485     459.2084   -7372.7569     4218.189   -11590.946    88.384912   -836.61892   -659.58156   -726.27285    45.381038    11.345761    89.673251      46.7237      46.7237      46.7237           90           90           90     102002.7   -740.82444 
  998000       997495   -6886.4274    467.88973   -7354.3171    4221.3114   -11575.629    90.055828   -734.00326   -1052.1752   -939.97989   -82.317042    107.15522    165.94302      46.7237      46.7237      46.7237           90           90           90     102002.7   -908.71945 
  999000       998495   -6913.2257    462.96206   -7376.1878    4202.7411   -11578.929    89.107387   -635.87416   -500.02313   -848.77318   -217.22018    214.44296   -90.741229      46.7237      46.7237      46.7237           90           90           90     102002.7   -661.55682 
 1000000       999495   -6898.8097    456.50696   -7355.3167    4217.9681   -11573.285    87.864961   -474.21496   -768.44201   -1011.6509     29.00252    127.48812    286.36759      46.7237      46.7237      46.7237           90           90           90     102002.7   -751.43597 
 1000505      1000000    -6891.765    472.43081   -7364.1958    4230.4675   -11594.663     90.92986   -726.04412    48.879156   -569.00531    40.328062    27.237037    368.66901      46.7237      46.7237      46.7237           90           90           90     102002.7   -415.39009 
Loop time of 1451.13 on 16 procs for 500000 steps with 1744 atoms

Performance: 29.770 ns/day, 0.806 hours/ns, 344.560 timesteps/s
99.8% CPU use with 16 MPI tasks x no OpenMP threads

MPI task timing breakdown:
Section |  min time  |  avg time  |  max time  |%varavg| %total
---------------------------------------------------------------
Pair    | 593.69     | 771.45     | 1062.4     | 510.0 | 53.16
Bond    | 169.04     | 183.36     | 207.05     |  76.0 | 12.64
Neigh   | 3.5675     | 3.5782     | 3.5923     |   0.4 |  0.25
Comm    | 149.88     | 464.63     | 652.98     | 675.3 | 32.02
Output  | 0.097327   | 0.10209    | 0.10248    |   0.4 |  0.01
Modify  | 22.134     | 22.666     | 23.239     |   8.5 |  1.56
Other   |            | 5.34       |            |       |  0.37

Nlocal:    109 ave 129 max 95 min
Histogram: 1 4 2 2 2 1 1 0 1 2
Nghost:    2219.5 ave 2237 max 2197 min
Histogram: 1 2 0 1 2 4 1 0 1 4
Neighs:    11450.6 ave 16275 max 7993 min
Histogram: 2 3 0 3 2 2 0 3 0 1

Total # of neighbors = 183209
Ave neighs/atom = 105.051
Ave special neighs/atom = 6.6055
Neighbor list builds = 3040
Dangerous builds = 0
Total wall time: 0:45:31
