LAMMPS (30 Mar 2018)
Reading data file ...
  orthogonal box = (0 0 0) to (46.7237 46.7237 46.7237)
  2 by 3 by 4 MPI processor grid
  reading atoms ...
  1738 atoms
  scanning bonds ...
  5 = max bonds/atom
  scanning angles ...
  10 = max angles/atom
  scanning dihedrals ...
  32 = max dihedrals/atom
  scanning impropers ...
  3 = max impropers/atom
  reading bonds ...
  2064 bonds
  reading angles ...
  3696 angles
  reading dihedrals ...
  6240 dihedrals
  reading impropers ...
  1008 impropers
Finding 1-2 1-3 1-4 neighbors ...
  special bond factors lj:   0          0          0         
  special bond factors coul: 0          0          0         
  5 = max # of 1-2 neighbors
  8 = max # of 1-3 neighbors
  20 = max # of 1-4 neighbors
  19 = max # of special neighbors
Finding 1-2 1-3 1-4 neighbors ...
  special bond factors lj:   0          0          1         
  special bond factors coul: 1          1          1         
  5 = max # of 1-2 neighbors
  8 = max # of 1-3 neighbors
  19 = max # of special neighbors
WARNING: Using 'neigh_modify every 1 delay 0 check yes' setting during minimization (../min.cpp:168)
Neighbor list info ...
  update every 1 steps, delay 0 steps, check yes
  max neighbors/atom: 2000, page size: 100000
  master list distance cutoff = 16
  ghost atom cutoff = 16
  binsize = 8, bins = 6 6 6
  3 neighbor lists, perpetual/occasional/extra = 3 0 0
  (1) pair buck6d/coul/gauss/dsf, perpetual, skip from (3)
      attributes: half, newton on
      pair build: skip
      stencil: none
      bin: none
  (2) pair lj/cut, perpetual, skip from (3)
      attributes: half, newton on
      pair build: skip
      stencil: none
      bin: none
  (3) neighbor class addition, perpetual
      attributes: half, newton on
      pair build: half/bin/newton
      stencil: half/bin/3d/newton
      bin: standard
Setting up cg style minimization ...
  Unit style    : real
  Current step  : 0
WARNING: Inconsistent image flags (../domain.cpp:786)
Per MPI rank memory allocation (min/avg/max) = 22.87 | 23.27 | 24.42 Mbytes
Step Temp E_pair E_mol TotEng Press 
       0            0   -11541.033    6482.8914   -5058.1419    6279.8943 
     506            0   -11562.747    3735.8157   -7826.9315   -493.25376 
Loop time of 1.23149 on 24 procs for 506 steps with 1738 atoms

99.8% CPU use with 24 MPI tasks x no OpenMP threads

Minimization stats:
  Stopping criterion = max force evaluations
  Energy initial, next-to-last, final = 
         -5058.1419491     -7826.91667521     -7826.93145547
  Force two-norm initial, final = 2576.94 5.89521
  Force max component initial, final = 151.971 0.620048
  Final line search alpha, max atom move = 0.0221902 0.013759
  Iterations, force evaluations = 506 1000

MPI task timing breakdown:
Section |  min time  |  avg time  |  max time  |%varavg| %total
---------------------------------------------------------------
Pair    | 0.45129    | 0.60709    | 0.73952    |  11.2 | 49.30
Bond    | 0.11657    | 0.15754    | 0.19336    |   4.8 | 12.79
Neigh   | 0.0069375  | 0.007042   | 0.0071289  |   0.1 |  0.57
Comm    | 0.30754    | 0.43852    | 0.58225    |  13.3 | 35.61
Output  | 0          | 0          | 0          |   0.0 |  0.00
Modify  | 0          | 0          | 0          |   0.0 |  0.00
Other   |            | 0.02129    |            |       |  1.73

Nlocal:    72.4167 ave 97 max 44 min
Histogram: 2 0 1 2 5 4 4 4 1 1
Nghost:    1976.42 ave 2165 max 1880 min
Histogram: 16 0 0 0 0 0 0 0 4 4
Neighs:    7632.83 ave 12423 max 3843 min
Histogram: 3 2 3 2 4 2 5 1 1 1

Total # of neighbors = 183188
Ave neighs/atom = 105.402
Ave special neighs/atom = 6.62831
Neighbor list builds = 13
Dangerous builds = 0
Neighbor list info ...
  update every 1 steps, delay 10 steps, check yes
  max neighbors/atom: 2000, page size: 100000
  master list distance cutoff = 16
  ghost atom cutoff = 16
  binsize = 8, bins = 6 6 6
  3 neighbor lists, perpetual/occasional/extra = 3 0 0
  (1) pair buck6d/coul/gauss/dsf, perpetual, skip from (3)
      attributes: half, newton on
      pair build: skip
      stencil: none
      bin: none
  (2) pair lj/cut, perpetual, skip from (3)
      attributes: half, newton on
      pair build: skip
      stencil: none
      bin: none
  (3) neighbor class addition, perpetual
      attributes: half, newton on
      pair build: half/bin/newton
      stencil: half/bin/3d/newton
      bin: standard
Setting up Verlet run ...
  Unit style    : real
  Current step  : 506
  Time step     : 1
WARNING: Inconsistent image flags (../domain.cpp:786)
Per MPI rank memory allocation (min/avg/max) = 22.52 | 22.7 | 23.29 Mbytes
Step Temp PotEng TotEng Press Volume Lx Ly Lz 
     506          110   -7826.9315   -7257.3881   -238.01421     102002.7      46.7237      46.7237      46.7237 
    1000    94.219005   -7307.0034   -6819.1688   -821.88801     102002.7      46.7237      46.7237      46.7237 
    2000    104.35816    -7199.458   -6659.1262   -500.94817     102002.7      46.7237      46.7237      46.7237 
    3000    105.63045   -7234.4467   -6687.5274   -957.06166     102002.7      46.7237      46.7237      46.7237 
    4000     107.6002   -7242.8493   -6685.7313   -371.54851     102002.7      46.7237      46.7237      46.7237 
    5000    110.17917   -7240.4607   -6669.9897   -929.56368     102002.7      46.7237      46.7237      46.7237 
    6000    108.46003   -7251.8614   -6690.2914   -760.65227     102002.7      46.7237      46.7237      46.7237 
    7000    110.57955    -7236.524   -6663.9799   -764.22479     102002.7      46.7237      46.7237      46.7237 
    8000     110.4575   -7240.2497   -6668.3375   -717.42983     102002.7      46.7237      46.7237      46.7237 
    9000    108.29726   -7248.4633   -6687.7362   -205.16852     102002.7      46.7237      46.7237      46.7237 
   10000    110.12481   -7243.2477   -6673.0581   -806.73536     102002.7      46.7237      46.7237      46.7237 
   11000    111.36407   -7236.0477   -6659.4416    -351.6864     102002.7      46.7237      46.7237      46.7237 
   12000    112.72806   -7255.2556   -6671.5872   -393.08177     102002.7      46.7237      46.7237      46.7237 
   13000    111.48003   -7230.3824   -6653.1759   -614.59659     102002.7      46.7237      46.7237      46.7237 
   14000    109.66845   -7254.3271   -6686.5004   -803.36126     102002.7      46.7237      46.7237      46.7237 
   15000    116.89075   -7219.7891   -6614.5678   -700.78888     102002.7      46.7237      46.7237      46.7237 
   16000    107.57104   -7258.5051   -6701.5381   -668.02312     102002.7      46.7237      46.7237      46.7237 
   17000    109.13527   -7241.0246   -6675.9585   -623.89518     102002.7      46.7237      46.7237      46.7237 
   18000    106.74867   -7260.5653   -6707.8562   -786.59554     102002.7      46.7237      46.7237      46.7237 
   19000    110.51793   -7256.4141   -6684.1891   -537.28441     102002.7      46.7237      46.7237      46.7237 
   20000    111.38028   -7251.0831   -6674.3931   -764.28966     102002.7      46.7237      46.7237      46.7237 
   21000    111.71413     -7259.97   -6681.5514   -229.83564     102002.7      46.7237      46.7237      46.7237 
   22000    108.77205   -7279.9241   -6716.7386   -350.48877     102002.7      46.7237      46.7237      46.7237 
   23000    114.99089   -7266.1661   -6670.7815    -449.9069     102002.7      46.7237      46.7237      46.7237 
   24000    108.86952   -7252.5949   -6688.9048    -740.0997     102002.7      46.7237      46.7237      46.7237 
   25000    107.39797   -7263.9431   -6707.8721   -821.96021     102002.7      46.7237      46.7237      46.7237 
   26000    109.93013   -7242.1139   -6672.9323   -744.79028     102002.7      46.7237      46.7237      46.7237 
   27000     105.7152   -7257.8857   -6710.5276   -866.31411     102002.7      46.7237      46.7237      46.7237 
   28000    106.26646   -7236.7306   -6686.5182   -622.59155     102002.7      46.7237      46.7237      46.7237 
   29000      110.365    -7242.244   -6670.8108   -754.61924     102002.7      46.7237      46.7237      46.7237 
   30000    111.32866   -7246.0112   -6669.5884   -389.62792     102002.7      46.7237      46.7237      46.7237 
   31000    108.53235   -7225.8273   -6663.8829   -705.64066     102002.7      46.7237      46.7237      46.7237 
   32000    113.33177   -7251.1327   -6664.3385   -623.13254     102002.7      46.7237      46.7237      46.7237 
   33000    111.26875   -7248.3679   -6672.2553   -688.56194     102002.7      46.7237      46.7237      46.7237 
   34000    110.21629   -7236.1633      -6665.5   -932.68895     102002.7      46.7237      46.7237      46.7237 
   35000    109.65299   -7262.4326    -6694.686   -580.78582     102002.7      46.7237      46.7237      46.7237 
   36000    109.09344   -7250.8733   -6686.0238   -429.82718     102002.7      46.7237      46.7237      46.7237 
   37000    111.78067   -7260.8402    -6682.077   -473.66104     102002.7      46.7237      46.7237      46.7237 
   38000    108.75936   -7262.3496   -6699.2298   -669.04117     102002.7      46.7237      46.7237      46.7237 
   39000    108.20651   -7232.7074   -6672.4501   -909.61641     102002.7      46.7237      46.7237      46.7237 
   40000    107.22389   -7253.1707   -6698.0011   -831.35386     102002.7      46.7237      46.7237      46.7237 
   41000    111.39326   -7241.8168   -6665.0596   -1052.3512     102002.7      46.7237      46.7237      46.7237 
   42000    112.09479   -7266.3553   -6685.9658   -793.53829     102002.7      46.7237      46.7237      46.7237 
   43000    114.37447   -7265.5874   -6673.3945   -663.56172     102002.7      46.7237      46.7237      46.7237 
   44000    107.39286   -7225.5568   -6669.5124   -916.41622     102002.7      46.7237      46.7237      46.7237 
   45000    111.73333   -7257.3389   -6678.8209   -776.18604     102002.7      46.7237      46.7237      46.7237 
   46000    107.49736   -7243.2392   -6686.6536   -467.59238     102002.7      46.7237      46.7237      46.7237 
   47000    111.71359   -7232.3961   -6653.9803     -784.398     102002.7      46.7237      46.7237      46.7237 
   48000    108.52543   -7251.1437   -6689.2352   -627.93293     102002.7      46.7237      46.7237      46.7237 
   49000    110.83021   -7242.4687   -6668.6268   -807.20619     102002.7      46.7237      46.7237      46.7237 
   50000    112.56248   -7262.5978   -6679.7868   -797.38376     102002.7      46.7237      46.7237      46.7237 
   51000      112.013   -7249.9841    -6670.018   -520.96185     102002.7      46.7237      46.7237      46.7237 
   52000    108.42376   -7260.8299   -6699.4478   -921.82172     102002.7      46.7237      46.7237      46.7237 
   53000    106.97852   -7224.5118   -6670.6126   -705.68524     102002.7      46.7237      46.7237      46.7237 
   54000    108.57011   -7251.5432   -6689.4033   -561.75044     102002.7      46.7237      46.7237      46.7237 
   55000    110.35858   -7236.7115   -6665.3115   -721.00799     102002.7      46.7237      46.7237      46.7237 
   56000    108.86658   -7246.7406   -6683.0657   -968.94448     102002.7      46.7237      46.7237      46.7237 
   57000    111.43897   -7245.7387   -6668.7448   -529.72264     102002.7      46.7237      46.7237      46.7237 
   58000    109.64773   -7278.1088   -6710.3894   -562.07628     102002.7      46.7237      46.7237      46.7237 
   59000    113.78275   -7268.5637   -6679.4345   -547.66161     102002.7      46.7237      46.7237      46.7237 
   60000    113.29875   -7244.5961   -6657.9729   -804.64025     102002.7      46.7237      46.7237      46.7237 
   61000    111.47464   -7262.5447   -6685.3661   -832.90758     102002.7      46.7237      46.7237      46.7237 
   62000    110.28116   -7234.4711   -6663.4719    -907.2335     102002.7      46.7237      46.7237      46.7237 
   63000    113.13901   -7253.9867   -6668.1906   -794.30666     102002.7      46.7237      46.7237      46.7237 
   64000    111.05928   -7259.2545   -6684.2265   -546.71531     102002.7      46.7237      46.7237      46.7237 
   65000     109.3962   -7246.0124   -6679.5953   -911.52719     102002.7      46.7237      46.7237      46.7237 
   66000     113.3548   -7251.4487   -6664.5353    -328.8254     102002.7      46.7237      46.7237      46.7237 
   67000    111.05441   -7262.6916   -6687.6889   -752.98509     102002.7      46.7237      46.7237      46.7237 
   68000    110.70626   -7244.3796   -6671.1794   -477.69932     102002.7      46.7237      46.7237      46.7237 
   69000    105.78125   -7263.7334   -6716.0333   -289.36184     102002.7      46.7237      46.7237      46.7237 
   70000    112.78922   -7242.3333   -6658.3483   -656.32662     102002.7      46.7237      46.7237      46.7237 
   71000    107.78025   -7250.9672    -6692.917   -391.61558     102002.7      46.7237      46.7237      46.7237 
   72000    112.24552   -7247.0697   -6665.8998    -516.4889     102002.7      46.7237      46.7237      46.7237 
   73000    105.88109   -7271.1677   -6722.9507   -595.55222     102002.7      46.7237      46.7237      46.7237 
   74000    112.57539   -7262.6519    -6679.774   -621.59755     102002.7      46.7237      46.7237      46.7237 
   75000    109.27125   -7251.1205   -6685.3503   -568.42695     102002.7      46.7237      46.7237      46.7237 
   76000    110.19121   -7272.2698   -6701.7364   -394.30304     102002.7      46.7237      46.7237      46.7237 
   77000    112.36678   -7258.8801   -6677.0823    -600.8315     102002.7      46.7237      46.7237      46.7237 
   78000    112.32692   -7236.6225   -6655.0311   -553.52506     102002.7      46.7237      46.7237      46.7237 
   79000    109.80175   -7252.0728   -6683.5559   -795.75986     102002.7      46.7237      46.7237      46.7237 
   80000    112.61134   -7236.7978   -6653.7338    -827.5313     102002.7      46.7237      46.7237      46.7237 
   81000    113.35757   -7264.8691   -6677.9414   -832.36645     102002.7      46.7237      46.7237      46.7237 
   82000    102.02099   -7256.7183   -6728.4875   -681.58361     102002.7      46.7237      46.7237      46.7237 
   83000    112.38623   -7250.7247   -6668.8262   -791.76544     102002.7      46.7237      46.7237      46.7237 
   84000    112.07176    -7254.549   -6674.2788   -547.34152     102002.7      46.7237      46.7237      46.7237 
   85000    110.12814   -7240.2875   -6670.0806    -797.1744     102002.7      46.7237      46.7237      46.7237 
   86000    108.62772   -7264.1571   -6701.7189   -354.36128     102002.7      46.7237      46.7237      46.7237 
   87000    111.58068   -7238.0344   -6660.3068    -547.5082     102002.7      46.7237      46.7237      46.7237 
   88000    112.80056   -7262.9841   -6678.9404   -577.04082     102002.7      46.7237      46.7237      46.7237 
   89000    109.73728   -7266.9475   -6698.7644   -607.76879     102002.7      46.7237      46.7237      46.7237 
   90000    112.32049   -7252.5277   -6670.9696    -523.9978     102002.7      46.7237      46.7237      46.7237 
   91000    111.49396    -7262.404   -6685.1254   -696.13789     102002.7      46.7237      46.7237      46.7237 
   92000     113.5294   -7247.4208   -6659.6034   -795.66706     102002.7      46.7237      46.7237      46.7237 
   93000    107.21394   -7231.7092   -6676.5911   -704.77021     102002.7      46.7237      46.7237      46.7237 
   94000    110.18475   -7257.7896   -6687.2896   -639.22706     102002.7      46.7237      46.7237      46.7237 
   95000    107.34109   -7251.0761   -6695.2997   -554.42191     102002.7      46.7237      46.7237      46.7237 
   96000    115.96045   -7227.1147   -6626.7102   -680.07843     102002.7      46.7237      46.7237      46.7237 
   97000    109.45374    -7250.932    -6684.217   -574.32385     102002.7      46.7237      46.7237      46.7237 
   98000    113.62278    -7232.122   -6643.8211   -539.59744     102002.7      46.7237      46.7237      46.7237 
   99000    110.08419   -7251.6678   -6681.6885   -629.48475     102002.7      46.7237      46.7237      46.7237 
  100000    111.85403   -7226.6509    -6647.508    -554.6479     102002.7      46.7237      46.7237      46.7237 
  101000    109.54476   -7260.6971   -6693.5108   -519.96892     102002.7      46.7237      46.7237      46.7237 
  102000    112.24876    -7251.443   -6670.2563   -656.29787     102002.7      46.7237      46.7237      46.7237 
  103000    108.34735   -7248.1045   -6687.1181   -741.92666     102002.7      46.7237      46.7237      46.7237 
  104000     109.2409   -7260.6285   -6695.0155   -814.77069     102002.7      46.7237      46.7237      46.7237 
  105000    111.58453   -7250.0075   -6672.2599    -738.1152     102002.7      46.7237      46.7237      46.7237 
  106000    107.35676   -7242.2736    -6686.416   -952.05753     102002.7      46.7237      46.7237      46.7237 
  107000      109.007   -7246.5716   -6682.1696   -782.21274     102002.7      46.7237      46.7237      46.7237 
  108000    110.36868   -7243.3283    -6671.876   -853.38187     102002.7      46.7237      46.7237      46.7237 
  109000    108.94281   -7254.3849   -6690.3153    -752.3337     102002.7      46.7237      46.7237      46.7237 
  110000    110.05106    -7248.575   -6678.7673   -745.98986     102002.7      46.7237      46.7237      46.7237 
  111000    107.89277   -7238.6653   -6680.0325   -921.54686     102002.7      46.7237      46.7237      46.7237 
  112000    112.02068   -7251.7981   -6671.7923   -710.06841     102002.7      46.7237      46.7237      46.7237 
  113000    107.96177   -7236.2567   -6677.2666   -762.40255     102002.7      46.7237      46.7237      46.7237 
  114000    112.93116   -7271.2737   -6686.5537    -810.2018     102002.7      46.7237      46.7237      46.7237 
  115000    107.33415   -7247.3478   -6691.6073   -485.37707     102002.7      46.7237      46.7237      46.7237 
  116000    108.14632   -7242.0538   -6682.1082   -850.66346     102002.7      46.7237      46.7237      46.7237 
  117000    110.84507   -7232.0718   -6658.1529   -814.87375     102002.7      46.7237      46.7237      46.7237 
  118000    108.77411    -7267.277   -6704.0809   -721.24444     102002.7      46.7237      46.7237      46.7237 
  119000    112.44126   -7255.9437   -6673.7603   -809.17943     102002.7      46.7237      46.7237      46.7237 
  120000    106.87332   -7254.1022   -6700.7477   -854.00169     102002.7      46.7237      46.7237      46.7237 
  121000    112.85953   -7255.2869   -6670.9378   -860.56925     102002.7      46.7237      46.7237      46.7237 
  122000     110.7696   -7247.4331    -6673.905   -845.80443     102002.7      46.7237      46.7237      46.7237 
  123000    110.48203   -7263.5149   -6691.4757    -499.0355     102002.7      46.7237      46.7237      46.7237 
  124000    111.47396    -7230.686    -6653.511   -544.70849     102002.7      46.7237      46.7237      46.7237 
  125000    108.60148   -7254.8091   -6692.5068   -750.48421     102002.7      46.7237      46.7237      46.7237 
  126000    108.23547   -7234.1873   -6673.7801   -586.82554     102002.7      46.7237      46.7237      46.7237 
  127000    111.18294   -7247.2116   -6671.5433   -613.90632     102002.7      46.7237      46.7237      46.7237 
  128000    108.63158   -7257.1033   -6694.6452   -569.94416     102002.7      46.7237      46.7237      46.7237 
  129000    106.94102   -7229.9582   -6676.2532   -700.36161     102002.7      46.7237      46.7237      46.7237 
  130000    111.80847   -7246.2925   -6667.3855   -601.99432     102002.7      46.7237      46.7237      46.7237 
  131000    106.31112   -7240.0601   -6689.6165   -513.67795     102002.7      46.7237      46.7237      46.7237 
  132000    109.03371   -7244.5923   -6680.0521   -445.04555     102002.7      46.7237      46.7237      46.7237 
  133000    111.27632   -7274.8824   -6698.7306   -735.12173     102002.7      46.7237      46.7237      46.7237 
  134000    111.23528   -7242.9102   -6666.9709   -391.39296     102002.7      46.7237      46.7237      46.7237 
  135000     110.2188   -7259.7642   -6689.0879   -534.87277     102002.7      46.7237      46.7237      46.7237 
  136000    107.96486   -7265.6132   -6706.6071   -579.25815     102002.7      46.7237      46.7237      46.7237 
  137000    108.04356   -7232.4016    -6672.988   -518.17549     102002.7      46.7237      46.7237      46.7237 
  138000    107.70477   -7240.0249   -6682.3654   -709.15863     102002.7      46.7237      46.7237      46.7237 
  139000    111.11398   -7236.5418   -6661.2306    -712.7798     102002.7      46.7237      46.7237      46.7237 
  140000    106.97468   -7258.0922   -6704.2129   -621.50475     102002.7      46.7237      46.7237      46.7237 
  141000    108.43836   -7245.5439   -6684.0861   -759.34947     102002.7      46.7237      46.7237      46.7237 
  142000    111.20239   -7256.6123   -6680.8434   -492.93532     102002.7      46.7237      46.7237      46.7237 
  143000    107.55105   -7248.4237   -6691.5602   -879.99575     102002.7      46.7237      46.7237      46.7237 
  144000    111.04298   -7233.8557   -6658.9122   -577.60721     102002.7      46.7237      46.7237      46.7237 
  145000    110.34681   -7226.2916   -6654.9526   -694.09819     102002.7      46.7237      46.7237      46.7237 
  146000    111.49837   -7243.6084   -6666.3069   -488.83473     102002.7      46.7237      46.7237      46.7237 
  147000    107.86016   -7258.4863   -6700.0223   -773.90212     102002.7      46.7237      46.7237      46.7237 
  148000    108.83439   -7245.1365   -6681.6282   -345.58332     102002.7      46.7237      46.7237      46.7237 
  149000    110.71245   -7247.8452    -6674.613   -724.80143     102002.7      46.7237      46.7237      46.7237 
  150000    104.18638   -7251.5336   -6712.0913   -776.40875     102002.7      46.7237      46.7237      46.7237 
  151000    111.22099   -7261.5484   -6685.6832   -389.59605     102002.7      46.7237      46.7237      46.7237 
  152000    111.60735    -7232.023   -6654.1573   -604.36713     102002.7      46.7237      46.7237      46.7237 
  153000    108.49548   -7241.1092   -6679.3558   -190.66167     102002.7      46.7237      46.7237      46.7237 
  154000    107.70247   -7259.6212   -6701.9737   -943.32856     102002.7      46.7237      46.7237      46.7237 
  155000    107.98117   -7233.8316   -6674.7411   -751.27631     102002.7      46.7237      46.7237      46.7237 
  156000    113.04685   -7269.3975   -6684.0785   -547.35109     102002.7      46.7237      46.7237      46.7237 
  157000    110.55165   -7229.7864   -6657.3868   -601.87159     102002.7      46.7237      46.7237      46.7237 
  158000    109.21197   -7245.7407   -6680.2775    -916.9379     102002.7      46.7237      46.7237      46.7237 
  159000    110.13184   -7248.2241   -6677.9981   -509.70167     102002.7      46.7237      46.7237      46.7237 
  160000    108.19379   -7259.8066   -6699.6152   -355.80952     102002.7      46.7237      46.7237      46.7237 
  161000    109.29204   -7249.4381   -6683.5603   -703.50527     102002.7      46.7237      46.7237      46.7237 
  162000    113.20717   -7238.0992   -6651.9502    -741.1995     102002.7      46.7237      46.7237      46.7237 
  163000    106.98437    -7247.708   -6693.7785   -793.30327     102002.7      46.7237      46.7237      46.7237 
  164000    111.78336   -7252.3515   -6673.5745   -616.35518     102002.7      46.7237      46.7237      46.7237 
  165000    109.65224   -7265.8101   -6698.0673   -751.35346     102002.7      46.7237      46.7237      46.7237 
  166000    111.03622   -7250.3726    -6675.464   -847.27309     102002.7      46.7237      46.7237      46.7237 
  167000    112.44586    -7288.099   -6705.8918   -546.52998     102002.7      46.7237      46.7237      46.7237 
  168000    110.19587   -7246.0052   -6675.4476    -775.7276     102002.7      46.7237      46.7237      46.7237 
  169000    112.72104   -7257.5705   -6673.9385    -1082.894     102002.7      46.7237      46.7237      46.7237 
  170000     112.0715   -7253.9172   -6673.6483   -810.79195     102002.7      46.7237      46.7237      46.7237 
  171000    109.42403   -7250.7263   -6684.1651    -932.0522     102002.7      46.7237      46.7237      46.7237 
  172000     109.4911    -7233.354   -6666.4455   -1158.8508     102002.7      46.7237      46.7237      46.7237 
  173000    106.91056   -7255.0522   -6701.5049   -937.86352     102002.7      46.7237      46.7237      46.7237 
  174000    112.94477   -7247.0074    -6662.217   -735.90939     102002.7      46.7237      46.7237      46.7237 
  175000     110.7878   -7246.5863   -6672.9639   -931.39681     102002.7      46.7237      46.7237      46.7237 
  176000    107.32688   -7262.3124   -6706.6095   -1001.4456     102002.7      46.7237      46.7237      46.7237 
  177000    109.47783   -7241.7432   -6674.9034   -537.02364     102002.7      46.7237      46.7237      46.7237 
  178000    109.81583   -7260.7454   -6692.1556    -678.6091     102002.7      46.7237      46.7237      46.7237 
  179000    108.40132   -7243.3068   -6682.0408   -750.31693     102002.7      46.7237      46.7237      46.7237 
  180000    113.84945   -7255.9783   -6666.5037   -654.89952     102002.7      46.7237      46.7237      46.7237 
  181000    112.96778   -7238.7606   -6653.8511   -768.61918     102002.7      46.7237      46.7237      46.7237 
  182000    108.15035   -7246.8117   -6686.8452   -885.08008     102002.7      46.7237      46.7237      46.7237 
  183000    109.08776   -7232.1059   -6667.2858    -942.3722     102002.7      46.7237      46.7237      46.7237 
  184000    114.39506   -7260.1206   -6667.8211   -477.41604     102002.7      46.7237      46.7237      46.7237 
  185000    109.95471   -7256.6555   -6687.3466   -527.42508     102002.7      46.7237      46.7237      46.7237 
  186000    106.88621   -7227.6227   -6674.2015    -506.1742     102002.7      46.7237      46.7237      46.7237 
  187000    110.88573   -7264.7928   -6690.6633   -546.01466     102002.7      46.7237      46.7237      46.7237 
  188000    112.14836   -7240.0761   -6659.4092    -461.0758     102002.7      46.7237      46.7237      46.7237 
  189000    106.41102    -7242.078   -6691.1171   -647.20715     102002.7      46.7237      46.7237      46.7237 
  190000    112.65449   -7248.3707   -6665.0832   -874.60091     102002.7      46.7237      46.7237      46.7237 
  191000    109.33727   -7246.2726   -6680.1607   -695.29009     102002.7      46.7237      46.7237      46.7237 
  192000    112.52731   -7253.6757   -6671.0468   -572.44126     102002.7      46.7237      46.7237      46.7237 
  193000     109.7771   -7268.3818   -6699.9926   -585.82957     102002.7      46.7237      46.7237      46.7237 
  194000    114.34831     -7260.24   -6668.1825   -670.44785     102002.7      46.7237      46.7237      46.7237 
  195000    111.51725   -7238.0174   -6660.6182   -622.98729     102002.7      46.7237      46.7237      46.7237 
  196000    108.73584   -7252.0344   -6689.0365   -686.36318     102002.7      46.7237      46.7237      46.7237 
  197000    111.08648   -7244.3354   -6669.1666    -820.1819     102002.7      46.7237      46.7237      46.7237 
  198000    112.05057   -7255.2631   -6675.1026   -799.36192     102002.7      46.7237      46.7237      46.7237 
  199000    108.54631   -7244.2155   -6682.1989   -762.19873     102002.7      46.7237      46.7237      46.7237 
  200000    111.98969   -7262.5102   -6682.6649   -786.59516     102002.7      46.7237      46.7237      46.7237 
  201000    110.00616   -7243.7693    -6674.194   -732.85501     102002.7      46.7237      46.7237      46.7237 
  202000    107.81666   -7262.4709   -6704.2321   -919.74923     102002.7      46.7237      46.7237      46.7237 
  203000    109.33619   -7245.1704    -6679.064   -729.48737     102002.7      46.7237      46.7237      46.7237 
  204000    114.32386   -7267.4862   -6675.5554   -1035.4336     102002.7      46.7237      46.7237      46.7237 
  205000    108.02231   -7261.0499   -6701.7463   -791.15449     102002.7      46.7237      46.7237      46.7237 
  206000    111.48478   -7263.7114   -6686.4803   -855.35347     102002.7      46.7237      46.7237      46.7237 
  207000    112.66388   -7245.2586   -6661.9225   -720.62153     102002.7      46.7237      46.7237      46.7237 
  208000     111.6929   -7263.4993   -6685.1906   -726.23783     102002.7      46.7237      46.7237      46.7237 
  209000    110.75637   -7246.2316    -6672.772   -815.82859     102002.7      46.7237      46.7237      46.7237 
  210000    110.18258     -7218.41   -6647.9213   -845.48643     102002.7      46.7237      46.7237      46.7237 
  211000    108.06821   -7248.5816   -6689.0404   -762.28195     102002.7      46.7237      46.7237      46.7237 
  212000    105.80288   -7252.2661    -6704.454    -711.1994     102002.7      46.7237      46.7237      46.7237 
  213000    112.64207   -7261.1779   -6677.9548    -659.4173     102002.7      46.7237      46.7237      46.7237 
  214000    109.69856   -7263.5617   -6695.5791   -972.05486     102002.7      46.7237      46.7237      46.7237 
  215000    109.61807   -7236.5711   -6669.0053   -716.15002     102002.7      46.7237      46.7237      46.7237 
  216000     109.6558   -7256.3341   -6688.5728   -886.07303     102002.7      46.7237      46.7237      46.7237 
  217000    109.51046   -7233.0751   -6666.0664   -692.43538     102002.7      46.7237      46.7237      46.7237 
  218000     111.0849   -7256.8961   -6681.7354   -960.04642     102002.7      46.7237      46.7237      46.7237 
  219000    111.46977   -7236.7321   -6659.5787   -1083.4273     102002.7      46.7237      46.7237      46.7237 
  220000    108.27131   -7242.9339   -6682.3411    -580.0312     102002.7      46.7237      46.7237      46.7237 
  221000    107.32276    -7257.255   -6701.5734   -717.54981     102002.7      46.7237      46.7237      46.7237 
  222000    106.92593   -7239.1762   -6685.5494   -823.87904     102002.7      46.7237      46.7237      46.7237 
  223000    108.28905   -7265.2667    -6704.582   -553.03064     102002.7      46.7237      46.7237      46.7237 
  224000    107.78505   -7236.9618   -6678.8868   -617.09306     102002.7      46.7237      46.7237      46.7237 
  225000    110.25558   -7249.7673   -6678.9006   -551.21785     102002.7      46.7237      46.7237      46.7237 
  226000    107.74435   -7268.4571   -6710.5928   -436.89363     102002.7      46.7237      46.7237      46.7237 
  227000    110.99613   -7247.6921   -6672.9911   -593.67734     102002.7      46.7237      46.7237      46.7237 
  228000    114.92552   -7264.8993   -6669.8533   -630.88608     102002.7      46.7237      46.7237      46.7237 
  229000    107.00533   -7243.3591   -6689.3211   -392.92081     102002.7      46.7237      46.7237      46.7237 
  230000    107.51908   -7250.4209    -6693.723   -793.57388     102002.7      46.7237      46.7237      46.7237 
  231000    112.00046   -7247.1245   -6667.2234   -496.29373     102002.7      46.7237      46.7237      46.7237 
  232000     107.4501    -7251.689   -6695.3482   -740.81167     102002.7      46.7237      46.7237      46.7237 
  233000    109.57744   -7222.4957   -6655.1402    -657.3114     102002.7      46.7237      46.7237      46.7237 
  234000    109.96568   -7243.4559   -6674.0902   -545.96529     102002.7      46.7237      46.7237      46.7237 
  235000    110.27377   -7267.0813   -6696.1204   -608.64988     102002.7      46.7237      46.7237      46.7237 
  236000    106.19182   -7263.6614   -6713.8355   -538.29013     102002.7      46.7237      46.7237      46.7237 
  237000    114.42243   -7265.4707   -6673.0295   -780.11285     102002.7      46.7237      46.7237      46.7237 
  238000    109.41062   -7248.8427   -6682.3509   -608.61683     102002.7      46.7237      46.7237      46.7237 
  239000    108.07813   -7251.9218   -6692.3292   -692.60084     102002.7      46.7237      46.7237      46.7237 
  240000    108.13534   -7242.8238    -6682.935   -368.25035     102002.7      46.7237      46.7237      46.7237 
  241000    109.26313   -7252.0447   -6686.3165   -682.27858     102002.7      46.7237      46.7237      46.7237 
  242000    108.66837   -7233.4066    -6670.758   -499.10951     102002.7      46.7237      46.7237      46.7237 
  243000    107.97922   -7253.7916   -6694.7111   -701.84788     102002.7      46.7237      46.7237      46.7237 
  244000    108.13004   -7236.7296   -6676.8683   -965.47871     102002.7      46.7237      46.7237      46.7237 
  245000    109.57547   -7231.7514    -6664.406   -555.21377     102002.7      46.7237      46.7237      46.7237 
  246000    114.40435   -7267.9789   -6675.6313   -1046.6031     102002.7      46.7237      46.7237      46.7237 
  247000    108.36009   -7267.2937   -6706.2412   -627.41645     102002.7      46.7237      46.7237      46.7237 
  248000    109.11005   -7247.5767   -6682.6412   -663.81999     102002.7      46.7237      46.7237      46.7237 
  249000    110.58658   -7266.5617   -6693.9813    -607.7887     102002.7      46.7237      46.7237      46.7237 
  250000    108.62014   -7264.8035   -6702.4045   -500.20322     102002.7      46.7237      46.7237      46.7237 
  251000    111.35667   -7241.5766   -6665.0088   -722.25368     102002.7      46.7237      46.7237      46.7237 
  252000    111.52036    -7267.099   -6689.6837    -565.9419     102002.7      46.7237      46.7237      46.7237 
  253000     107.4233   -7233.3723   -6677.1702   -974.72898     102002.7      46.7237      46.7237      46.7237 
  254000    109.49172   -7250.0725   -6683.1609   -579.22379     102002.7      46.7237      46.7237      46.7237 
  255000    113.43101   -7261.5491    -6674.241   -763.67662     102002.7      46.7237      46.7237      46.7237 
  256000    108.96712    -7259.356   -6695.1605    -733.3126     102002.7      46.7237      46.7237      46.7237 
  257000    108.38817    -7260.659   -6699.4611   -728.18223     102002.7      46.7237      46.7237      46.7237 
  258000    112.66586   -7248.7791   -6665.4328   -653.04607     102002.7      46.7237      46.7237      46.7237 
  259000    113.25637   -7253.1857   -6666.7819   -1074.4772     102002.7      46.7237      46.7237      46.7237 
  260000    106.91718    -7252.813   -6699.2314   -945.05321     102002.7      46.7237      46.7237      46.7237 
  261000    111.03342   -7240.5215   -6665.6275   -916.42618     102002.7      46.7237      46.7237      46.7237 
  262000     105.1542   -7250.2167   -6705.7632   -854.42051     102002.7      46.7237      46.7237      46.7237 
  263000    109.61177   -7249.9853    -6682.452   -738.93281     102002.7      46.7237      46.7237      46.7237 
  264000    110.42291   -7249.1018   -6677.3688   -711.75595     102002.7      46.7237      46.7237      46.7237 
  265000    107.98556   -7267.9342   -6708.8209   -788.62669     102002.7      46.7237      46.7237      46.7237 
  266000    109.36695    -7241.715   -6675.4494   -764.54544     102002.7      46.7237      46.7237      46.7237 
  267000    107.82538   -7269.9503   -6711.6663   -438.73818     102002.7      46.7237      46.7237      46.7237 
  268000     111.0763   -7247.5829   -6672.4668   -811.54576     102002.7      46.7237      46.7237      46.7237 
  269000    110.15806   -7262.2776   -6691.9159   -598.24175     102002.7      46.7237      46.7237      46.7237 
  270000    111.25911   -7252.2293   -6676.1667   -710.77462     102002.7      46.7237      46.7237      46.7237 
  271000    109.64299    -7268.635   -6700.9401   -768.47427     102002.7      46.7237      46.7237      46.7237 
  272000    113.41414    -7255.875   -6668.6544   -740.22841     102002.7      46.7237      46.7237      46.7237 
  273000    108.25214   -7254.8369   -6694.3434    -709.0929     102002.7      46.7237      46.7237      46.7237 
  274000    108.79727   -7268.7112   -6705.3951   -752.05459     102002.7      46.7237      46.7237      46.7237 
  275000    110.09418   -7228.5975   -6658.5665   -592.87227     102002.7      46.7237      46.7237      46.7237 
  276000    108.49693   -7256.7454   -6694.9845   -759.99051     102002.7      46.7237      46.7237      46.7237 
  277000    108.01828   -7240.8496   -6681.5669   -603.91276     102002.7      46.7237      46.7237      46.7237 
  278000    110.17307   -7259.6599   -6689.2204    -591.6918     102002.7      46.7237      46.7237      46.7237 
  279000    109.64873   -7252.9034   -6685.1788   -467.30454     102002.7      46.7237      46.7237      46.7237 
  280000    110.76912   -7240.2745   -6666.7489   -654.07166     102002.7      46.7237      46.7237      46.7237 
  281000    109.76628    -7254.723   -6686.3897   -754.02918     102002.7      46.7237      46.7237      46.7237 
  282000    110.20872   -7236.9853   -6666.3612   -558.83463     102002.7      46.7237      46.7237      46.7237 
  283000    110.36863   -7251.1533   -6679.7012   -814.91669     102002.7      46.7237      46.7237      46.7237 
  284000    112.40122   -7246.8744   -6664.8983   -1144.0396     102002.7      46.7237      46.7237      46.7237 
  285000    110.97804   -7260.6158   -6686.0085   -512.84884     102002.7      46.7237      46.7237      46.7237 
  286000    112.48027   -7255.4204    -6673.035   -735.00471     102002.7      46.7237      46.7237      46.7237 
  287000    112.21126   -7264.9356   -6683.9431   -913.30949     102002.7      46.7237      46.7237      46.7237 
  288000     109.5581   -7261.7697   -6694.5144   -629.61851     102002.7      46.7237      46.7237      46.7237 
  289000    112.72204   -7242.2351   -6658.5979   -757.51762     102002.7      46.7237      46.7237      46.7237 
  290000    108.18272   -7252.9861    -6692.852   -964.62322     102002.7      46.7237      46.7237      46.7237 
  291000    112.79406   -7240.1471    -6656.137   -875.39909     102002.7      46.7237      46.7237      46.7237 
  292000    108.69383   -7262.4009   -6699.6204   -862.54402     102002.7      46.7237      46.7237      46.7237 
  293000    108.32002   -7239.1324   -6678.2874   -732.63431     102002.7      46.7237      46.7237      46.7237 
  294000    108.29543   -7247.3187    -6686.601   -568.59046     102002.7      46.7237      46.7237      46.7237 
  295000    110.77266   -7266.2615   -6692.7176   -593.92508     102002.7      46.7237      46.7237      46.7237 
  296000     110.2008    -7250.048    -6679.465   -445.00784     102002.7      46.7237      46.7237      46.7237 
  297000    109.88785   -7254.8924   -6685.9297   -532.21449     102002.7      46.7237      46.7237      46.7237 
  298000    111.06145   -7276.8568   -6701.8176   -564.63508     102002.7      46.7237      46.7237      46.7237 
  299000    110.61755   -7240.0308   -6667.2899   -724.17235     102002.7      46.7237      46.7237      46.7237 
  300000     110.3317   -7260.8357   -6689.5748   -786.06954     102002.7      46.7237      46.7237      46.7237 
  301000    111.91117   -7237.9167   -6658.4779   -856.14765     102002.7      46.7237      46.7237      46.7237 
  302000    111.73441   -7261.9621   -6683.4385   -657.30854     102002.7      46.7237      46.7237      46.7237 
  303000    106.48535   -7251.3586   -6700.0129   -543.94008     102002.7      46.7237      46.7237      46.7237 
  304000    106.81705   -7230.5714   -6677.5083   -573.76799     102002.7      46.7237      46.7237      46.7237 
  305000    110.28798    -7266.422   -6695.3876   -723.46336     102002.7      46.7237      46.7237      46.7237 
  306000    107.64778   -7257.6223   -6700.2579   -438.31404     102002.7      46.7237      46.7237      46.7237 
  307000    109.26108   -7235.1125    -6669.395   -568.53964     102002.7      46.7237      46.7237      46.7237 
  308000    115.53647   -7252.7683    -6654.559     -963.011     102002.7      46.7237      46.7237      46.7237 
  309000    109.88216   -7261.2732     -6692.34    -540.9375     102002.7      46.7237      46.7237      46.7237 
  310000    114.64321   -7239.1877   -6645.6033   -726.20456     102002.7      46.7237      46.7237      46.7237 
  311000    109.10287   -7253.0703   -6688.1719   -874.55674     102002.7      46.7237      46.7237      46.7237 
  312000     107.4505   -7259.5043   -6703.1614   -608.89214     102002.7      46.7237      46.7237      46.7237 
  313000    109.98697   -7249.6309    -6680.155   -829.83672     102002.7      46.7237      46.7237      46.7237 
  314000    106.32128   -7237.3465   -6686.8503   -543.98241     102002.7      46.7237      46.7237      46.7237 
  315000    111.10117   -7231.7036   -6656.4587   -896.08448     102002.7      46.7237      46.7237      46.7237 
  316000    110.23239   -7242.6256    -6671.879   -560.49003     102002.7      46.7237      46.7237      46.7237 
  317000    108.07573   -7265.5399   -6705.9597   -750.50359     102002.7      46.7237      46.7237      46.7237 
  318000    106.37221   -7249.6351   -6698.8752   -412.26811     102002.7      46.7237      46.7237      46.7237 
  319000     107.4368   -7247.6976   -6691.4256   -408.19791     102002.7      46.7237      46.7237      46.7237 
  320000    111.39549   -7257.2841   -6680.5154   -606.08256     102002.7      46.7237      46.7237      46.7237 
  321000    110.35225   -7238.2709   -6666.9037   -481.95034     102002.7      46.7237      46.7237      46.7237 
  322000     106.1225   -7234.6707   -6685.2037   -715.88696     102002.7      46.7237      46.7237      46.7237 
  323000    111.76183   -7237.4411   -6658.7756   -471.66405     102002.7      46.7237      46.7237      46.7237 
  324000    110.61114   -7258.7705   -6686.0629   -545.45939     102002.7      46.7237      46.7237      46.7237 
  325000    112.20301   -7240.3654   -6659.4156   -429.38671     102002.7      46.7237      46.7237      46.7237 
  326000    110.29417   -7256.8251   -6685.7586   -591.69221     102002.7      46.7237      46.7237      46.7237 
  327000     110.0723   -7241.9297    -6672.012    -607.7861     102002.7      46.7237      46.7237      46.7237 
  328000    108.90219    -7270.325   -6706.4658   -726.95381     102002.7      46.7237      46.7237      46.7237 
  329000    114.11781    -7257.852   -6666.9879    -638.8076     102002.7      46.7237      46.7237      46.7237 
  330000    113.74617   -7244.0325   -6655.0927   -497.64203     102002.7      46.7237      46.7237      46.7237 
  331000    111.08572   -7259.2197   -6684.0549   -882.57312     102002.7      46.7237      46.7237      46.7237 
  332000    109.79844    -7230.982   -6662.4822   -618.81761     102002.7      46.7237      46.7237      46.7237 
  333000    108.38731   -7244.8163   -6683.6229   -667.28756     102002.7      46.7237      46.7237      46.7237 
  334000    108.22449    -7253.815   -6693.4646   -586.04942     102002.7      46.7237      46.7237      46.7237 
  335000    111.18244   -7245.5043   -6669.8387    -386.2791     102002.7      46.7237      46.7237      46.7237 
  336000     111.3571   -7233.4955   -6656.9256    -567.8468     102002.7      46.7237      46.7237      46.7237 
  337000     111.9002   -7251.6792   -6672.2972    -593.7022     102002.7      46.7237      46.7237      46.7237 
  338000    102.22286   -7250.3665   -6721.0906   -907.91455     102002.7      46.7237      46.7237      46.7237 
  339000    109.93922   -7253.4542   -6684.2255   -542.33881     102002.7      46.7237      46.7237      46.7237 
  340000    114.83152   -7231.4665   -6636.9071   -704.82776     102002.7      46.7237      46.7237      46.7237 
  341000    112.16384   -7246.5913   -6665.8443   -711.48031     102002.7      46.7237      46.7237      46.7237 
  342000    109.86224   -7261.6153   -6692.7852   -736.99594     102002.7      46.7237      46.7237      46.7237 
  343000    111.02345   -7246.6251   -6671.7827   -711.45792     102002.7      46.7237      46.7237      46.7237 
  344000    112.78089   -7236.1797   -6652.2378   -630.06592     102002.7      46.7237      46.7237      46.7237 
  345000    106.86125   -7237.0485   -6683.7565    -719.8448     102002.7      46.7237      46.7237      46.7237 
  346000    113.26765   -7233.6805   -6647.2183   -774.36481     102002.7      46.7237      46.7237      46.7237 
  347000    109.24197   -7251.9005   -6686.2819   -802.90451     102002.7      46.7237      46.7237      46.7237 
  348000    110.79663   -7241.6339   -6667.9658   -695.53739     102002.7      46.7237      46.7237      46.7237 
  349000    116.37536   -7245.8408   -6643.2879    -582.3306     102002.7      46.7237      46.7237      46.7237 
  350000    104.37704    -7246.052   -6705.6224   -477.17699     102002.7      46.7237      46.7237      46.7237 
  351000    108.57982   -7253.5073   -6691.3172     -675.966     102002.7      46.7237      46.7237      46.7237 
  352000    111.23252   -7227.6743   -6651.7494   -652.08889     102002.7      46.7237      46.7237      46.7237 
  353000    109.80304   -7259.9719   -6691.4483   -462.64554     102002.7      46.7237      46.7237      46.7237 
  354000    106.79882   -7257.6191   -6704.6503   -422.49871     102002.7      46.7237      46.7237      46.7237 
  355000    111.14311   -7264.0161    -6688.554   -512.73244     102002.7      46.7237      46.7237      46.7237 
  356000    112.69129   -7239.2612   -6655.7832   -578.66362     102002.7      46.7237      46.7237      46.7237 
  357000    110.99434   -7257.2475   -6682.5558   -315.55453     102002.7      46.7237      46.7237      46.7237 
  358000    111.83682   -7249.4019   -6670.3481   -458.73443     102002.7      46.7237      46.7237      46.7237 
  359000    113.14882   -7252.2995   -6666.4526   -402.97887     102002.7      46.7237      46.7237      46.7237 
  360000    106.29293   -7248.8082   -6698.4588   -550.56847     102002.7      46.7237      46.7237      46.7237 
  361000     113.6316   -7257.7393   -6669.3927   -488.38817     102002.7      46.7237      46.7237      46.7237 
  362000    107.55456   -7236.7892   -6679.9075   -581.01734     102002.7      46.7237      46.7237      46.7237 
  363000    110.46086   -7276.5247   -6704.5952   -487.11769     102002.7      46.7237      46.7237      46.7237 
  364000    110.04748   -7240.1581   -6670.3689   -270.57089     102002.7      46.7237      46.7237      46.7237 
  365000    109.51097   -7241.6097   -6674.5984   -791.71124     102002.7      46.7237      46.7237      46.7237 
  366000    107.75488   -7247.5283   -6689.6094   -444.06048     102002.7      46.7237      46.7237      46.7237 
  367000    110.99641   -7254.1295   -6679.4271   -694.79507     102002.7      46.7237      46.7237      46.7237 
  368000    111.04675   -7252.5656   -6677.6026   -441.91105     102002.7      46.7237      46.7237      46.7237 
  369000    110.14338   -7253.4086   -6683.1229   -688.59694     102002.7      46.7237      46.7237      46.7237 
  370000    112.70388   -7241.6706   -6658.1275    -675.7327     102002.7      46.7237      46.7237      46.7237 
  371000     110.9485   -7244.9563   -6670.5019   -550.74908     102002.7      46.7237      46.7237      46.7237 
  372000    109.43612   -7273.0464   -6706.4226   -681.47538     102002.7      46.7237      46.7237      46.7237 
  373000    106.56663    -7252.093   -6700.3264   -734.95992     102002.7      46.7237      46.7237      46.7237 
  374000    108.61659   -7239.3575   -6676.9769   -532.96961     102002.7      46.7237      46.7237      46.7237 
  375000    116.45032   -7248.3888   -6645.4478   -601.36942     102002.7      46.7237      46.7237      46.7237 
  376000    110.93958   -7267.9486   -6693.5404   -595.95288     102002.7      46.7237      46.7237      46.7237 
  377000    110.79476   -7236.5659   -6662.9075   -514.93062     102002.7      46.7237      46.7237      46.7237 
  378000    110.62795    -7231.967   -6659.1723   -391.19095     102002.7      46.7237      46.7237      46.7237 
  379000    108.95014   -7254.4976   -6690.3901    -823.9652     102002.7      46.7237      46.7237      46.7237 
  380000     108.9849    -7241.626   -6677.3384   -467.50698     102002.7      46.7237      46.7237      46.7237 
  381000    105.26814   -7267.6897   -6722.6463   -602.49058     102002.7      46.7237      46.7237      46.7237 
  382000    109.83665   -7244.6766    -6675.979    -467.1178     102002.7      46.7237      46.7237      46.7237 
  383000    107.15359   -7271.6528   -6716.8472   -528.70946     102002.7      46.7237      46.7237      46.7237 
  384000    109.81096   -7244.4267   -6675.8622   -744.16523     102002.7      46.7237      46.7237      46.7237 
  385000    110.01013   -7244.5488    -6674.953   -665.14937     102002.7      46.7237      46.7237      46.7237 
  386000    108.05218   -7249.5353    -6690.077   -994.69802     102002.7      46.7237      46.7237      46.7237 
  387000    108.98622   -7254.4119   -6690.1175   -967.44641     102002.7      46.7237      46.7237      46.7237 
  388000    108.51906   -7247.7811   -6685.9056   -687.79025     102002.7      46.7237      46.7237      46.7237 
  389000     109.5802   -7257.3187   -6689.9489   -937.67352     102002.7      46.7237      46.7237      46.7237 
  390000    110.38067    -7239.778   -6668.2636   -864.18655     102002.7      46.7237      46.7237      46.7237 
  391000    112.35805   -7259.4224   -6677.6698   -1043.9504     102002.7      46.7237      46.7237      46.7237 
  392000    109.34033   -7246.3603   -6680.2325   -430.78408     102002.7      46.7237      46.7237      46.7237 
  393000    113.98749   -7270.9881   -6680.7989   -730.89974     102002.7      46.7237      46.7237      46.7237 
  394000    108.19892   -7245.6967   -6685.4787   -564.23858     102002.7      46.7237      46.7237      46.7237 
  395000    113.60643   -7256.5866   -6668.3704   -340.70621     102002.7      46.7237      46.7237      46.7237 
  396000    107.30998   -7252.4433    -6696.828   -554.42576     102002.7      46.7237      46.7237      46.7237 
  397000    110.80212   -7250.9907   -6677.2942   -472.92867     102002.7      46.7237      46.7237      46.7237 
  398000    110.91105   -7243.1806   -6668.9201   -624.02615     102002.7      46.7237      46.7237      46.7237 
  399000    109.51754   -7258.8594    -6691.814    -436.4538     102002.7      46.7237      46.7237      46.7237 
  400000    110.21364   -7250.7864   -6680.1368   -556.61258     102002.7      46.7237      46.7237      46.7237 
  401000    113.50933   -7240.7677   -6653.0542   -820.32266     102002.7      46.7237      46.7237      46.7237 
  402000    111.06422   -7270.6247   -6695.5711   -833.74524     102002.7      46.7237      46.7237      46.7237 
  403000    110.65408   -7245.3801   -6672.4502   -867.36928     102002.7      46.7237      46.7237      46.7237 
  404000    110.52663    -7259.632    -6687.362   -867.49625     102002.7      46.7237      46.7237      46.7237 
  405000    107.54119   -7244.4596   -6687.6472    -816.6508     102002.7      46.7237      46.7237      46.7237 
  406000    109.42935   -7245.0807    -6678.492   -855.04193     102002.7      46.7237      46.7237      46.7237 
  407000    109.17045   -7228.1122    -6662.864   -627.79093     102002.7      46.7237      46.7237      46.7237 
  408000    109.55134   -7251.7008   -6684.4804   -547.72772     102002.7      46.7237      46.7237      46.7237 
  409000    112.86875    -7257.066   -6672.6692   -884.92332     102002.7      46.7237      46.7237      46.7237 
  410000    109.37875   -7256.4295   -6690.1027   -851.32309     102002.7      46.7237      46.7237      46.7237 
  411000    110.98323    -7229.236   -6654.6018   -852.66928     102002.7      46.7237      46.7237      46.7237 
  412000    111.17585   -7247.9655    -6672.334   -694.73008     102002.7      46.7237      46.7237      46.7237 
  413000    107.61014   -7247.1823   -6690.0129   -686.93252     102002.7      46.7237      46.7237      46.7237 
  414000    113.21784   -7256.0658   -6669.8615    -764.0662     102002.7      46.7237      46.7237      46.7237 
  415000    110.67557   -7241.2122    -6668.171   -923.46288     102002.7      46.7237      46.7237      46.7237 
  416000    111.61982   -7237.7745   -6659.8442   -829.70615     102002.7      46.7237      46.7237      46.7237 
  417000     111.0587   -7262.8188   -6687.7939    -908.8163     102002.7      46.7237      46.7237      46.7237 
  418000    109.01655   -7237.7827   -6673.3313    -685.1725     102002.7      46.7237      46.7237      46.7237 
  419000    108.73632   -7266.3006   -6703.3001   -798.70171     102002.7      46.7237      46.7237      46.7237 
  420000     110.4314    -7249.534   -6677.7569   -952.37894     102002.7      46.7237      46.7237      46.7237 
  421000     109.0145   -7250.1896   -6685.7488    -666.5018     102002.7      46.7237      46.7237      46.7237 
  422000      110.484   -7251.7687   -6679.7193   -987.56835     102002.7      46.7237      46.7237      46.7237 
  423000    112.66029   -7242.2056   -6658.8882   -735.44677     102002.7      46.7237      46.7237      46.7237 
  424000    110.77088   -7260.0636   -6686.5289   -820.34067     102002.7      46.7237      46.7237      46.7237 
  425000    114.43208   -7237.6659   -6645.1747   -835.97743     102002.7      46.7237      46.7237      46.7237 
  426000    110.74222   -7244.6075   -6671.2212   -636.95898     102002.7      46.7237      46.7237      46.7237 
  427000    106.96348   -7254.5055   -6700.6842   -778.80708     102002.7      46.7237      46.7237      46.7237 
  428000    113.50812    -7233.525   -6645.8177   -870.77209     102002.7      46.7237      46.7237      46.7237 
  429000    106.17236   -7239.7919   -6690.0668   -728.73419     102002.7      46.7237      46.7237      46.7237 
  430000    113.14207   -7242.8006   -6656.9886   -677.15915     102002.7      46.7237      46.7237      46.7237 
  431000    110.23066   -7257.5838   -6686.8462   -647.76167     102002.7      46.7237      46.7237      46.7237 
  432000    110.93061   -7248.9777   -6674.6159   -640.58741     102002.7      46.7237      46.7237      46.7237 
  433000    111.37352   -7236.1155   -6659.4605   -864.21653     102002.7      46.7237      46.7237      46.7237 
  434000        108.9   -7259.7278   -6695.8799   -734.65436     102002.7      46.7237      46.7237      46.7237 
  435000    111.11377   -7255.5462   -6680.2361   -557.52228     102002.7      46.7237      46.7237      46.7237 
  436000    108.60256   -7261.3408   -6699.0329   -715.19214     102002.7      46.7237      46.7237      46.7237 
  437000    108.75754   -7260.7154   -6697.6051   -390.20059     102002.7      46.7237      46.7237      46.7237 
  438000    107.13011   -7270.1467   -6715.4627   -809.42567     102002.7      46.7237      46.7237      46.7237 
  439000    108.43487   -7253.8748   -6692.4352   -694.14068     102002.7      46.7237      46.7237      46.7237 
  440000    109.81576   -7237.2714   -6668.6819   -543.28524     102002.7      46.7237      46.7237      46.7237 
  441000    106.30807   -7245.6317   -6695.2039   -665.28754     102002.7      46.7237      46.7237      46.7237 
  442000    107.82298    -7235.962   -6677.6905   -777.51441     102002.7      46.7237      46.7237      46.7237 
  443000     105.9223   -7228.8464   -6680.4161    -735.1374     102002.7      46.7237      46.7237      46.7237 
  444000    106.84626   -7254.1192   -6700.9048   -1155.4244     102002.7      46.7237      46.7237      46.7237 
  445000    111.46914   -7249.6072   -6672.4571   -920.22319     102002.7      46.7237      46.7237      46.7237 
  446000    106.66463     -7249.21   -6696.9361   -829.77935     102002.7      46.7237      46.7237      46.7237 
  447000    107.56094   -7241.1281   -6684.2133    -863.3069     102002.7      46.7237      46.7237      46.7237 
  448000    110.31799   -7229.1644   -6657.9746   -810.64358     102002.7      46.7237      46.7237      46.7237 
  449000    107.59393   -7254.7744   -6697.6888   -802.97439     102002.7      46.7237      46.7237      46.7237 
  450000    108.94851   -7240.9472    -6676.848   -692.47758     102002.7      46.7237      46.7237      46.7237 
  451000    112.12658   -7258.1073   -6677.5532   -545.37631     102002.7      46.7237      46.7237      46.7237 
  452000    108.22716   -7260.4765   -6700.1123   -789.09218     102002.7      46.7237      46.7237      46.7237 
  453000    114.34179   -7252.9606   -6660.9368   -827.28883     102002.7      46.7237      46.7237      46.7237 
  454000    109.62743   -7251.9683   -6684.3539   -839.51553     102002.7      46.7237      46.7237      46.7237 
  455000    110.70821   -7248.5039   -6675.2936   -630.61858     102002.7      46.7237      46.7237      46.7237 
  456000    110.48011   -7241.3115   -6669.2822   -583.22371     102002.7      46.7237      46.7237      46.7237 
  457000    108.77398   -7255.9465    -6692.751   -948.32538     102002.7      46.7237      46.7237      46.7237 
  458000    111.42624   -7244.8831   -6667.9551   -665.91947     102002.7      46.7237      46.7237      46.7237 
  459000     110.9139   -7244.0868   -6669.8115    -621.3876     102002.7      46.7237      46.7237      46.7237 
  460000     110.6933    -7267.627    -6694.494   -824.17685     102002.7      46.7237      46.7237      46.7237 
  461000    107.70208   -7251.3632   -6693.7177   -668.83106     102002.7      46.7237      46.7237      46.7237 
  462000    111.51738   -7240.8379    -6663.438   -697.15421     102002.7      46.7237      46.7237      46.7237 
  463000    109.31767   -7235.9996   -6669.9892   -666.79056     102002.7      46.7237      46.7237      46.7237 
  464000    107.60363    -7245.148   -6688.0122   -813.61687     102002.7      46.7237      46.7237      46.7237 
  465000    110.30371   -7260.5431   -6689.4272   -796.88436     102002.7      46.7237      46.7237      46.7237 
  466000    112.39361   -7222.7085   -6640.7718   -793.81269     102002.7      46.7237      46.7237      46.7237 
  467000    107.66327   -7245.1641   -6687.7195    -879.2502     102002.7      46.7237      46.7237      46.7237 
  468000    105.15846   -7258.5998   -6714.1244   -967.16647     102002.7      46.7237      46.7237      46.7237 
  469000    112.95736   -7249.4433   -6664.5877   -805.39337     102002.7      46.7237      46.7237      46.7237 
  470000    107.83694   -7255.3954   -6697.0516   -732.58275     102002.7      46.7237      46.7237      46.7237 
  471000    111.58351   -7232.4773    -6654.735   -921.55733     102002.7      46.7237      46.7237      46.7237 
  472000    109.86444   -7239.2857   -6670.4442   -794.42395     102002.7      46.7237      46.7237      46.7237 
  473000    108.80047   -7271.8661   -6708.5335    -688.9666     102002.7      46.7237      46.7237      46.7237 
  474000    108.68919   -7238.8863   -6676.1299   -999.38606     102002.7      46.7237      46.7237      46.7237 
  475000    109.15099    -7256.778   -6691.6306   -888.04793     102002.7      46.7237      46.7237      46.7237 
  476000    115.56731   -7251.6734   -6653.3043   -737.28443     102002.7      46.7237      46.7237      46.7237 
  477000    109.27918   -7250.9566   -6685.1454   -466.37554     102002.7      46.7237      46.7237      46.7237 
  478000    112.27514   -7237.5708   -6656.2475    -960.4622     102002.7      46.7237      46.7237      46.7237 
  479000    108.20549     -7249.13    -6688.878   -851.57146     102002.7      46.7237      46.7237      46.7237 
  480000    109.71873   -7264.1943   -6696.1073   -724.71765     102002.7      46.7237      46.7237      46.7237 
  481000    109.91187   -7238.7749   -6669.6879   -541.31636     102002.7      46.7237      46.7237      46.7237 
  482000    107.28404   -7248.2719   -6692.7909   -708.18965     102002.7      46.7237      46.7237      46.7237 
  483000     109.1472   -7279.7632   -6714.6354   -779.63014     102002.7      46.7237      46.7237      46.7237 
  484000    109.59964   -7243.8154    -6676.345   -869.28183     102002.7      46.7237      46.7237      46.7237 
  485000    111.78635   -7259.7772   -6680.9847   -877.01094     102002.7      46.7237      46.7237      46.7237 
  486000    108.42928   -7245.7192   -6684.3085    -901.7469     102002.7      46.7237      46.7237      46.7237 
  487000    109.56721    -7260.828   -6693.5255   -842.10707     102002.7      46.7237      46.7237      46.7237 
  488000    111.11872   -7246.9141   -6671.5784   -894.58046     102002.7      46.7237      46.7237      46.7237 
  489000    112.26326   -7271.5043   -6690.2425   -759.87859     102002.7      46.7237      46.7237      46.7237 
  490000    113.34622    -7244.976    -6658.107   -676.76983     102002.7      46.7237      46.7237      46.7237 
  491000    112.74858   -7266.9601   -6683.1855   -467.05156     102002.7      46.7237      46.7237      46.7237 
  492000    103.64383   -7239.8782   -6703.2449    -789.4103     102002.7      46.7237      46.7237      46.7237 
  493000    112.04718   -7262.4829   -6682.3399   -660.73894     102002.7      46.7237      46.7237      46.7237 
  494000    106.81606   -7257.1254   -6704.0674    -487.9108     102002.7      46.7237      46.7237      46.7237 
  495000    113.81364   -7251.1672   -6661.8781   -760.86439     102002.7      46.7237      46.7237      46.7237 
  496000    109.63336   -7245.6764   -6678.0314   -584.02501     102002.7      46.7237      46.7237      46.7237 
  497000    104.75687   -7251.1828   -6708.7866   -689.31967     102002.7      46.7237      46.7237      46.7237 
  498000     109.4251   -7235.0332   -6668.4665   -475.97687     102002.7      46.7237      46.7237      46.7237 
  499000    113.42166    -7236.922   -6649.6624   -689.83714     102002.7      46.7237      46.7237      46.7237 
  500000    113.47467   -7280.4307   -6692.8967   -538.65221     102002.7      46.7237      46.7237      46.7237 
  500506    111.84079   -7247.8887   -6668.8143   -897.25031     102002.7      46.7237      46.7237      46.7237 
Loop time of 572.649 on 24 procs for 500000 steps with 1738 atoms

Performance: 75.439 ns/day, 0.318 hours/ns, 873.135 timesteps/s
99.9% CPU use with 24 MPI tasks x no OpenMP threads

MPI task timing breakdown:
Section |  min time  |  avg time  |  max time  |%varavg| %total
---------------------------------------------------------------
Pair    | 181.22     | 276.56     | 382.71     | 341.1 | 48.29
Bond    | 66.061     | 78.493     | 91.098     |  64.9 | 13.71
Neigh   | 1.7477     | 1.7673     | 1.7811     |   0.9 |  0.31
Comm    | 90.043     | 208.62     | 304.76     | 413.1 | 36.43
Output  | 0.30368    | 0.30406    | 0.30908    |   0.2 |  0.05
Modify  | 3.369      | 3.8821     | 4.1346     |  11.2 |  0.68
Other   |            | 3.027      |            |       |  0.53

Nlocal:    72.4167 ave 96 max 50 min
Histogram: 2 0 3 6 2 4 1 3 2 1
Nghost:    1969.42 ave 2124 max 1880 min
Histogram: 8 8 0 0 0 0 0 0 1 7
Neighs:    7640.46 ave 11766 max 4707 min
Histogram: 5 3 2 2 2 3 2 1 2 2

Total # of neighbors = 183371
Ave neighs/atom = 105.507
Ave special neighs/atom = 6.62831
Neighbor list builds = 3292
Dangerous builds = 0
Neighbor list info ...
  update every 1 steps, delay 10 steps, check yes
  max neighbors/atom: 2000, page size: 100000
  master list distance cutoff = 16
  ghost atom cutoff = 16
  binsize = 8, bins = 6 6 6
  3 neighbor lists, perpetual/occasional/extra = 3 0 0
  (1) pair buck6d/coul/gauss/dsf, perpetual, skip from (3)
      attributes: half, newton on
      pair build: skip
      stencil: none
      bin: none
  (2) pair lj/cut, perpetual, skip from (3)
      attributes: half, newton on
      pair build: skip
      stencil: none
      bin: none
  (3) neighbor class addition, perpetual
      attributes: half, newton on
      pair build: half/bin/newton
      stencil: half/bin/3d/newton
      bin: standard
Setting up Verlet run ...
  Unit style    : real
  Current step  : 500506
  Time step     : 1
WARNING: Inconsistent image flags (../domain.cpp:786)
Per MPI rank memory allocation (min/avg/max) = 24.11 | 24.47 | 24.57 Mbytes
Step Time TotEng KinEng PotEng E_mol E_pair Temp Pxx Pyy Pzz Pxy Pxz Pyz Cella Cellb Cellc CellAlpha CellBeta CellGamma Volume Press 
  500506       500000   -6668.8143    579.07438   -7247.8887    4281.4561   -11529.345    111.84079   -827.99208   -730.16759   -1133.5913   -131.62792   -62.304937   -71.242213      46.7237      46.7237      46.7237           90           90           90     102002.7   -897.25031 
  501000       500494   -6670.1252    581.38521   -7251.5104    4290.1984   -11541.709     112.2871   -686.43528   -651.37447   -785.13375   -76.538795    181.23593   -23.734088      46.7237      46.7237      46.7237           90           90           90     102002.7   -707.64783 
  502000       501494   -6692.5762      571.264   -7263.8402    4282.7593   -11546.599    110.33232   -657.82558   -767.23196   -864.48855    230.65077   -15.333153    115.26938      46.7237      46.7237      46.7237           90           90           90     102002.7   -763.18203 
  503000       502494   -6668.2107    569.92203   -7238.1327    4300.5451   -11538.678    110.07313   -149.86272   -492.73046   -815.87705    217.03518     204.6593    153.48978      46.7237      46.7237      46.7237           90           90           90     102002.7   -486.15674 
  504000       503494   -6674.0017     567.5815   -7241.5832    4314.1775   -11555.761    109.62109   -979.98339   -398.52101   -746.01095    193.41524    51.037814    49.040013      46.7237      46.7237      46.7237           90           90           90     102002.7   -708.17178 
  505000       504494   -6702.9377    564.31906   -7267.2567    4280.8657   -11548.122    108.99099   -432.58771   -618.35824   -864.16951    58.225215   -81.433337   -273.81525      46.7237      46.7237      46.7237           90           90           90     102002.7   -638.37182 
  506000       505494    -6659.434     576.4605   -7235.8945    4327.1409   -11563.035    111.33595   -639.81745   -1131.7001   -1132.2018    252.81066   -194.02318  -0.52579568      46.7237      46.7237      46.7237           90           90           90     102002.7   -967.90647 
  507000       506494   -6639.1794    584.32809   -7223.5075    4323.3887   -11546.896    112.85548   -241.76841    -638.2051   -392.85901    131.95281    36.305344    63.967798      46.7237      46.7237      46.7237           90           90           90     102002.7   -424.27751 
  508000       507494   -6681.4491    572.36556   -7253.8147    4301.1498   -11554.964    110.54507   -440.24123   -955.11222   -651.99992   -206.41902    196.98618   -286.13482      46.7237      46.7237      46.7237           90           90           90     102002.7   -682.45112 
  509000       508494   -6667.4106    571.41583   -7238.8265    4314.4945   -11553.321    110.36164   -356.22664   -503.85846   -664.09126    -20.51118   -139.99106   -75.204612      46.7237      46.7237      46.7237           90           90           90     102002.7   -508.05879 
  510000       509494   -6703.5845    547.48196   -7251.0665    4311.7691   -11562.836    105.73912   -937.74748   -995.63761   -843.22725   -144.56318    58.567627   -156.03387      46.7237      46.7237      46.7237           90           90           90     102002.7   -925.53744 
  511000       510494   -6696.3704    568.03635   -7264.4068    4297.8793   -11562.286    109.70894   -977.17685   -519.85068     -1131.27    20.751259    197.18716    171.01083      46.7237      46.7237      46.7237           90           90           90     102002.7   -876.09916 
  512000       511494   -6660.8669    578.61244   -7239.4794    4303.2772   -11542.757    111.75157   -833.12392   -687.41245    -767.9791     -26.9206     66.55775    11.422884      46.7237      46.7237      46.7237           90           90           90     102002.7   -762.83849 
  513000       512494   -6695.4849    561.87737   -7257.3623     4301.209   -11558.571    108.51941   -1247.1171   -1045.9082   -989.09541    -123.8157   -118.65303     129.1993      46.7237      46.7237      46.7237           90           90           90     102002.7   -1094.0403 
  514000       513494   -6658.6649    575.39409   -7234.0589    4323.6112    -11557.67    111.12999   -241.81933   -496.18524   -580.66126   -22.892541   -1.6031449   -19.094136      46.7237      46.7237      46.7237           90           90           90     102002.7   -439.55527 
  515000       514494   -6681.0737    559.38289   -7240.4566    4328.3459   -11568.802    108.03763   -517.56362   -1216.3421   -951.86427    120.62881    99.117491    15.285521      46.7237      46.7237      46.7237           90           90           90     102002.7   -895.25666 
  516000       515494   -6679.4509    554.01882   -7233.4698    4318.9551   -11552.425    107.00163   -761.89598    -317.5529   -279.08061    -200.2274   -83.454405    109.15385      46.7237      46.7237      46.7237           90           90           90     102002.7   -452.84316 
  517000       516494    -6670.337    576.74524   -7247.0822    4309.2245   -11556.307    111.39095   -377.16802   -431.78764   -644.87352    61.736512    243.46987   -54.604687      46.7237      46.7237      46.7237           90           90           90     102002.7   -484.60973 
  518000       517494   -6697.9594    563.90517   -7261.8646    4301.6791   -11563.544    108.91105   -663.15281   -626.36776   -604.12639    237.75533    71.535801    184.10239      46.7237      46.7237      46.7237           90           90           90     102002.7   -631.21565 
  519000       518494   -6674.0482    558.06153   -7232.1097    4319.5182   -11551.628    107.78243   -520.02544   -578.74862    -481.8778    53.128185   -65.623342   -213.20171      46.7237      46.7237      46.7237           90           90           90     102002.7   -526.88395 
  520000       519494   -6686.8545    555.15733   -7242.0118    4303.7765   -11545.788    107.22152   -970.18949   -919.12479   -1050.9306    91.108957    64.160468   -95.414533      46.7237      46.7237      46.7237           90           90           90     102002.7   -980.08162 
  521000       520494   -6671.5031     575.0282   -7246.5313    4314.5982   -11561.129    111.05932   -779.82416   -461.35661    -520.3372    40.699589    134.24535   -30.036957      46.7237      46.7237      46.7237           90           90           90     102002.7   -587.17266 
  522000       521494   -6673.9021    563.82721   -7237.7293    4326.4544   -11564.184      108.896   -633.71865   -883.85666   -1015.6859     199.1577    27.403382   -26.624601      46.7237      46.7237      46.7237           90           90           90     102002.7    -844.4204 
  523000       522494   -6682.8574    568.61652   -7251.4739    4294.0377   -11545.512    109.82099   -548.53038   -592.36329   -1002.0421   -2.4648455   -92.681036   -299.76638      46.7237      46.7237      46.7237           90           90           90     102002.7   -714.31194 
  524000       523494   -6700.9609    554.05732   -7255.0182    4303.0193   -11558.037    107.00907   -360.89879   -838.59337   -480.25725    218.20631    105.29447   -217.42881      46.7237      46.7237      46.7237           90           90           90     102002.7   -559.91647 
  525000       524494   -6672.8333    574.55839   -7247.3917     4293.151   -11540.543    110.96859   -992.86362   -531.64617   -696.76776    238.40583   -140.98718   -28.929779      46.7237      46.7237      46.7237           90           90           90     102002.7   -740.42585 
  526000       525494   -6678.6292    570.05738   -7248.6866    4313.7356   -11562.422    110.09927   -1075.4308   -553.16869   -460.33069   -97.733634   -82.497668   -83.551601      46.7237      46.7237      46.7237           90           90           90     102002.7   -696.31006 
  527000       526494   -6697.7888    540.45249   -7238.2413    4320.6289    -11558.87    104.38147   -383.12064   -870.44892   -939.86033   -78.352844   -110.06111    246.83272      46.7237      46.7237      46.7237           90           90           90     102002.7    -731.1433 
  528000       527494   -6679.3173    572.77091   -7252.0883    4297.9564   -11550.045    110.62336    -953.3178   -528.93592   -389.07574    202.16749   -202.07697   -157.11099      46.7237      46.7237      46.7237           90           90           90     102002.7   -623.77649 
  529000       528494   -6652.8948    581.09303   -7233.9878    4306.4887   -11540.476    112.23067   -692.26012   -981.85172   -713.54997   -226.46589     132.0605   -42.600861      46.7237      46.7237      46.7237           90           90           90     102002.7   -795.88727 
  530000       529494    -6686.618    558.11801   -7244.7361    4312.2272   -11556.963    107.79334    -713.6262    -167.8632   -615.82792    114.93758   -181.30399     169.7597      46.7237      46.7237      46.7237           90           90           90     102002.7   -499.10577 
  531000       530494   -6673.3666    565.85552   -7239.2221    4295.0272   -11534.249    109.28774   -522.79234   -961.91494   -542.52951    35.540971    157.33201   -78.012049      46.7237      46.7237      46.7237           90           90           90     102002.7    -675.7456 
  532000       531494   -6699.0143    561.94669   -7260.9609    4296.3238   -11557.285     108.5328    -826.3367   -525.71346   -411.52605    15.393966    87.429958    11.808204      46.7237      46.7237      46.7237           90           90           90     102002.7   -587.85874 
  533000       532494    -6674.167    569.78343   -7243.9505    4320.2812   -11564.232    110.04636   -132.75514   -680.17746   -954.30245    215.34441    156.68492    112.63149      46.7237      46.7237      46.7237           90           90           90     102002.7   -589.07835 
  534000       533494   -6694.8964    570.55205   -7265.4485    4286.9491   -11552.398    110.19481   -978.81078   -366.83979   -412.79421   -24.086834   -151.32474     45.62239      46.7237      46.7237      46.7237           90           90           90     102002.7   -586.14826 
  535000       534494   -6694.9388    564.00889   -7258.9477    4301.6904   -11560.638    108.93108    -669.3384   -276.75677   -631.07001    224.29052   -69.357272    190.00323      46.7237      46.7237      46.7237           90           90           90     102002.7   -525.72173 
  536000       535494     -6667.36    567.60819   -7234.9682    4318.1194   -11553.088    109.62624   -1026.3561   -580.02276   -329.82255   -38.453375    114.33132    331.33381      46.7237      46.7237      46.7237           90           90           90     102002.7   -645.40045 
  537000       536494   -6659.9275    579.56166   -7239.4891     4321.045   -11560.534     111.9349   -1017.8192   -443.03966   -967.74184   -53.411888    -65.78082    1.6228563      46.7237      46.7237      46.7237           90           90           90     102002.7   -809.53356 
  538000       537494   -6684.7528    558.80393   -7243.5567    4322.9354   -11566.492    107.92581    -469.3915   -593.01137   -588.80213   -87.258111    78.765227   -21.198816      46.7237      46.7237      46.7237           90           90           90     102002.7   -550.40166 
  539000       538494   -6697.5999    555.02643   -7252.6263    4300.0233    -11552.65    107.19624   -289.60535   -607.82854    -975.5776    40.365721   -39.969657     120.8797      46.7237      46.7237      46.7237           90           90           90     102002.7   -624.33717 
  540000       539494   -6676.4207    581.15872   -7257.5794    4290.8117   -11548.391    112.24336   -355.19017   -190.67553   -333.73587    215.67214   -92.217559    96.952207      46.7237      46.7237      46.7237           90           90           90     102002.7   -293.20052 
  541000       540494   -6711.1927    557.39598   -7268.5887    4292.9652   -11561.554    107.65389   -612.06511   -344.38177   -642.17096    118.52793   -144.43647    47.277213      46.7237      46.7237      46.7237           90           90           90     102002.7   -532.87261 
  542000       541494   -6662.5165    574.75153    -7237.268    4317.9275   -11555.195    111.00589   -511.64554   -923.97572   -667.26633   -40.956013    113.73764    33.462713      46.7237      46.7237      46.7237           90           90           90     102002.7   -700.96253 
  543000       542494   -6679.8798    568.09677   -7247.9766    4303.2309   -11551.207    109.72061   -258.21378    106.74049   -511.90112   -1.3914512     286.0033   -153.43415      46.7237      46.7237      46.7237           90           90           90     102002.7    -221.1248 
  544000       543494   -6674.8028    575.91001   -7250.7128    4313.3202   -11564.033    111.22963   -776.28529   -173.33193    -437.5609     3.051789    60.292057   -23.757901      46.7237      46.7237      46.7237           90           90           90     102002.7    -462.3927 
  545000       544494   -6701.5802     565.9637   -7267.5439    4269.9326   -11537.476    109.30863   -774.06888   -628.01369   -961.90181    405.23983   -73.790609    36.462936      46.7237      46.7237      46.7237           90           90           90     102002.7   -787.99479 
  546000       545494   -6670.1411    573.99415   -7244.1352    4322.6142   -11566.749    110.85961   -205.17909   -375.18487    -329.1383    38.176624    123.85224    132.87278      46.7237      46.7237      46.7237           90           90           90     102002.7   -303.16742 
  547000       546494   -6680.6167    557.54245   -7238.1591    4302.0237   -11540.183    107.68218   -72.941903   -614.46718   -448.76768     33.15754   -285.68523   -65.115493      46.7237      46.7237      46.7237           90           90           90     102002.7   -378.72559 
  548000       547494    -6666.214     589.6892   -7255.9032      4305.56   -11561.463    113.89091   -102.42111   -472.54927   -869.83881   -153.87923   -144.42764   -249.95871      46.7237      46.7237      46.7237           90           90           90     102002.7   -481.60306 
  549000       548494   -6707.1672    554.80001   -7261.9672    4277.5158   -11539.483    107.15251   -288.04103   -728.96746   -435.34948    -115.0577    -73.57974   -20.538077      46.7237      46.7237      46.7237           90           90           90     102002.7   -484.11932 
  550000       549494   -6681.9854     574.0442   -7256.0296    4298.8189   -11554.848    110.86928   -82.456177   -428.63859   -739.44767   -86.508213    51.041665   -29.555225      46.7237      46.7237      46.7237           90           90           90     102002.7   -416.84748 
  551000       550494   -6696.8554    564.29742   -7261.1529    4280.3336   -11541.486    108.98681   -374.93844   -53.830694   -744.72926   -35.856476   -179.23399   -4.4050591      46.7237      46.7237      46.7237           90           90           90     102002.7   -391.16613 
  552000       551494    -6672.153    583.97929   -7256.1323    4290.9365   -11547.069    112.78811   -720.17679   -547.94295   -374.62518    270.60901      41.3678    7.1608403      46.7237      46.7237      46.7237           90           90           90     102002.7   -547.58164 
  553000       552494   -6706.6614    555.04233   -7261.7037    4310.1286   -11571.832    107.19931   -632.86161   -610.75112   -532.74425    45.581895    237.46689   -42.973446      46.7237      46.7237      46.7237           90           90           90     102002.7   -592.11899 
  554000       553494    -6688.394    581.35826   -7269.7523    4300.0556   -11569.808    112.28189   -481.34519   -942.09713   -906.43845    59.308693    139.18492   -13.885676      46.7237      46.7237      46.7237           90           90           90     102002.7   -776.62692 
  555000       554494   -6658.1097    583.29234    -7241.402    4309.0088   -11550.411    112.65544   -930.67015   -374.21428   -506.99906    17.609766   -64.923206    99.210087      46.7237      46.7237      46.7237           90           90           90     102002.7   -603.96116 
[...]
  936000       935494   -6688.0404    573.43022   -7261.4706    4314.2053   -11575.676    110.75069   -622.62934   -917.20171   -1163.5181   -207.54916   -4.8585628   -225.57752      46.7237      46.7237      46.7237           90           90           90     102002.7   -901.11638 
  937000       936494   -6658.1719    580.06867   -7238.2406    4318.2211   -11556.462    112.03283   -380.79663   -349.08301   -1014.1454   -18.848778    91.533249   -134.22269      46.7237      46.7237      46.7237           90           90           90     102002.7   -581.34168 
  938000       937494   -6685.9781    565.24016   -7251.2182    4300.9481   -11552.166    109.16889   -623.73308   -282.63569   -746.04685   -27.466776   0.93643199    31.074603      46.7237      46.7237      46.7237           90           90           90     102002.7   -550.80521 
  939000       938494   -6674.7678    566.94163   -7241.7094    4323.5998   -11565.309    109.49751   -867.46126   -504.02067   -885.03365    52.434797   -226.80505    36.689786      46.7237      46.7237      46.7237           90           90           90     102002.7   -752.17186 
  940000       939494   -6654.4664    574.88766   -7229.3541    4325.5278   -11554.882    111.03218   -372.73548   -346.22761     -661.254   -36.513464    78.848097   -7.3908373      46.7237      46.7237      46.7237           90           90           90     102002.7   -460.07236 
  941000       940494    -6685.456    570.65173   -7256.1077     4305.237   -11561.345    110.21407   -29.626343   -688.78033   -729.44036    57.307517   -55.506617    50.156279      46.7237      46.7237      46.7237           90           90           90     102002.7   -482.61567 
  942000       941494   -6678.0129    576.46451   -7254.4774    4289.7385   -11544.216    111.33673   -835.05931   -668.19976   -645.69173   -85.449819   -60.372538    -29.80344      46.7237      46.7237      46.7237           90           90           90     102002.7   -716.31693 
  943000       942494   -6667.6832     573.1394   -7240.8226    4328.5816   -11569.404    110.69453   -501.82709   -996.62589   -697.00784   -191.57298    41.200961    155.57956      46.7237      46.7237      46.7237           90           90           90     102002.7   -731.82027 
  944000       943494   -6679.1378    567.30291   -7246.4407    4292.1295    -11538.57    109.56728   -180.46301   -724.23159   -592.56017    25.614659    254.45531    14.047004      46.7237      46.7237      46.7237           90           90           90     102002.7   -499.08492 
  945000       944494   -6675.0406    571.57678   -7246.6173    4301.9302   -11548.548    110.39273   -682.21334   -372.10139   -1132.2557    79.448549    220.60803   -209.91652      46.7237      46.7237      46.7237           90           90           90     102002.7    -728.8568 
  946000       945494   -6692.9634    565.46843   -7258.4318    4287.5265   -11545.958    109.21298   -613.14985   -496.16768   -898.02051   -118.62527    64.833148   -33.986269      46.7237      46.7237      46.7237           90           90           90     102002.7   -669.11268 
  947000       946494   -6691.8246    557.29733   -7249.1219    4311.4384    -11560.56    107.63483   -1121.2826   -219.90022   -900.02763   -406.41445    83.505467   -90.143109      46.7237      46.7237      46.7237           90           90           90     102002.7   -747.07013 
  948000       947494   -6671.4196     563.9276   -7235.3472     4321.424   -11556.771    108.91539   -530.55764   -424.11258    -465.8228    56.437517     138.8598   -91.561974      46.7237      46.7237      46.7237           90           90           90     102002.7   -473.49767 
  949000       948494    -6690.788    566.13064   -7256.9186    4306.4342   -11563.353    109.34087   -706.60376   -560.00045   -898.63716   -106.04035   -65.059188    161.94227      46.7237      46.7237      46.7237           90           90           90     102002.7   -721.74712 
  950000       949494   -6645.9288    580.69927    -7226.628    4325.2672   -11551.895    112.15462   -505.14503   -585.99646    -899.8949   -23.785423     66.43075    111.44783      46.7237      46.7237      46.7237           90           90           90     102002.7    -663.6788 
  951000       950494   -6688.7567    557.65697   -7246.4137    4328.4868   -11574.901    107.70429   -1057.2172   -1186.1454   -669.38708   -66.052773    22.378941    299.71285      46.7237      46.7237      46.7237           90           90           90     102002.7   -970.91656 
  952000       951494    -6716.242    559.28902    -7275.531    4266.7146   -11542.246     108.0195   -528.73506   -510.47334   -817.31314   -3.0290023    -67.02931    22.782938      46.7237      46.7237      46.7237           90           90           90     102002.7   -618.84052 
  953000       952494   -6666.1745    571.00445   -7237.1789     4297.652   -11534.831    110.28219   -518.80385   -871.48197   -752.23767    111.77051   -16.027408    193.74981      46.7237      46.7237      46.7237           90           90           90     102002.7    -714.1745 
  954000       953494   -6694.1378    565.54427   -7259.6821    4305.7834   -11565.465    109.22762   -528.93782   -964.68217   -622.85557    60.650049    -203.5199    321.11694      46.7237      46.7237      46.7237           90           90           90     102002.7   -705.49186 
  955000       954494   -6669.6001     571.2691   -7240.8693    4305.5345   -11546.404     110.3333   -873.48426   -584.19071   -995.11732    137.89911   -125.61527   -67.682423      46.7237      46.7237      46.7237           90           90           90     102002.7   -817.59743 
  956000       955494   -6676.3171    569.19833   -7245.5155    4308.6332   -11554.149    109.93336   -432.23787   -251.46152   -607.53755   -148.50566   -17.409934   -174.02285      46.7237      46.7237      46.7237           90           90           90     102002.7   -430.41231 
  957000       956494   -6695.9639    549.72105    -7245.685    4317.3981   -11563.083    106.17157   -699.24456   -709.96868   -788.58427   -135.52196    77.341724   -115.95716      46.7237      46.7237      46.7237           90           90           90     102002.7   -732.59917 
  958000       957494   -6675.4197    551.25272   -7226.6724    4346.9314   -11573.604    106.46739   -894.38875    -1275.687   -779.08345    126.14067    41.385135    -50.32977      46.7237      46.7237      46.7237           90           90           90     102002.7   -983.05308 
  959000       958494   -6695.7344    573.55271   -7269.2872    4287.1208   -11556.408    110.77435   -878.77916   -457.95333   -618.44698   -6.7376433    309.85027    178.50077      46.7237      46.7237      46.7237           90           90           90     102002.7   -651.72649 
  960000       959494   -6641.3438    584.09588   -7225.4397    4345.6652   -11571.105    112.81063   -627.53206   -1339.6243    -700.9753    163.39615    46.079959   -94.607108      46.7237      46.7237      46.7237           90           90           90     102002.7   -889.37722 
  961000       960494   -6685.2139    570.09624   -7255.3101    4299.2185   -11554.529    110.10678   -755.76265   -300.95375   -769.50324    -212.1824    234.60044   -109.86533      46.7237      46.7237      46.7237           90           90           90     102002.7   -608.73988 
  962000       961494    -6683.081    576.95899     -7260.04    4286.5743   -11546.614    111.43223   -515.50317   -398.87128   -661.37696   -17.596329   -56.944217    67.313522      46.7237      46.7237      46.7237           90           90           90     102002.7   -525.25047 
  963000       962494   -6654.7516    594.44391   -7249.1955    4307.3513   -11556.547    114.80922    -541.0337   -1231.4237   -1183.6476   -14.617234   -27.057726    145.54819      46.7237      46.7237      46.7237           90           90           90     102002.7   -985.36835 
  964000       963494   -6670.9636    575.10541    -7246.069    4310.6076   -11556.677    111.07424   -756.60078    -513.4003   -529.77134      47.2484   -128.78438    150.86814      46.7237      46.7237      46.7237           90           90           90     102002.7   -599.92414 
  965000       964494   -6707.1338    561.53358   -7268.6674      4279.94   -11548.607    108.45301   -763.08998   -743.50429   -782.08153    21.951536   -47.493834   -78.058354      46.7237      46.7237      46.7237           90           90           90     102002.7   -762.89193 
  966000       965494   -6676.4548    570.65567   -7247.1105    4313.7612   -11560.872    110.21483   -774.99259   -921.29955   -778.34967   -56.900448   -107.75495    82.338912      46.7237      46.7237      46.7237           90           90           90     102002.7    -824.8806 
  967000       966494   -6689.9628    555.32296   -7245.2858    4314.9861   -11560.272    107.25351   -895.21769   -753.66972   -1142.4398    37.519138    82.765506   -6.0307728      46.7237      46.7237      46.7237           90           90           90     102002.7    -930.4424 
  968000       967494   -6688.0804    563.36201   -7251.4424    4308.8138   -11560.256    108.80615   -992.69437   -424.20217   -1077.8252    137.19766    -222.6136    97.520878      46.7237      46.7237      46.7237           90           90           90     102002.7   -831.57391 
  969000       968494   -6653.2722    590.43264   -7243.7048    4321.1622   -11564.867    114.03449   -754.63734   -625.08907    -1000.843   -161.41998   -62.837618     54.25664      46.7237      46.7237      46.7237           90           90           90     102002.7   -793.52314 
  970000       969494    -6685.741    565.92146   -7251.6624    4307.3053   -11558.968    109.30047   -902.18088   -735.78727   -873.78132    13.900277   -61.209669    65.195368      46.7237      46.7237      46.7237           90           90           90     102002.7   -837.24983 
  971000       970494   -6670.1376      575.189   -7245.3266      4314.55   -11559.877    111.09038   -891.88096   -1107.2785   -1094.6784   -89.014607   -163.66551    78.806272      46.7237      46.7237      46.7237           90           90           90     102002.7   -1031.2793 
  972000       971494   -6677.8708    578.40939   -7256.2802    4297.4834   -11553.764    111.71236   -823.66482   -583.11169   -1170.8818    134.41053   -79.825887   -270.22364      46.7237      46.7237      46.7237           90           90           90     102002.7   -859.21945 
  973000       972494   -6662.6691    579.88009   -7242.5492    4340.6545   -11583.204     111.9964    -1252.881   -743.16826   -723.44764     211.3981    38.963084   -17.673108      46.7237      46.7237      46.7237           90           90           90     102002.7   -906.49896 
  974000       973494   -6675.0491    564.58363   -7239.6328    4323.3006   -11562.933    109.04209   -1329.0952   -1115.9352   -937.75825   -82.794844    69.689422    214.70778      46.7237      46.7237      46.7237           90           90           90     102002.7   -1127.5962 
  975000       974494   -6665.3051     590.6826   -7255.9877    4311.1016   -11567.089    114.08277   -993.95958   -535.91615   -976.43151   -91.911877   -31.146872   0.15009075      46.7237      46.7237      46.7237           90           90           90     102002.7   -835.43575 
  976000       975494   -6695.3396    575.22334   -7270.5629    4300.9992   -11571.562    111.09701   -693.81081   -850.33908   -800.44302    116.58629   -240.56887    20.404425      46.7237      46.7237      46.7237           90           90           90     102002.7   -781.53097 
  977000       976494   -6677.8855    558.69455     -7236.58    4322.9539   -11559.534    107.90469   -813.13437   -429.06957   -871.70275   -132.17182   -203.22044    190.82396      46.7237      46.7237      46.7237           90           90           90     102002.7   -704.63556 
  978000       977494   -6698.4353    560.76083   -7259.1961    4301.3318   -11560.528    108.30376   -795.06393   -546.28136   -550.60421   -55.114983   -206.79575    170.96741      46.7237      46.7237      46.7237           90           90           90     102002.7   -630.64983 
  979000       978494   -6656.6919    577.37699   -7234.0689    4335.1022   -11569.171    111.51296   -1176.9584    -674.5277   -664.60767     121.4943    109.03788    357.83194      46.7237      46.7237      46.7237           90           90           90     102002.7   -838.69791 
  980000       979494   -6694.3686    571.58934   -7265.9579    4287.2646   -11553.222    110.39515   -942.57115   -876.60836   -580.15518   -150.35716    52.460286      117.574      46.7237      46.7237      46.7237           90           90           90     102002.7   -799.77823 
  981000       980494   -6694.7695    560.31234   -7255.0818    4295.5873   -11550.669    108.21714   -1008.1152   -490.89896    -981.5362   -75.991287   -143.30672    74.471899      46.7237      46.7237      46.7237           90           90           90     102002.7   -826.85014 
  982000       981494   -6653.8068    590.53684   -7244.3436    4321.2462    -11565.59    114.05462   -949.16589   -1274.1819   -618.06766    18.785379   -24.460051   -37.202087      46.7237      46.7237      46.7237           90           90           90     102002.7    -947.1385 
  983000       982494   -6664.2347    576.94866   -7241.1833    4314.6892   -11555.873    111.43024   -975.63653   -335.96703   -315.28584    175.72237    -19.15154    97.241139      46.7237      46.7237      46.7237           90           90           90     102002.7   -542.29646 
  984000       983494   -6717.5415    549.82935   -7267.3708    4283.4993    -11550.87    106.19249   -569.95757   -931.39458   -527.02126   -125.35532   -192.68615    4.4545599      46.7237      46.7237      46.7237           90           90           90     102002.7   -676.12447 
  985000       984494   -6670.0368      574.724   -7244.7608    4325.8648   -11570.626    111.00057   -167.16401   -289.78302   -629.59155    -246.7702   -280.80835   -25.581505      46.7237      46.7237      46.7237           90           90           90     102002.7   -362.17952 
  986000       985494   -6671.9801    575.28254   -7247.2627    4295.7547   -11543.017    111.10845   -886.99738   -1011.7961   -548.94948    17.889493   -73.524044    151.09062      46.7237      46.7237      46.7237           90           90           90     102002.7   -815.91431 
  987000       986494   -6686.0456    560.73958   -7246.7852    4310.5388   -11557.324    108.29966   -1053.2816   -206.44413     -666.135   -66.621127   -304.23751   -299.37393      46.7237      46.7237      46.7237           90           90           90     102002.7   -641.95357 
  988000       987494   -6677.6293    567.84291   -7245.4722    4307.2614   -11552.734    109.67158   -192.53574   -342.90677   -1042.2618   -64.697919   -40.639466   -45.561912      46.7237      46.7237      46.7237           90           90           90     102002.7   -525.90143 
  989000       988494   -6674.4499    569.88527   -7244.3352    4299.4588   -11543.794    110.06603   -571.65571   -1102.6139   -881.61626    -118.1485   -86.351936   -35.532933      46.7237      46.7237      46.7237           90           90           90     102002.7   -851.96196 
  990000       989494   -6713.6619    553.32248   -7266.9844    4279.2428   -11546.227    106.86714   -509.28494   -760.65081   -677.23499   -231.36731   -9.4910847    180.67631      46.7237      46.7237      46.7237           90           90           90     102002.7   -649.05691 
  991000       990494   -6670.2593    579.38284   -7249.6421    4311.0389   -11560.681    111.90037   -742.40513   -414.76396   -715.77758   -47.383943   -88.622537    167.33202      46.7237      46.7237      46.7237           90           90           90     102002.7   -624.31555 
  992000       991494   -6695.2069    565.83662   -7261.0435    4299.2792   -11560.323    109.28409   -758.71715   -1147.2289   -487.02021    11.091609   -61.676652    90.117623      46.7237      46.7237      46.7237           90           90           90     102002.7   -797.65544 
  993000       992494   -6666.8847     575.3455   -7242.2302    4310.1821   -11552.412    111.12061    -920.0327   -918.92153   -634.17726   -121.16558   -153.21702    234.41742      46.7237      46.7237      46.7237           90           90           90     102002.7   -824.37717 
  994000       993494    -6667.381    577.02321   -7244.4042    4316.0649   -11560.469    111.44463   -1075.6949   -696.89854   -955.46104    63.919056    277.50324    233.47648      46.7237      46.7237      46.7237           90           90           90     102002.7   -909.35151 
  995000       994494   -6694.2092    555.28117   -7249.4903    4330.4245   -11579.915    107.24544   -684.01276   -1260.7161   -878.33991   -36.885151    7.0212754     43.92113      46.7237      46.7237      46.7237           90           90           90     102002.7   -941.02291 
  996000       995494   -6658.2172    579.63197   -7237.8491    4338.5745   -11576.424    111.94848   -749.61079   -1072.8499   -1192.1682    87.053453    56.692241    142.85603      46.7237      46.7237      46.7237           90           90           90     102002.7   -1004.8763 
  997000       996494   -6663.2622    589.95101   -7253.2132    4302.0041   -11555.217    113.94147   -776.91261   -1204.0681   -938.40843   -60.701957    200.48127     53.74157      46.7237      46.7237      46.7237           90           90           90     102002.7    -973.1297 
  998000       997494   -6679.4353    567.07428   -7246.5096    4317.4745   -11563.984    109.52313   -800.50611   -755.76151   -937.64792   -124.53419   -38.688961   -147.97831      46.7237      46.7237      46.7237           90           90           90     102002.7   -831.30518 
  999000       998494   -6696.1574    557.36116   -7253.5186    4300.2314    -11553.75    107.64716   -708.98976   -326.92516   -455.67395   -109.82997   -293.05486    205.83356      46.7237      46.7237      46.7237           90           90           90     102002.7   -497.19629 
 1000000       999494   -6681.8001    574.80707   -7256.6072    4290.8926     -11547.5    111.01661   -1122.3518   -994.95522   -1034.5766   -23.792054   -145.72969    -138.2709      46.7237      46.7237      46.7237           90           90           90     102002.7   -1050.6279 
 1000506      1000000   -6677.8951    573.17737   -7251.0725    4310.8226   -11561.895    110.70186   -221.18475   -525.94593   -207.99801    95.291963   -111.52748     69.20588      46.7237      46.7237      46.7237           90           90           90     102002.7   -318.37623 
Loop time of 621.675 on 24 procs for 500000 steps with 1738 atoms

Performance: 69.490 ns/day, 0.345 hours/ns, 804.279 timesteps/s
99.9% CPU use with 24 MPI tasks x no OpenMP threads

MPI task timing breakdown:
Section |  min time  |  avg time  |  max time  |%varavg| %total
---------------------------------------------------------------
Pair    | 206.09     | 305.27     | 423.99     | 328.8 | 49.11
Bond    | 68.899     | 82.599     | 96.662     |  77.6 | 13.29
Neigh   | 1.633      | 1.6512     | 1.665      |   0.9 |  0.27
Comm    | 85.15      | 216.15     | 316.28     | 405.6 | 34.77
Output  | 0.34257    | 0.96199    | 0.98905    |  13.2 |  0.15
Modify  | 11.435     | 12.015     | 12.706     |   8.2 |  1.93
Other   |            | 3.029      |            |       |  0.49

Nlocal:    72.4167 ave 94 max 47 min
Histogram: 1 1 3 3 4 2 2 2 4 2
Nghost:    1981.46 ave 2165 max 1876 min
Histogram: 8 8 0 0 0 0 0 0 5 3
Neighs:    7641.12 ave 12252 max 4726 min
Histogram: 4 2 4 2 5 1 4 0 1 1

Total # of neighbors = 183387
Ave neighs/atom = 105.516
Ave special neighs/atom = 6.62831
Neighbor list builds = 3132
Dangerous builds = 0
Total wall time: 0:19:56
