LAMMPS (30 Mar 2018)
Reading data file ...
  orthogonal box = (0 0 0) to (46.7237 46.7237 46.7237)
  2 by 2 by 4 MPI processor grid
  reading atoms ...
  2009 atoms
  scanning bonds ...
  5 = max bonds/atom
  scanning angles ...
  10 = max angles/atom
  scanning dihedrals ...
  32 = max dihedrals/atom
  scanning impropers ...
  3 = max impropers/atom
  reading bonds ...
  2064 bonds
  reading angles ...
  3696 angles
  reading dihedrals ...
  6240 dihedrals
  reading impropers ...
  1008 impropers
Finding 1-2 1-3 1-4 neighbors ...
  special bond factors lj:   0          0          0         
  special bond factors coul: 0          0          0         
  5 = max # of 1-2 neighbors
  8 = max # of 1-3 neighbors
  20 = max # of 1-4 neighbors
  19 = max # of special neighbors
Finding 1-2 1-3 1-4 neighbors ...
  special bond factors lj:   0          0          1         
  special bond factors coul: 1          1          1         
  5 = max # of 1-2 neighbors
  8 = max # of 1-3 neighbors
  19 = max # of special neighbors
WARNING: Using 'neigh_modify every 1 delay 0 check yes' setting during minimization (../min.cpp:168)
Neighbor list info ...
  update every 1 steps, delay 0 steps, check yes
  max neighbors/atom: 2000, page size: 100000
  master list distance cutoff = 16
  ghost atom cutoff = 16
  binsize = 8, bins = 6 6 6
  3 neighbor lists, perpetual/occasional/extra = 3 0 0
  (1) pair buck6d/coul/gauss/dsf, perpetual, skip from (3)
      attributes: half, newton on
      pair build: skip
      stencil: none
      bin: none
  (2) pair lj/cut, perpetual, skip from (3)
      attributes: half, newton on
      pair build: skip
      stencil: none
      bin: none
  (3) neighbor class addition, perpetual
      attributes: half, newton on
      pair build: half/bin/newton
      stencil: half/bin/3d/newton
      bin: standard
Setting up cg style minimization ...
  Unit style    : real
  Current step  : 0
WARNING: Inconsistent image flags (../domain.cpp:786)
Per MPI rank memory allocation (min/avg/max) = 22.91 | 23.37 | 23.81 Mbytes
Step Temp E_pair E_mol TotEng Press 
       0            0   -12423.579    6482.8914   -5940.6875    6065.8987 
     500            0    -12503.67    3728.3191   -8775.3509   -674.44353 
Loop time of 3.13094 on 16 procs for 500 steps with 2009 atoms

99.9% CPU use with 16 MPI tasks x no OpenMP threads

Minimization stats:
  Stopping criterion = max force evaluations
  Energy initial, next-to-last, final = 
        -5940.68745205      -8775.3193319     -8775.35094704
  Force two-norm initial, final = 2575.16 8.18668
  Force max component initial, final = 151.963 1.5098
  Final line search alpha, max atom move = 0.00689988 0.0104175
  Iterations, force evaluations = 500 1000

MPI task timing breakdown:
Section |  min time  |  avg time  |  max time  |%varavg| %total
---------------------------------------------------------------
Pair    | 1.2799     | 1.8318     | 2.3132     |  22.6 | 58.51
Bond    | 0.27059    | 0.3598     | 0.43386    |   8.8 | 11.49
Neigh   | 0.022829   | 0.022995   | 0.023166   |   0.1 |  0.73
Comm    | 0.41115    | 0.87548    | 1.447      |  33.4 | 27.96
Output  | 0          | 0          | 0          |   0.0 |  0.00
Modify  | 0          | 0          | 0          |   0.0 |  0.00
Other   |            | 0.0409     |            |       |  1.31

Nlocal:    125.562 ave 141 max 108 min
Histogram: 1 1 0 2 6 1 1 0 1 3
Nghost:    2458.44 ave 2472 max 2445 min
Histogram: 2 2 1 1 2 0 4 1 1 2
Neighs:    11451.2 ave 15173 max 8311 min
Histogram: 3 2 1 2 1 0 2 2 2 1

Total # of neighbors = 183219
Ave neighs/atom = 91.1991
Ave special neighs/atom = 5.7342
Neighbor list builds = 14
Dangerous builds = 0
Neighbor list info ...
  update every 1 steps, delay 10 steps, check yes
  max neighbors/atom: 2000, page size: 100000
  master list distance cutoff = 16
  ghost atom cutoff = 16
  binsize = 8, bins = 6 6 6
  3 neighbor lists, perpetual/occasional/extra = 3 0 0
  (1) pair buck6d/coul/gauss/dsf, perpetual, skip from (3)
      attributes: half, newton on
      pair build: skip
      stencil: none
      bin: none
  (2) pair lj/cut, perpetual, skip from (3)
      attributes: half, newton on
      pair build: skip
      stencil: none
      bin: none
  (3) neighbor class addition, perpetual
      attributes: half, newton on
      pair build: half/bin/newton
      stencil: half/bin/3d/newton
      bin: standard
Setting up Verlet run ...
  Unit style    : real
  Current step  : 500
  Time step     : 1
WARNING: Inconsistent image flags (../domain.cpp:786)
Per MPI rank memory allocation (min/avg/max) = 22.56 | 22.64 | 22.88 Mbytes
Step Temp PotEng TotEng Press Volume Lx Ly Lz 
     500           91   -8775.3509   -8230.6735   -430.34758     102002.7      46.7237      46.7237      46.7237 
    1000      77.0821   -8281.4465   -7820.0741   -522.61249     102002.7      46.7237      46.7237      46.7237 
    2000    96.388099   -8214.8875   -7637.9597   -772.94044     102002.7      46.7237      46.7237      46.7237 
    3000    87.639055    -8208.403   -7683.8424   -762.01096     102002.7      46.7237      46.7237      46.7237 
    4000    90.212271   -8201.2312   -7661.2686   -487.14057     102002.7      46.7237      46.7237      46.7237 
    5000     91.21301   -8200.8909   -7654.9385   -795.55343     102002.7      46.7237      46.7237      46.7237 
    6000    88.674737   -8196.9005   -7666.1408   -758.19112     102002.7      46.7237      46.7237      46.7237 
    7000    89.025679   -8195.9228   -7663.0626   -574.89712     102002.7      46.7237      46.7237      46.7237 
    8000    91.201785   -8205.8347   -7659.9494   -797.82048     102002.7      46.7237      46.7237      46.7237 
    9000    90.200083   -8206.5009   -7666.6114   -553.82348     102002.7      46.7237      46.7237      46.7237 
   10000    89.484697   -8216.6529   -7681.0452   -1038.8324     102002.7      46.7237      46.7237      46.7237 
   11000    92.638283   -8189.4748   -7634.9914   -603.62701     102002.7      46.7237      46.7237      46.7237 
   12000    90.060852   -8207.2952   -7668.2389   -315.88111     102002.7      46.7237      46.7237      46.7237 
   13000    90.545539   -8189.5361   -7647.5788   -557.26642     102002.7      46.7237      46.7237      46.7237 
   14000    89.559896   -8203.9597   -7667.9019   -586.65192     102002.7      46.7237      46.7237      46.7237 
   15000    92.505279   -8215.8051   -7662.1179   -557.13568     102002.7      46.7237      46.7237      46.7237 
   16000    93.134375   -8189.2622   -7631.8095   -475.43007     102002.7      46.7237      46.7237      46.7237 
   17000    90.985835   -8202.4326   -7657.8399   -699.57971     102002.7      46.7237      46.7237      46.7237 
   18000    93.901664   -8209.1405   -7647.0953    -517.8278     102002.7      46.7237      46.7237      46.7237 
   19000    92.691304    -8222.589   -7667.7883   -732.75545     102002.7      46.7237      46.7237      46.7237 
   20000    90.569043   -8208.1141   -7666.0162   -829.38604     102002.7      46.7237      46.7237      46.7237 
   21000    92.251291   -8203.5158   -7651.3488    -568.8538     102002.7      46.7237      46.7237      46.7237 
   22000    92.748362   -8221.7201   -7666.5779   -766.86262     102002.7      46.7237      46.7237      46.7237 
   23000    90.218815   -8201.8136   -7661.8119   -441.97738     102002.7      46.7237      46.7237      46.7237 
   24000    92.960263   -8188.6263   -7632.2158       -544.6     102002.7      46.7237      46.7237      46.7237 
   25000    90.620812   -8197.5133   -7655.1055   -941.44901     102002.7      46.7237      46.7237      46.7237 
   26000     91.21198   -8220.3628   -7674.4165   -622.63311     102002.7      46.7237      46.7237      46.7237 
   27000    91.865639     -8193.35   -7643.4912   -754.99135     102002.7      46.7237      46.7237      46.7237 
   28000     89.93472   -8203.3934   -7665.0922   -639.35056     102002.7      46.7237      46.7237      46.7237 
   29000    88.975171   -8191.5523   -7658.9943   -817.24755     102002.7      46.7237      46.7237      46.7237 
   30000    91.097971   -8208.8433   -7663.5795   -839.35524     102002.7      46.7237      46.7237      46.7237 
   31000     90.86193     -8201.08   -7657.2289   -689.82014     102002.7      46.7237      46.7237      46.7237 
   32000    92.101741   -8172.1643   -7620.8925   -838.44363     102002.7      46.7237      46.7237      46.7237 
   33000    90.722235   -8199.3461   -7656.3312    -812.1975     102002.7      46.7237      46.7237      46.7237 
   34000    92.911424   -8170.6406   -7614.5224   -949.11573     102002.7      46.7237      46.7237      46.7237 
   35000    90.083347   -8200.9043   -7661.7134   -498.70964     102002.7      46.7237      46.7237      46.7237 
   36000    89.721527    -8212.576   -7675.5507   -964.65813     102002.7      46.7237      46.7237      46.7237 
   37000    89.744199   -8194.1364   -7656.9755   -968.58977     102002.7      46.7237      46.7237      46.7237 
   38000    92.080533   -8204.9187   -7653.7737   -706.56465     102002.7      46.7237      46.7237      46.7237 
   39000    90.782742   -8212.1711    -7668.794   -876.89327     102002.7      46.7237      46.7237      46.7237 
   40000    92.533607   -8183.6945   -7629.8377   -808.50125     102002.7      46.7237      46.7237      46.7237 
   41000    89.146082   -8192.7191   -7659.1382   -664.95266     102002.7      46.7237      46.7237      46.7237 
   42000    91.273865   -8201.1568   -7654.8401   -832.19879     102002.7      46.7237      46.7237      46.7237 
   43000    91.203624   -8200.5878   -7654.6915   -1025.6025     102002.7      46.7237      46.7237      46.7237 
   44000    90.592912   -8226.3656   -7684.1247   -1067.7177     102002.7      46.7237      46.7237      46.7237 
   45000    90.166806   -8207.4522   -7667.7618   -1089.8713     102002.7      46.7237      46.7237      46.7237 
   46000    92.409732   -8203.5888   -7650.4734   -956.99769     102002.7      46.7237      46.7237      46.7237 
   47000    88.995329   -8219.8551   -7687.1766   -883.18238     102002.7      46.7237      46.7237      46.7237 
   48000    90.240359   -8187.4678   -7647.3371   -888.62712     102002.7      46.7237      46.7237      46.7237 
   49000     92.49757   -8195.0721    -7641.431   -927.14106     102002.7      46.7237      46.7237      46.7237 
   50000    91.573832   -8194.0312   -7645.9191   -748.01535     102002.7      46.7237      46.7237      46.7237 
   51000    90.376696   -8188.8927    -7647.946   -999.07249     102002.7      46.7237      46.7237      46.7237 
   52000    89.742008   -8207.9775   -7670.8298   -632.35037     102002.7      46.7237      46.7237      46.7237 
   53000    90.414944   -8210.5631   -7669.3875   -812.60993     102002.7      46.7237      46.7237      46.7237 
   54000     91.67972   -8206.3705   -7657.6246   -973.04591     102002.7      46.7237      46.7237      46.7237 
   55000    89.679059   -8177.5364   -7640.7654   -697.08899     102002.7      46.7237      46.7237      46.7237 
   56000    89.362577   -8190.8394   -7655.9627   -1063.8665     102002.7      46.7237      46.7237      46.7237 
   57000    90.516271   -8207.5066   -7665.7245   -614.42781     102002.7      46.7237      46.7237      46.7237 
   58000    92.772359   -8202.2397   -7646.9538   -508.97471     102002.7      46.7237      46.7237      46.7237 
   59000    88.127483    -8189.979   -7662.4948   -644.32004     102002.7      46.7237      46.7237      46.7237 
   60000    89.459534   -8178.4355   -7642.9784   -636.32055     102002.7      46.7237      46.7237      46.7237 
   61000    92.427274   -8188.1517   -7634.9314     -706.645     102002.7      46.7237      46.7237      46.7237 
   62000    89.272081   -8183.7103   -7649.3752   -425.85246     102002.7      46.7237      46.7237      46.7237 
   63000     89.52874    -8213.239   -7677.3677   -672.26891     102002.7      46.7237      46.7237      46.7237 
   64000    91.315419   -8202.1079   -7655.5425   -477.55993     102002.7      46.7237      46.7237      46.7237 
   65000    92.374516   -8202.2004   -7649.2958   -922.16983     102002.7      46.7237      46.7237      46.7237 
   66000     91.01027   -8204.5612   -7659.8222   -931.90717     102002.7      46.7237      46.7237      46.7237 
   67000    88.381955   -8215.3935   -7686.3863   -855.92829     102002.7      46.7237      46.7237      46.7237 
   68000    91.739383   -8212.9161   -7663.8131   -831.98771     102002.7      46.7237      46.7237      46.7237 
   69000    92.306493   -8198.6603   -7646.1628   -734.53607     102002.7      46.7237      46.7237      46.7237 
   70000    89.784132   -8202.2393   -7664.8394   -1121.9059     102002.7      46.7237      46.7237      46.7237 
   71000    89.002985   -8208.4159   -7675.6915   -903.02843     102002.7      46.7237      46.7237      46.7237 
   72000    90.464616   -8215.4114   -7673.9384   -1089.4448     102002.7      46.7237      46.7237      46.7237 
   73000    91.499526   -8204.3262   -7656.6588   -970.93038     102002.7      46.7237      46.7237      46.7237 
   74000    90.364035   -8207.1643   -7666.2934   -758.91871     102002.7      46.7237      46.7237      46.7237 
   75000    90.389144   -8176.8921   -7635.8709   -718.75063     102002.7      46.7237      46.7237      46.7237 
   76000    89.778588   -8226.8962   -7689.5295   -611.01653     102002.7      46.7237      46.7237      46.7237 
   77000    89.259912   -8188.3234   -7654.0612   -865.85883     102002.7      46.7237      46.7237      46.7237 
   78000    92.152548   -8202.3471   -7650.7711   -839.00652     102002.7      46.7237      46.7237      46.7237 
   79000    90.804476   -8187.2217   -7643.7146   -646.30502     102002.7      46.7237      46.7237      46.7237 
   80000    90.804002   -8197.4359   -7653.9316   -737.31053     102002.7      46.7237      46.7237      46.7237 
   81000    89.387836   -8203.4036   -7668.3757   -739.02934     102002.7      46.7237      46.7237      46.7237 
   82000    91.336524   -8181.9312   -7635.2395   -704.39645     102002.7      46.7237      46.7237      46.7237 
   83000    91.865482   -8215.6028    -7665.745   -738.16295     102002.7      46.7237      46.7237      46.7237 
   84000    91.230134   -8186.3563   -7640.3013   -553.77696     102002.7      46.7237      46.7237      46.7237 
   85000    91.392044   -8186.9056   -7639.8815   -1040.4854     102002.7      46.7237      46.7237      46.7237 
   86000     88.57604   -8199.8649    -7669.696   -706.61059     102002.7      46.7237      46.7237      46.7237 
   87000     89.38052   -8188.3829   -7653.3988   -892.06332     102002.7      46.7237      46.7237      46.7237 
   88000     91.04365   -8218.3363   -7673.3975   -1049.7325     102002.7      46.7237      46.7237      46.7237 
   89000    92.849031   -8218.1952   -7662.4505   -723.04159     102002.7      46.7237      46.7237      46.7237 
   90000    91.141423   -8185.6323   -7640.1084   -899.26962     102002.7      46.7237      46.7237      46.7237 
   91000    91.190027   -8219.2658   -7673.4509    -586.2156     102002.7      46.7237      46.7237      46.7237 
   92000    90.108456   -8205.8052   -7666.4641   -908.81531     102002.7      46.7237      46.7237      46.7237 
   93000    92.863032   -8197.3737   -7641.5451   -822.16507     102002.7      46.7237      46.7237      46.7237 
   94000    90.782191   -8206.6342   -7663.2604   -691.62083     102002.7      46.7237      46.7237      46.7237 
   95000    91.908238   -8196.6956   -7646.5819   -780.42304     102002.7      46.7237      46.7237      46.7237 
   96000    91.797296   -8203.0538   -7653.6041   -496.82159     102002.7      46.7237      46.7237      46.7237 
   97000    93.124607   -8199.3721   -7641.9779   -621.91003     102002.7      46.7237      46.7237      46.7237 
   98000    91.088482   -8189.6957   -7644.4886   -804.14175     102002.7      46.7237      46.7237      46.7237 
   99000    90.021177   -8208.7508    -7669.932    -642.6585     102002.7      46.7237      46.7237      46.7237 
  100000    89.465613   -8181.5023   -7646.0089   -891.19109     102002.7      46.7237      46.7237      46.7237 
  101000    91.092541   -8183.7678   -7638.5365   -724.65597     102002.7      46.7237      46.7237      46.7237 
  102000    90.819313   -8197.6172   -7654.0212   -835.58511     102002.7      46.7237      46.7237      46.7237 
  103000    91.218766   -8191.6806   -7645.6937   -821.54889     102002.7      46.7237      46.7237      46.7237 
  104000    89.106432   -8207.5876    -7674.244   -655.21603     102002.7      46.7237      46.7237      46.7237 
  105000    88.923685   -8199.2621   -7667.0123    -782.0664     102002.7      46.7237      46.7237      46.7237 
  106000    88.155956   -8199.0979   -7671.4434    -989.9023     102002.7      46.7237      46.7237      46.7237 
  107000    92.060108   -8199.1327     -7648.11     -879.372     102002.7      46.7237      46.7237      46.7237 
  108000     93.97673   -8196.1922   -7633.6976   -788.04055     102002.7      46.7237      46.7237      46.7237 
  109000    89.180241   -8193.9054   -7660.1201   -621.41804     102002.7      46.7237      46.7237      46.7237 
  110000    90.598542   -8188.9199   -7646.6453   -964.94768     102002.7      46.7237      46.7237      46.7237 
  111000    94.767975    -8194.632   -7627.4014   -801.14092     102002.7      46.7237      46.7237      46.7237 
  112000     92.60953   -8201.1296   -7646.8183   -859.07526     102002.7      46.7237      46.7237      46.7237 
  113000    88.867599   -8206.0295   -7674.1154    -766.3796     102002.7      46.7237      46.7237      46.7237 
  114000    90.006374   -8203.3266   -7664.5964   -722.17908     102002.7      46.7237      46.7237      46.7237 
  115000    91.286388   -8199.6809   -7653.2893   -848.36707     102002.7      46.7237      46.7237      46.7237 
  116000    90.141174   -8189.5458   -7650.0089   -763.42988     102002.7      46.7237      46.7237      46.7237 
  117000    86.268234   -8202.9846   -7686.6289   -652.46163     102002.7      46.7237      46.7237      46.7237 
  118000    90.287004   -8214.1212   -7673.7114   -863.12646     102002.7      46.7237      46.7237      46.7237 
  119000     90.02009   -8200.5791   -7661.7668   -726.55564     102002.7      46.7237      46.7237      46.7237 
  120000    90.081248   -8224.7077   -7685.5294   -873.08067     102002.7      46.7237      46.7237      46.7237 
  121000    91.542293   -8192.9268   -7645.0034   -862.21529     102002.7      46.7237      46.7237      46.7237 
  122000    92.436877   -8201.9414   -7648.6636   -669.98961     102002.7      46.7237      46.7237      46.7237 
  123000    87.402887   -8193.9421    -7670.795   -816.99948     102002.7      46.7237      46.7237      46.7237 
  124000    94.087034   -8183.1556   -7620.0008   -699.76188     102002.7      46.7237      46.7237      46.7237 
  125000    92.204547   -8199.7081   -7647.8209    -684.5518     102002.7      46.7237      46.7237      46.7237 
  126000    92.262996   -8209.8919   -7657.6548   -704.36512     102002.7      46.7237      46.7237      46.7237 
  127000    91.111474   -8211.0408   -7665.6961   -705.79569     102002.7      46.7237      46.7237      46.7237 
  128000    88.291166   -8212.9396   -7684.4757   -961.36714     102002.7      46.7237      46.7237      46.7237 
  129000    92.247929   -8203.5607   -7651.4138   -609.36133     102002.7      46.7237      46.7237      46.7237 
  130000     90.08577    -8206.309   -7667.1036   -732.52739     102002.7      46.7237      46.7237      46.7237 
  131000     91.27556   -8200.2913   -7653.9645   -735.76055     102002.7      46.7237      46.7237      46.7237 
  132000    91.183166   -8207.9358    -7662.162   -973.24721     102002.7      46.7237      46.7237      46.7237 
  133000    91.373625   -8218.5635   -7671.6497   -556.29846     102002.7      46.7237      46.7237      46.7237 
  134000    91.119326   -8199.7599   -7654.3682   -872.98728     102002.7      46.7237      46.7237      46.7237 
  135000    89.527001      -8206.5   -7670.6392   -652.98191     102002.7      46.7237      46.7237      46.7237 
  136000    91.861078   -8200.3053   -7650.4739   -935.41937     102002.7      46.7237      46.7237      46.7237 
  137000    92.003777    -8211.518   -7660.8324   -872.28508     102002.7      46.7237      46.7237      46.7237 
  138000    90.893013   -8179.4871     -7635.45   -595.46232     102002.7      46.7237      46.7237      46.7237 
  139000    90.400747   -8176.4356   -7635.3449   -689.37701     102002.7      46.7237      46.7237      46.7237 
  140000    90.907165   -8198.9675   -7654.8457   -665.79463     102002.7      46.7237      46.7237      46.7237 
  141000    91.043289    -8213.198   -7668.2615    -946.2651     102002.7      46.7237      46.7237      46.7237 
  142000    90.953344   -8194.9917   -7650.5935   -774.32798     102002.7      46.7237      46.7237      46.7237 
  143000    88.951273   -8180.3327   -7647.9179    -797.1004     102002.7      46.7237      46.7237      46.7237 
  144000    91.489598   -8198.2348   -7650.6269   -750.85996     102002.7      46.7237      46.7237      46.7237 
  145000    91.658601   -8190.6299   -7642.0104   -1038.2642     102002.7      46.7237      46.7237      46.7237 
  146000    91.033868   -8202.2754   -7657.3952   -887.25523     102002.7      46.7237      46.7237      46.7237 
  147000    91.713063   -8199.4831   -7650.5376    -682.7976     102002.7      46.7237      46.7237      46.7237 
  148000    91.827604   -8213.3032   -7663.6722   -872.88808     102002.7      46.7237      46.7237      46.7237 
  149000    93.679771   -8193.1095   -7632.3924   -897.99717     102002.7      46.7237      46.7237      46.7237 
  150000    92.737001   -8202.0143   -7646.9401   -863.86925     102002.7      46.7237      46.7237      46.7237 
  151000    90.395012   -8202.5246   -7661.4683   -690.88557     102002.7      46.7237      46.7237      46.7237 
  152000    91.940379   -8223.4198   -7673.1137   -587.20927     102002.7      46.7237      46.7237      46.7237 
  153000    93.993804   -8191.9715   -7629.3747   -745.38588     102002.7      46.7237      46.7237      46.7237 
  154000    89.514582   -8199.8258   -7664.0392   -797.34951     102002.7      46.7237      46.7237      46.7237 
  155000    92.019352   -8204.0938   -7653.3151   -907.30248     102002.7      46.7237      46.7237      46.7237 
  156000    92.464767   -8214.3868    -7660.942   -794.58128     102002.7      46.7237      46.7237      46.7237 
  157000     90.20105   -8207.0791   -7667.1837    -860.5258     102002.7      46.7237      46.7237      46.7237 
  158000    92.101884   -8178.9465   -7627.6737   -659.86486     102002.7      46.7237      46.7237      46.7237 
  159000    90.867525   -8201.9628   -7658.0783   -588.72776     102002.7      46.7237      46.7237      46.7237 
  160000    91.349359   -8191.5949   -7644.8264   -995.04478     102002.7      46.7237      46.7237      46.7237 
  161000    92.028221   -8210.7634   -7659.9315   -807.82299     102002.7      46.7237      46.7237      46.7237 
  162000    91.920716   -8194.2231   -7644.0347   -724.71121     102002.7      46.7237      46.7237      46.7237 
  163000    88.722724   -8190.4801   -7659.4332   -812.35296     102002.7      46.7237      46.7237      46.7237 
  164000    90.402624   -8206.0307   -7664.9288   -819.71519     102002.7      46.7237      46.7237      46.7237 
  165000      92.5545   -8208.8826   -7654.9007    -683.1056     102002.7      46.7237      46.7237      46.7237 
  166000    89.194622   -8203.6763   -7669.8049   -630.14987     102002.7      46.7237      46.7237      46.7237 
  167000    90.265482   -8193.1619   -7652.8809    -927.7128     102002.7      46.7237      46.7237      46.7237 
  168000    93.079503   -8197.3859   -7640.2616   -736.84153     102002.7      46.7237      46.7237      46.7237 
  169000    89.671976   -8183.5258   -7646.7971   -609.90307     102002.7      46.7237      46.7237      46.7237 
  170000     90.96951   -8202.7498   -7658.2548   -1005.3931     102002.7      46.7237      46.7237      46.7237 
  171000     91.69982   -8200.6305   -7651.7643   -631.67452     102002.7      46.7237      46.7237      46.7237 
  172000    88.941406   -8204.7215   -7672.3657   -650.56109     102002.7      46.7237      46.7237      46.7237 
  173000    89.566541   -8193.5038   -7657.4063   -884.80768     102002.7      46.7237      46.7237      46.7237 
  174000    90.971532   -8195.4191    -7650.912   -866.21868     102002.7      46.7237      46.7237      46.7237 
  175000    91.327015    -8183.705   -7637.0702   -645.04267     102002.7      46.7237      46.7237      46.7237 
  176000     90.10027   -8207.7111   -7668.4189   -731.74499     102002.7      46.7237      46.7237      46.7237 
  177000    89.375887   -8185.0996   -7650.1432   -810.52347     102002.7      46.7237      46.7237      46.7237 
  178000    89.274517   -8191.7077   -7657.3581   -1171.6621     102002.7      46.7237      46.7237      46.7237 
  179000    90.521016   -8190.6529   -7648.8423   -904.87102     102002.7      46.7237      46.7237      46.7237 
  180000    90.807209   -8214.9456   -7671.4221   -840.56233     102002.7      46.7237      46.7237      46.7237 
  181000     91.63436   -8197.3605   -7648.8861   -686.37698     102002.7      46.7237      46.7237      46.7237 
  182000    91.341542   -8214.8984   -7668.1767   -839.70534     102002.7      46.7237      46.7237      46.7237 
  183000    92.675063   -8210.4791   -7655.7756    -736.0173     102002.7      46.7237      46.7237      46.7237 
  184000    88.867727   -8184.0771   -7652.1623   -879.37729     102002.7      46.7237      46.7237      46.7237 
  185000    92.165246   -8219.1252   -7667.4732   -940.75621     102002.7      46.7237      46.7237      46.7237 
  186000    91.966898   -8207.6521   -7657.1873   -874.43169     102002.7      46.7237      46.7237      46.7237 
  187000     91.52633   -8194.9238    -7647.096   -679.00872     102002.7      46.7237      46.7237      46.7237 
  188000    89.790967    -8212.998   -7675.5572   -621.78304     102002.7      46.7237      46.7237      46.7237 
  189000    91.922592   -8194.8315   -7644.6319   -707.28074     102002.7      46.7237      46.7237      46.7237 
  190000    86.545807   -8201.5009   -7683.4839   -793.17273     102002.7      46.7237      46.7237      46.7237 
  191000    91.697835   -8208.9552   -7660.1009   -923.36528     102002.7      46.7237      46.7237      46.7237 
  192000    93.062869   -8183.4798   -7626.4551    -756.0716     102002.7      46.7237      46.7237      46.7237 
  193000    91.516646   -8190.5053   -7642.7355   -658.47665     102002.7      46.7237      46.7237      46.7237 
  194000    93.330286   -8203.5993    -7644.974   -860.16782     102002.7      46.7237      46.7237      46.7237 
  195000    91.166136   -8184.4254   -7638.7535   -728.92413     102002.7      46.7237      46.7237      46.7237 
  196000     88.96183    -8192.526   -7660.0479   -568.39547     102002.7      46.7237      46.7237      46.7237 
  197000    91.879597   -8189.3691   -7639.4268   -750.00646     102002.7      46.7237      46.7237      46.7237 
  198000    91.610078   -8198.2042   -7649.8751   -745.45572     102002.7      46.7237      46.7237      46.7237 
  199000    89.637248   -8203.3716   -7666.8509   -774.54396     102002.7      46.7237      46.7237      46.7237 
  200000    91.322773   -8207.6585   -7661.0491   -614.25714     102002.7      46.7237      46.7237      46.7237 
  201000    91.930409   -8196.6994    -7646.453    -764.1221     102002.7      46.7237      46.7237      46.7237 
  202000    91.289575   -8218.6213   -7672.2106   -401.16679     102002.7      46.7237      46.7237      46.7237 
  203000     90.57746   -8191.5831   -7649.4348   -716.83332     102002.7      46.7237      46.7237      46.7237 
  204000    91.045732   -8207.0327   -7662.0815   -801.69151     102002.7      46.7237      46.7237      46.7237 
  205000     91.83675   -8196.4858      -7646.8   -708.66292     102002.7      46.7237      46.7237      46.7237 
  206000    92.694749   -8200.0433   -7645.2219    -804.7571     102002.7      46.7237      46.7237      46.7237 
  207000    91.403679   -8202.5549   -7655.4613   -675.39971     102002.7      46.7237      46.7237      46.7237 
  208000    89.970314   -8162.9425   -7624.4282   -666.68723     102002.7      46.7237      46.7237      46.7237 
  209000    90.305851   -8187.1091   -7646.5865   -766.33934     102002.7      46.7237      46.7237      46.7237 
  210000    93.401814   -8201.5668   -7642.5134   -697.52218     102002.7      46.7237      46.7237      46.7237 
  211000    89.167117   -8198.6607   -7664.9539   -926.90083     102002.7      46.7237      46.7237      46.7237 
  212000     91.42109   -8199.5088    -7652.311    -617.2087     102002.7      46.7237      46.7237      46.7237 
  213000    92.967802   -8192.6791   -7636.2234   -685.74001     102002.7      46.7237      46.7237      46.7237 
  214000    91.277806   -8206.1369   -7659.7967    -584.7861     102002.7      46.7237      46.7237      46.7237 
  215000    92.763056   -8193.0004   -7637.7703   -794.63233     102002.7      46.7237      46.7237      46.7237 
  216000    90.337267   -8194.4033   -7653.6926     -769.004     102002.7      46.7237      46.7237      46.7237 
  217000    90.650748    -8192.023    -7649.436   -474.14194     102002.7      46.7237      46.7237      46.7237 
  218000    94.104148   -8185.8822   -7622.6249   -700.28484     102002.7      46.7237      46.7237      46.7237 
  219000    90.563879    -8197.155   -7655.0879   -912.94205     102002.7      46.7237      46.7237      46.7237 
  220000    91.301876   -8191.0644   -7644.5801   -600.72149     102002.7      46.7237      46.7237      46.7237 
  221000    90.290083   -8203.5058   -7663.0775   -718.88397     102002.7      46.7237      46.7237      46.7237 
  222000    92.333926   -8194.4401   -7641.7785   -850.72656     102002.7      46.7237      46.7237      46.7237 
  223000    93.868654   -8174.7993   -7612.9516   -648.36416     102002.7      46.7237      46.7237      46.7237 
  224000    90.178517   -8203.7805     -7664.02   -754.69782     102002.7      46.7237      46.7237      46.7237 
  225000     92.72638   -8207.1163   -7652.1056    -812.6502     102002.7      46.7237      46.7237      46.7237 
  226000    88.691684   -8209.5899   -7678.7288   -653.56458     102002.7      46.7237      46.7237      46.7237 
  227000    90.725883   -8191.3141   -7648.2774   -588.89811     102002.7      46.7237      46.7237      46.7237 
  228000    94.615705   -8193.9127   -7627.5935   -949.99941     102002.7      46.7237      46.7237      46.7237 
  229000    91.172913   -8204.1431   -7658.4307    -764.0543     102002.7      46.7237      46.7237      46.7237 
  230000    93.994663    -8212.992     -7650.39    -707.5847     102002.7      46.7237      46.7237      46.7237 
  231000    92.684101   -8179.6075   -7624.8499    -886.9238     102002.7      46.7237      46.7237      46.7237 
  232000    89.949826   -8194.8166   -7656.4249   -834.24354     102002.7      46.7237      46.7237      46.7237 
  233000    90.974387   -8185.4518   -7640.9276   -993.55497     102002.7      46.7237      46.7237      46.7237 
  234000    91.673044   -8191.4847   -7642.7788   -829.39199     102002.7      46.7237      46.7237      46.7237 
  235000    90.072024   -8201.6963   -7662.5732   -838.65502     102002.7      46.7237      46.7237      46.7237 
  236000    90.755992   -8194.9927   -7651.7757   -622.21914     102002.7      46.7237      46.7237      46.7237 
  237000    90.750624   -8194.6008    -7651.416   -642.38287     102002.7      46.7237      46.7237      46.7237 
  238000    90.575882   -8176.9369    -7634.798   -737.33084     102002.7      46.7237      46.7237      46.7237 
  239000    92.014598   -8217.9485   -7667.1982   -572.37896     102002.7      46.7237      46.7237      46.7237 
  240000    89.932398   -8173.7021   -7635.4148   -853.34736     102002.7      46.7237      46.7237      46.7237 
  241000    90.233437   -8208.9334   -7668.8442   -726.10673     102002.7      46.7237      46.7237      46.7237 
  242000    90.875596   -8196.7941   -7652.8613    -765.6923     102002.7      46.7237      46.7237      46.7237 
  243000    91.128536   -8195.4424   -7649.9956   -841.15954     102002.7      46.7237      46.7237      46.7237 
  244000    90.111938   -8199.4157   -7660.0537   -794.81327     102002.7      46.7237      46.7237      46.7237 
  245000    92.744567   -8200.4513   -7645.3318   -905.29309     102002.7      46.7237      46.7237      46.7237 
  246000    92.425445   -8206.5279   -7653.3185    -923.5068     102002.7      46.7237      46.7237      46.7237 
  247000    95.791853    -8188.714   -7615.3551   -725.31553     102002.7      46.7237      46.7237      46.7237 
  248000    88.830798   -8214.1165   -7682.4227   -839.81476     102002.7      46.7237      46.7237      46.7237 
  249000      93.2557   -8202.9632   -7644.7843    -383.6254     102002.7      46.7237      46.7237      46.7237 
  250000    91.472208   -8193.1398   -7645.6359    -735.0548     102002.7      46.7237      46.7237      46.7237 
  251000     93.29876   -8175.3794   -7616.9428    -581.5272     102002.7      46.7237      46.7237      46.7237 
  252000    90.367685   -8198.2633   -7657.3705   -565.86483     102002.7      46.7237      46.7237      46.7237 
  253000    89.552816    -8202.456   -7666.4407   -707.16525     102002.7      46.7237      46.7237      46.7237 
  254000     91.01171   -8203.7941   -7659.0465   -613.09677     102002.7      46.7237      46.7237      46.7237 
  255000      91.6169   -8195.8576   -7647.4877   -773.87756     102002.7      46.7237      46.7237      46.7237 
  256000     91.73417   -8188.6426   -7639.5708   -595.59773     102002.7      46.7237      46.7237      46.7237 
  257000    93.457929   -8199.9579   -7640.5686   -806.27437     102002.7      46.7237      46.7237      46.7237 
  258000    90.202549   -8202.2358   -7662.3315   -625.59013     102002.7      46.7237      46.7237      46.7237 
  259000    89.003876    -8191.707   -7658.9773   -806.40042     102002.7      46.7237      46.7237      46.7237 
  260000    92.056718   -8188.4283   -7637.4259   -833.16317     102002.7      46.7237      46.7237      46.7237 
  261000    92.107496   -8217.5125   -7666.2061   -872.09213     102002.7      46.7237      46.7237      46.7237 
  262000    88.844266   -8175.9038   -7644.1294   -752.13271     102002.7      46.7237      46.7237      46.7237 
  263000    92.648161   -8178.2068   -7623.6644    -605.7309     102002.7      46.7237      46.7237      46.7237 
  264000     91.39037    -8177.724     -7630.71   -674.38199     102002.7      46.7237      46.7237      46.7237 
  265000    92.624792   -8197.3287   -7642.9261   -610.20053     102002.7      46.7237      46.7237      46.7237 
  266000    91.855812     -8209.39   -7659.5901   -656.91314     102002.7      46.7237      46.7237      46.7237 
  267000    90.911227   -8195.1657   -7651.0196   -805.16154     102002.7      46.7237      46.7237      46.7237 
  268000    90.650773   -8198.5822   -7655.9951   -514.58971     102002.7      46.7237      46.7237      46.7237 
  269000    91.072421   -8187.2501   -7642.1392   -706.55826     102002.7      46.7237      46.7237      46.7237 
  270000    89.347323   -8206.4402   -7671.6548   -902.31851     102002.7      46.7237      46.7237      46.7237 
  271000    90.947646   -8201.8711    -7657.507    -526.3469     102002.7      46.7237      46.7237      46.7237 
  272000    95.984286   -8194.7054   -7620.1946   -736.92548     102002.7      46.7237      46.7237      46.7237 
  273000    90.547629   -8196.2301   -7654.2603   -692.69964     102002.7      46.7237      46.7237      46.7237 
  274000      89.7462   -8191.1872   -7654.0143    -720.3227     102002.7      46.7237      46.7237      46.7237 
  275000    91.666992   -8200.1522   -7651.4825   -809.62694     102002.7      46.7237      46.7237      46.7237 
  276000    92.881753   -8204.9868   -7649.0462   -787.95195     102002.7      46.7237      46.7237      46.7237 
  277000    89.402885   -8195.8372   -7660.7192   -918.67031     102002.7      46.7237      46.7237      46.7237 
  278000    88.996849   -8193.3362   -7660.6485   -819.09872     102002.7      46.7237      46.7237      46.7237 
  279000    91.067399   -8196.5286   -7651.4477   -407.47778     102002.7      46.7237      46.7237      46.7237 
  280000    93.425832   -8179.2952    -7620.098   -521.55214     102002.7      46.7237      46.7237      46.7237 
  281000    90.241917   -8199.8019   -7659.6619   -638.03565     102002.7      46.7237      46.7237      46.7237 
  282000    88.329278   -8202.4828   -7673.7908   -866.22947     102002.7      46.7237      46.7237      46.7237 
  283000    90.781545    -8190.051   -7646.6811   -562.23281     102002.7      46.7237      46.7237      46.7237 
  284000     96.11309   -8179.9698   -7604.6881   -675.74996     102002.7      46.7237      46.7237      46.7237 
  285000    92.608547   -8211.0971   -7656.7917   -498.65095     102002.7      46.7237      46.7237      46.7237 
  286000    93.614506   -8188.7931   -7628.4666   -428.61464     102002.7      46.7237      46.7237      46.7237 
  287000    88.516083    -8189.059    -7659.249    -738.1204     102002.7      46.7237      46.7237      46.7237 
  288000    88.329844   -8209.9197   -7681.2243    -521.0295     102002.7      46.7237      46.7237      46.7237 
  289000    91.710294   -8199.6065   -7650.6776   -757.64576     102002.7      46.7237      46.7237      46.7237 
  290000    86.777555    -8214.025   -7694.6208   -685.00178     102002.7      46.7237      46.7237      46.7237 
  291000    92.280838   -8204.0838   -7651.7399   -758.35505     102002.7      46.7237      46.7237      46.7237 
  292000    92.199372   -8207.5124   -7655.6562   -430.88658     102002.7      46.7237      46.7237      46.7237 
  293000    93.897913   -8178.0783   -7616.0555   -700.65873     102002.7      46.7237      46.7237      46.7237 
  294000    89.202635   -8185.6925   -7651.7731   -791.45077     102002.7      46.7237      46.7237      46.7237 
  295000    89.039145   -8197.2195   -7664.2787   -775.49968     102002.7      46.7237      46.7237      46.7237 
  296000    91.622921   -8197.6859   -7649.2799   -740.82737     102002.7      46.7237      46.7237      46.7237 
  297000    90.273273   -8214.7224   -7674.3947   -926.64491     102002.7      46.7237      46.7237      46.7237 
  298000    91.097525   -8212.6243   -7667.3631   -637.32069     102002.7      46.7237      46.7237      46.7237 
  299000    91.882618   -8207.7652   -7657.8049   -556.76974     102002.7      46.7237      46.7237      46.7237 
  300000    91.951665   -8183.0674   -7632.6938   -849.13757     102002.7      46.7237      46.7237      46.7237 
  301000    92.845802     -8183.58   -7627.8546   -620.94038     102002.7      46.7237      46.7237      46.7237 
  302000    90.406032   -8198.2093    -7657.087   -583.98303     102002.7      46.7237      46.7237      46.7237 
  303000    90.472511   -8189.5859   -7648.0657    -754.6693     102002.7      46.7237      46.7237      46.7237 
  304000    90.714788   -8176.3132   -7633.3428   -890.43895     102002.7      46.7237      46.7237      46.7237 
  305000    91.076213   -8177.0119   -7631.8783   -930.97294     102002.7      46.7237      46.7237      46.7237 
  306000    92.142934   -8189.5615   -7638.0431   -484.49354     102002.7      46.7237      46.7237      46.7237 
  307000    89.813858   -8183.6472   -7646.0693   -825.45975     102002.7      46.7237      46.7237      46.7237 
  308000    90.072201   -8181.3765   -7642.2524    -846.3492     102002.7      46.7237      46.7237      46.7237 
  309000    92.914417   -8177.2252   -7621.0891   -916.57476     102002.7      46.7237      46.7237      46.7237 
  310000    91.820692   -8195.0491   -7645.4594   -701.69306     102002.7      46.7237      46.7237      46.7237 
  311000     89.94181   -8214.6525   -7676.3088   -923.28723     102002.7      46.7237      46.7237      46.7237 
  312000     94.34969   -8200.8153   -7636.0883   -639.67136     102002.7      46.7237      46.7237      46.7237 
  313000    90.731399   -8201.3217   -7658.2519   -434.91574     102002.7      46.7237      46.7237      46.7237 
  314000    92.307581   -8196.2002   -7643.6963   -446.65206     102002.7      46.7237      46.7237      46.7237 
  315000    92.164017   -8197.6343   -7645.9897   -624.25099     102002.7      46.7237      46.7237      46.7237 
  316000    92.681398   -8206.6962   -7651.9548   -754.37964     102002.7      46.7237      46.7237      46.7237 
  317000    91.936209   -8188.0499   -7637.7688   -671.54983     102002.7      46.7237      46.7237      46.7237 
  318000    93.582719   -8200.7086   -7640.5723   -380.57231     102002.7      46.7237      46.7237      46.7237 
  319000     91.43712   -8211.8112   -7664.5174   -610.93004     102002.7      46.7237      46.7237      46.7237 
  320000    93.771054   -8191.0456   -7629.7821   -658.23397     102002.7      46.7237      46.7237      46.7237 
  321000    91.265591   -8178.8765   -7632.6094   -548.26484     102002.7      46.7237      46.7237      46.7237 
  322000     90.00011   -8204.7005   -7666.0079   -695.36067     102002.7      46.7237      46.7237      46.7237 
  323000    90.385764   -8196.7055   -7655.7045   -488.31446     102002.7      46.7237      46.7237      46.7237 
  324000    91.709645   -8183.9805   -7635.0554    -723.7426     102002.7      46.7237      46.7237      46.7237 
  325000    86.676076   -8185.9666   -7667.1699   -456.50455     102002.7      46.7237      46.7237      46.7237 
  326000    90.598247   -8197.6074   -7655.3346   -604.36461     102002.7      46.7237      46.7237      46.7237 
  327000    92.677744   -8180.8086   -7626.0891   -729.39706     102002.7      46.7237      46.7237      46.7237 
  328000    89.297328    -8187.155   -7652.6689   -732.22768     102002.7      46.7237      46.7237      46.7237 
  329000    87.943032   -8194.6661    -7668.286   -748.67873     102002.7      46.7237      46.7237      46.7237 
  330000    89.136718   -8193.3919   -7659.8671   -369.95478     102002.7      46.7237      46.7237      46.7237 
  331000    92.486328   -8184.7961   -7631.2223   -515.34718     102002.7      46.7237      46.7237      46.7237 
  332000    92.706546   -8186.7492   -7631.8573   -668.27788     102002.7      46.7237      46.7237      46.7237 
  333000    94.980068   -8181.3847   -7612.8846   -562.26263     102002.7      46.7237      46.7237      46.7237 
  334000    94.005807   -8192.7243   -7630.0557   -689.79708     102002.7      46.7237      46.7237      46.7237 
  335000    91.880357   -8193.9309   -7643.9841   -444.28892     102002.7      46.7237      46.7237      46.7237 
  336000    89.867257   -8185.7992   -7647.9017   -576.37249     102002.7      46.7237      46.7237      46.7237 
  337000    91.008435   -8221.8205   -7677.0925   -702.83334     102002.7      46.7237      46.7237      46.7237 
  338000    92.096135   -8198.1531   -7646.9148   -877.02042     102002.7      46.7237      46.7237      46.7237 
  339000    89.951279   -8203.5994    -7665.199   -838.70485     102002.7      46.7237      46.7237      46.7237 
  340000    88.797577   -8207.4645   -7675.9696   -826.59945     102002.7      46.7237      46.7237      46.7237 
  341000    89.542484   -8203.1449   -7667.1913   -791.82111     102002.7      46.7237      46.7237      46.7237 
  342000    94.134666   -8187.6647   -7624.2248   -792.43787     102002.7      46.7237      46.7237      46.7237 
  343000    92.869087   -8195.8382   -7639.9734     -816.098     102002.7      46.7237      46.7237      46.7237 
  344000    91.198066   -8197.6506   -7651.7877   -894.43556     102002.7      46.7237      46.7237      46.7237 
  345000     91.67504   -8199.2811   -7650.5632   -748.91458     102002.7      46.7237      46.7237      46.7237 
  346000    92.386977   -8198.6393   -7645.6602   -524.22255     102002.7      46.7237      46.7237      46.7237 
  347000    88.336631   -8209.9195   -7681.1835   -816.08178     102002.7      46.7237      46.7237      46.7237 
  348000    88.537102   -8183.7482   -7653.8124   -581.82268     102002.7      46.7237      46.7237      46.7237 
  349000    94.068148   -8199.9371   -7636.8953   -574.18947     102002.7      46.7237      46.7237      46.7237 
  350000    89.480163   -8202.3978   -7666.8172   -453.93177     102002.7      46.7237      46.7237      46.7237 
  351000    91.582594   -8188.8688   -7640.7043   -413.81423     102002.7      46.7237      46.7237      46.7237 
  352000    90.777534   -8172.5431   -7629.1972   -757.08418     102002.7      46.7237      46.7237      46.7237 
  353000    93.752781   -8191.1149   -7629.9607   -663.53611     102002.7      46.7237      46.7237      46.7237 
  354000    91.985536   -8211.1898   -7660.6134   -603.38689     102002.7      46.7237      46.7237      46.7237 
  355000    90.326484   -8209.3925   -7668.7463   -808.26688     102002.7      46.7237      46.7237      46.7237 
  356000    90.497649    -8193.632   -7651.9614   -672.43966     102002.7      46.7237      46.7237      46.7237 
  357000    91.219701   -8189.9711   -7643.9786    -594.1775     102002.7      46.7237      46.7237      46.7237 
  358000    89.065132   -8187.8734    -7654.777   -785.30202     102002.7      46.7237      46.7237      46.7237 
  359000    90.072699   -8207.2009   -7668.0738   -598.90004     102002.7      46.7237      46.7237      46.7237 
  360000    91.212352   -8211.8795    -7665.931   -746.18073     102002.7      46.7237      46.7237      46.7237 
  361000    91.262041   -8200.2243   -7653.9784   -566.63084     102002.7      46.7237      46.7237      46.7237 
  362000    91.476653   -8192.3111   -7644.7807   -655.61844     102002.7      46.7237      46.7237      46.7237 
  363000    89.009287    -8192.527   -7659.7649   -677.34577     102002.7      46.7237      46.7237      46.7237 
  364000    91.035552   -8201.2801   -7656.3898   -567.23579     102002.7      46.7237      46.7237      46.7237 
  365000    94.326806   -8182.6588   -7618.0688   -843.64345     102002.7      46.7237      46.7237      46.7237 
  366000    92.187626   -8205.9368   -7654.1509   -991.08274     102002.7      46.7237      46.7237      46.7237 
  367000    90.710702   -8204.8219    -7661.876   -1045.0108     102002.7      46.7237      46.7237      46.7237 
  368000    90.695227    -8180.942   -7638.0887   -940.40925     102002.7      46.7237      46.7237      46.7237 
  369000    89.716744    -8205.541   -7668.5444   -805.04508     102002.7      46.7237      46.7237      46.7237 
  370000    90.056688   -8186.6685   -7647.6372   -930.86811     102002.7      46.7237      46.7237      46.7237 
  371000    92.609922   -8210.6968   -7656.3832   -706.40264     102002.7      46.7237      46.7237      46.7237 
  372000    92.932708   -8183.1655   -7626.9199    -434.2319     102002.7      46.7237      46.7237      46.7237 
  373000    89.971982   -8192.6032   -7654.0789   -921.87164     102002.7      46.7237      46.7237      46.7237 
  374000    89.843166   -8207.7071   -7669.9539   -877.90451     102002.7      46.7237      46.7237      46.7237 
  375000    91.447465   -8199.4685   -7652.1127    -668.5976     102002.7      46.7237      46.7237      46.7237 
  376000    92.971278   -8215.4859   -7659.0095   -872.89255     102002.7      46.7237      46.7237      46.7237 
  377000    87.949148   -8188.7577    -7662.341   -880.77814     102002.7      46.7237      46.7237      46.7237 
  378000    93.040664   -8200.3386   -7643.4468    -1136.286     102002.7      46.7237      46.7237      46.7237 
  379000    92.851688   -8184.4025   -7628.6418   -877.61687     102002.7      46.7237      46.7237      46.7237 
  380000     90.85171   -8204.1209    -7660.331    -610.9644     102002.7      46.7237      46.7237      46.7237 
  381000    88.399749   -8199.5403   -7670.4266   -841.91315     102002.7      46.7237      46.7237      46.7237 
  382000    90.911268   -8202.3428   -7658.1965   -663.23677     102002.7      46.7237      46.7237      46.7237 
  383000    87.097176   -8201.0564   -7679.7392   -710.97812     102002.7      46.7237      46.7237      46.7237 
  384000    90.239666   -8200.8011   -7660.6746   -842.63887     102002.7      46.7237      46.7237      46.7237 
  385000    97.121274   -8195.5089   -7614.1928   -652.02843     102002.7      46.7237      46.7237      46.7237 
  386000    86.928483   -8198.2785    -7677.971   -761.66296     102002.7      46.7237      46.7237      46.7237 
  387000    90.355494    -8189.228   -7648.4082   -957.33819     102002.7      46.7237      46.7237      46.7237 
  388000    89.757009   -8190.3325   -7653.0949   -783.53958     102002.7      46.7237      46.7237      46.7237 
  389000    90.013508    -8200.363   -7661.5902   -804.95796     102002.7      46.7237      46.7237      46.7237 
  390000    93.697764   -8191.7133   -7630.8884   -693.09987     102002.7      46.7237      46.7237      46.7237 
  391000    92.119618   -8205.4765   -7654.0976   -980.66937     102002.7      46.7237      46.7237      46.7237 
  392000    91.358831   -8177.0665   -7630.2413   -570.48965     102002.7      46.7237      46.7237      46.7237 
  393000    93.016058   -8208.1794   -7651.4349   -779.15047     102002.7      46.7237      46.7237      46.7237 
  394000    92.140681   -8221.9982   -7670.4932   -805.78695     102002.7      46.7237      46.7237      46.7237 
  395000    90.434049   -8191.4019   -7650.1119   -826.00197     102002.7      46.7237      46.7237      46.7237 
  396000    89.325745   -8198.4919   -7663.8356   -995.42728     102002.7      46.7237      46.7237      46.7237 
  397000    91.861286   -8189.6977    -7639.865   -911.69797     102002.7      46.7237      46.7237      46.7237 
  398000    92.541536   -8192.9416   -7639.0374   -998.81644     102002.7      46.7237      46.7237      46.7237 
  399000    91.780083   -8185.2267     -7635.88   -818.97455     102002.7      46.7237      46.7237      46.7237 
  400000    87.959722   -8200.2602   -7673.7803   -1006.4942     102002.7      46.7237      46.7237      46.7237 
  401000    89.007793   -8180.0392   -7647.2861   -833.48159     102002.7      46.7237      46.7237      46.7237 
  402000    90.334974   -8193.6736   -7652.9766    -679.3837     102002.7      46.7237      46.7237      46.7237 
  403000    91.530542   -8191.5344   -7643.6814   -847.64055     102002.7      46.7237      46.7237      46.7237 
  404000    88.538926   -8183.8981   -7653.9513   -867.77446     102002.7      46.7237      46.7237      46.7237 
  405000    92.268008   -8183.2046   -7630.9375   -611.46255     102002.7      46.7237      46.7237      46.7237 
  406000    90.882861   -8177.6506   -7633.6743   -785.99892     102002.7      46.7237      46.7237      46.7237 
  407000     90.93909   -8196.8794   -7652.5665   -671.28669     102002.7      46.7237      46.7237      46.7237 
  408000    91.284604   -8181.7018   -7635.3208   -837.49562     102002.7      46.7237      46.7237      46.7237 
  409000    91.327454   -8177.8914    -7631.254   -1051.3434     102002.7      46.7237      46.7237      46.7237 
  410000    91.327475   -8197.5429   -7650.9054   -754.87213     102002.7      46.7237      46.7237      46.7237 
  411000    92.286934   -8190.8098   -7638.4295   -811.93578     102002.7      46.7237      46.7237      46.7237 
  412000    93.305808    -8182.552   -7624.0732   -735.13657     102002.7      46.7237      46.7237      46.7237 
  413000    92.635156   -8180.7031   -7626.2385   -811.27782     102002.7      46.7237      46.7237      46.7237 
  414000    90.949215    -8190.208   -7645.8345   -798.78478     102002.7      46.7237      46.7237      46.7237 
  415000     89.75805   -8185.8754   -7648.6316   -1161.1101     102002.7      46.7237      46.7237      46.7237 
  416000    91.698432   -8174.5537   -7625.6958   -862.12559     102002.7      46.7237      46.7237      46.7237 
  417000    91.092619   -8192.4968    -7647.265   -1003.2351     102002.7      46.7237      46.7237      46.7237 
  418000    92.903173   -8166.7676   -7610.6987   -901.83914     102002.7      46.7237      46.7237      46.7237 
  419000    91.302222   -8173.8105   -7627.3241   -825.28632     102002.7      46.7237      46.7237      46.7237 
  420000    90.553666   -8190.5872   -7648.5813   -859.11571     102002.7      46.7237      46.7237      46.7237 
  421000      93.0401   -8202.9424   -7646.0539   -770.16713     102002.7      46.7237      46.7237      46.7237 
  422000    91.315476   -8185.1094   -7638.5437    -744.5852     102002.7      46.7237      46.7237      46.7237 
  423000     90.18778   -8193.1254   -7653.3094   -736.12055     102002.7      46.7237      46.7237      46.7237 
  424000    88.489062    -8194.103   -7664.4547   -973.02421     102002.7      46.7237      46.7237      46.7237 
  425000    89.155819   -8210.8902   -7677.2511   -1015.5208     102002.7      46.7237      46.7237      46.7237 
  426000    93.251996   -8191.1726   -7633.0159   -845.66967     102002.7      46.7237      46.7237      46.7237 
  427000    91.224323   -8207.2485   -7661.2284   -920.73408     102002.7      46.7237      46.7237      46.7237 
  428000    92.679901   -8181.8408   -7627.1084   -872.68296     102002.7      46.7237      46.7237      46.7237 
  429000    89.407113   -8183.2791   -7648.1358    -727.6446     102002.7      46.7237      46.7237      46.7237 
  430000    90.891446   -8206.6939   -7662.6662   -1108.8447     102002.7      46.7237      46.7237      46.7237 
  431000    93.886768   -8186.0482   -7624.0921   -847.46264     102002.7      46.7237      46.7237      46.7237 
  432000    91.402514   -8198.9909   -7651.9042   -845.99612     102002.7      46.7237      46.7237      46.7237 
  433000    89.253581   -8202.8276   -7668.6033   -1062.2287     102002.7      46.7237      46.7237      46.7237 
  434000    88.941306   -8186.9271   -7654.5719   -684.87358     102002.7      46.7237      46.7237      46.7237 
  435000    89.185926   -8191.2953   -7657.4759   -947.60917     102002.7      46.7237      46.7237      46.7237 
  436000    92.611189   -8185.7669   -7631.4457   -773.40573     102002.7      46.7237      46.7237      46.7237 
  437000    92.370383   -8179.0615   -7626.1816   -649.87451     102002.7      46.7237      46.7237      46.7237 
  438000    90.450952   -8191.9675   -7650.5764   -552.77244     102002.7      46.7237      46.7237      46.7237 
  439000    88.556321   -8206.4003   -7676.3494   -820.02312     102002.7      46.7237      46.7237      46.7237 
  440000     90.26191     -8177.91   -7637.6503   -673.74868     102002.7      46.7237      46.7237      46.7237 
  441000    90.477123   -8183.3324   -7641.7846   -670.65384     102002.7      46.7237      46.7237      46.7237 
  442000    90.210393     -8198.27   -7658.3187   -289.26985     102002.7      46.7237      46.7237      46.7237 
  443000    93.548035   -8174.3525   -7614.4239   -486.53354     102002.7      46.7237      46.7237      46.7237 
  444000    90.498633   -8211.8418   -7670.1653   -345.57609     102002.7      46.7237      46.7237      46.7237 
  445000    92.308149    -8189.901   -7637.3937   -598.70698     102002.7      46.7237      46.7237      46.7237 
  446000     89.77414   -8211.2744   -7673.9342   -786.84322     102002.7      46.7237      46.7237      46.7237 
  447000    90.471247   -8177.4198   -7635.9072   -706.42578     102002.7      46.7237      46.7237      46.7237 
  448000    92.983873   -8183.4988   -7626.9469    -730.4795     102002.7      46.7237      46.7237      46.7237 
  449000    89.968704   -8190.4997   -7651.9951    -646.3777     102002.7      46.7237      46.7237      46.7237 
  450000    87.784791   -8167.7154   -7642.2825   -863.09749     102002.7      46.7237      46.7237      46.7237 
  451000    90.746196   -8171.3314   -7628.1731   -893.25848     102002.7      46.7237      46.7237      46.7237 
  452000    90.270152   -8193.1822   -7652.8732   -742.37175     102002.7      46.7237      46.7237      46.7237 
  453000     89.99508   -8186.8997   -7648.2371   -517.41979     102002.7      46.7237      46.7237      46.7237 
  454000     93.96254    -8185.545   -7623.1354   -737.47349     102002.7      46.7237      46.7237      46.7237 
  455000    92.300801   -8206.3484    -7653.885   -711.41999     102002.7      46.7237      46.7237      46.7237 
  456000      91.5732   -8200.7772   -7652.6689   -869.13755     102002.7      46.7237      46.7237      46.7237 
  457000    88.698404   -8173.0012   -7642.0999    -562.2614     102002.7      46.7237      46.7237      46.7237 
  458000    90.478748   -8181.2379   -7639.6804   -445.53329     102002.7      46.7237      46.7237      46.7237 
  459000    91.851328   -8203.6078   -7653.8348   -683.37919     102002.7      46.7237      46.7237      46.7237 
  460000    91.822449   -8187.6381   -7638.0379   -854.83899     102002.7      46.7237      46.7237      46.7237 
  461000    88.923705   -8194.2976   -7662.0478    -866.0719     102002.7      46.7237      46.7237      46.7237 
  462000    90.444356   -8205.6819   -7664.3302   -1166.0198     102002.7      46.7237      46.7237      46.7237 
  463000     89.45133   -8202.0492   -7666.6412   -669.63231     102002.7      46.7237      46.7237      46.7237 
  464000    91.393261   -8192.7944   -7645.7631   -765.78187     102002.7      46.7237      46.7237      46.7237 
  465000    90.926732   -8212.2768   -7668.0379   -1069.1528     102002.7      46.7237      46.7237      46.7237 
  466000    90.208048    -8187.792   -7647.8547   -743.64684     102002.7      46.7237      46.7237      46.7237 
  467000    91.964629   -8178.4411   -7627.9899   -648.76034     102002.7      46.7237      46.7237      46.7237 
  468000     93.31025   -8192.6983   -7634.1929   -666.68198     102002.7      46.7237      46.7237      46.7237 
  469000    92.292774   -8188.8733    -7636.458   -1020.9871     102002.7      46.7237      46.7237      46.7237 
  470000    90.259575   -8198.0437    -7657.798   -892.58936     102002.7      46.7237      46.7237      46.7237 
  471000    93.940658   -8181.8023   -7619.5236   -658.07219     102002.7      46.7237      46.7237      46.7237 
  472000    91.668751   -8183.8248   -7635.1445   -806.65042     102002.7      46.7237      46.7237      46.7237 
  473000    88.666018   -8194.3942   -7663.6867    -591.4311     102002.7      46.7237      46.7237      46.7237 
  474000    89.924929   -8184.9625   -7646.7198   -648.50216     102002.7      46.7237      46.7237      46.7237 
  475000    89.483061    -8197.073   -7661.4752   -754.63326     102002.7      46.7237      46.7237      46.7237 
  476000    90.570815   -8201.2362   -7659.1276   -797.96916     102002.7      46.7237      46.7237      46.7237 
  477000    92.047716   -8179.6637   -7628.7152   -766.32495     102002.7      46.7237      46.7237      46.7237 
  478000    89.051595   -8185.2483   -7652.2329   -754.51997     102002.7      46.7237      46.7237      46.7237 
  479000    91.393385   -8196.6426   -7649.6105   -983.85897     102002.7      46.7237      46.7237      46.7237 
  480000    89.873705   -8189.0011    -7651.065    -748.7459     102002.7      46.7237      46.7237      46.7237 
  481000    92.888815   -8177.0292   -7621.0463   -682.25594     102002.7      46.7237      46.7237      46.7237 
  482000    88.130564   -8192.2956   -7664.7931     -791.086     102002.7      46.7237      46.7237      46.7237 
  483000    92.613445   -8196.2011   -7641.8664   -730.17252     102002.7      46.7237      46.7237      46.7237 
  484000    91.958049   -8185.6155   -7635.2036   -755.59734     102002.7      46.7237      46.7237      46.7237 
  485000    93.385055   -8170.0407   -7611.0876   -873.83487     102002.7      46.7237      46.7237      46.7237 
  486000    91.901328   -8197.1675   -7647.0951   -897.05423     102002.7      46.7237      46.7237      46.7237 
  487000    90.091595    -8193.704   -7654.4638    -482.4558     102002.7      46.7237      46.7237      46.7237 
  488000    89.857051   -8173.9876   -7636.1512   -652.49101     102002.7      46.7237      46.7237      46.7237 
  489000    91.767002   -8172.4613   -7623.1929    -495.3386     102002.7      46.7237      46.7237      46.7237 
  490000    91.391568   -8172.2045   -7625.1833   -939.71889     102002.7      46.7237      46.7237      46.7237 
  491000    93.891668   -8206.0685    -7644.083   -869.74512     102002.7      46.7237      46.7237      46.7237 
  492000    93.759203   -8181.3516    -7620.159   -861.18381     102002.7      46.7237      46.7237      46.7237 
  493000    92.206111   -8194.8067   -7642.9101    -769.9355     102002.7      46.7237      46.7237      46.7237 
  494000    90.609155   -8195.1564   -7652.8183   -891.49323     102002.7      46.7237      46.7237      46.7237 
  495000    89.632714   -8199.9803   -7663.4867   -739.87813     102002.7      46.7237      46.7237      46.7237 
  496000    90.981088   -8196.9313   -7652.3671   -597.05693     102002.7      46.7237      46.7237      46.7237 
  497000    94.464578   -8190.4904   -7625.0759   -745.70408     102002.7      46.7237      46.7237      46.7237 
  498000    91.485363   -8187.2666    -7639.684   -786.84563     102002.7      46.7237      46.7237      46.7237 
  499000     90.34488   -8177.7666   -7637.0103   -966.26557     102002.7      46.7237      46.7237      46.7237 
  500000    88.670054   -8202.9277   -7672.1961   -925.74038     102002.7      46.7237      46.7237      46.7237 
  500500    90.590527   -8187.9735   -7645.7469   -906.99033     102002.7      46.7237      46.7237      46.7237 
Loop time of 1400.39 on 16 procs for 500000 steps with 2009 atoms

Performance: 30.849 ns/day, 0.778 hours/ns, 357.043 timesteps/s
99.8% CPU use with 16 MPI tasks x no OpenMP threads

MPI task timing breakdown:
Section |  min time  |  avg time  |  max time  |%varavg| %total
---------------------------------------------------------------
Pair    | 549.96     | 764.74     | 997.82     | 552.0 | 54.61
Bond    | 162.96     | 174.4      | 183.27     |  35.8 | 12.45
Neigh   | 6.0426     | 6.075      | 6.1156     |   0.9 |  0.43
Comm    | 202.22     | 440.95     | 655.88     | 745.1 | 31.49
Output  | 0.020721   | 0.021206   | 0.024194   |   0.5 |  0.00
Modify  | 7.6992     | 8.519      | 9.4026     |  18.4 |  0.61
Other   |            | 5.684      |            |       |  0.41

Nlocal:    125.562 ave 145 max 112 min
Histogram: 2 2 3 3 1 1 1 1 1 1
Nghost:    2510.62 ave 2540 max 2481 min
Histogram: 2 1 2 2 2 1 1 2 1 2
Neighs:    11453.6 ave 16335 max 7804 min
Histogram: 3 1 2 2 1 3 1 1 0 2

Total # of neighbors = 183258
Ave neighs/atom = 91.2185
Ave special neighs/atom = 5.7342
Neighbor list builds = 3820
Dangerous builds = 0
Neighbor list info ...
  update every 1 steps, delay 10 steps, check yes
  max neighbors/atom: 2000, page size: 100000
  master list distance cutoff = 16
  ghost atom cutoff = 16
  binsize = 8, bins = 6 6 6
  3 neighbor lists, perpetual/occasional/extra = 3 0 0
  (1) pair buck6d/coul/gauss/dsf, perpetual, skip from (3)
      attributes: half, newton on
      pair build: skip
      stencil: none
      bin: none
  (2) pair lj/cut, perpetual, skip from (3)
      attributes: half, newton on
      pair build: skip
      stencil: none
      bin: none
  (3) neighbor class addition, perpetual
      attributes: half, newton on
      pair build: half/bin/newton
      stencil: half/bin/3d/newton
      bin: standard
Setting up Verlet run ...
  Unit style    : real
  Current step  : 500500
  Time step     : 1
WARNING: Inconsistent image flags (../domain.cpp:786)
Per MPI rank memory allocation (min/avg/max) = 22.9 | 23.27 | 23.36 Mbytes
Step Time TotEng KinEng PotEng E_mol E_pair Temp Pxx Pyy Pzz Pxy Pxz Pyz Cella Cellb Cellc CellAlpha CellBeta CellGamma Volume Press 
  500500       500000   -7645.7469    542.22657   -8187.9735    4209.1512   -12397.125    90.590527   -487.79101    -912.1544   -1321.0256      9.70968    32.146751    106.49709      46.7237      46.7237      46.7237           90           90           90     102002.7   -906.99033 
  501000       500500   -7644.1802    542.60449   -8186.7847    4205.5752    -12392.36    90.653667    -692.8381   -948.18715   -500.12222   -110.03798    47.043888    186.73591      46.7237      46.7237      46.7237           90           90           90     102002.7   -713.71582 
  502000       501500   -7684.4321    521.86171   -8206.2938    4192.3462    -12398.64    87.188142   -904.95768   -472.75284   -958.27048    317.83921   -259.72637   -8.4553235      46.7237      46.7237      46.7237           90           90           90     102002.7   -778.66033 
  503000       502500   -7652.8869    545.73482   -8198.6218    4175.4719   -12374.094    91.176654   -527.77166   -438.16874   -514.28301   -198.21746   -152.77654   -194.16612      46.7237      46.7237      46.7237           90           90           90     102002.7   -493.40781 
  504000       503500   -7672.8956    534.65834    -8207.554    4178.3252   -12385.879    89.326093   -504.23806   -916.14984   -925.85719   -166.28932    54.554442   -87.771766      46.7237      46.7237      46.7237           90           90           90     102002.7    -782.0817 
  505000       504500   -7654.8322    547.59464   -8202.4268     4193.649   -12396.076    91.487377   -910.61439   -999.51002    -571.6825   -69.179471   -140.06682   -57.497661      46.7237      46.7237      46.7237           90           90           90     102002.7   -827.26897 
  506000       505500   -7633.7254    544.40719   -8178.1326    4207.5905   -12385.723    90.954846   -610.15076   -805.73015   -871.73595   -57.585814    28.343499    60.329088      46.7237      46.7237      46.7237           90           90           90     102002.7   -762.53895 
  507000       506500   -7668.4316     530.0247   -8198.4563    4213.6006   -12412.057    88.551943   -944.03564    -1273.273   -1193.9452    213.60117    85.222953   -165.17063      46.7237      46.7237      46.7237           90           90           90     102002.7   -1137.0846 
  508000       507500    -7662.864    551.23477   -8214.0988    4181.5951   -12395.694    92.095538   -788.22974   -759.37835   -712.95585    54.891777    192.31174    45.289019      46.7237      46.7237      46.7237           90           90           90     102002.7   -753.52131 
  509000       508500   -7640.5946    548.08243    -8188.677    4199.6971   -12388.374    91.568873   -514.14784    -674.8369    -1039.091    171.88241    114.56296    66.873892      46.7237      46.7237      46.7237           90           90           90     102002.7    -742.6919 
  510000       509500   -7640.7092    543.42005   -8184.1293    4219.1479   -12403.277    90.789923   -714.27938   -1058.6292   -1082.2072    86.449326    78.907877    -188.6112      46.7237      46.7237      46.7237           90           90           90     102002.7   -951.70528 
  511000       510500   -7651.7682    542.00186   -8193.7701    4210.2889   -12404.059    90.552984   -445.84103   -1019.7773   -615.19776    49.844236   -248.21217   -112.99983      46.7237      46.7237      46.7237           90           90           90     102002.7   -693.60538 
  512000       511500   -7632.7496    559.93591   -8192.6856    4200.2184   -12392.904    93.549251   -869.47591   -1192.5964   -1094.5096   -63.195873    23.071286    101.28867      46.7237      46.7237      46.7237           90           90           90     102002.7    -1052.194 
  513000       512500   -7666.6676    530.80144    -8197.469    4206.5056   -12403.975    88.681715   -946.93158    -1029.785   -1087.7085   -67.738078   -81.449329    188.44721      46.7237      46.7237      46.7237           90           90           90     102002.7    -1021.475 
  514000       513500   -7669.4556     540.7623   -8210.2179    4195.0303   -12405.248    90.345889   -558.48961   -805.56797   -652.19319   -232.51915    146.01508   -60.748535      46.7237      46.7237      46.7237           90           90           90     102002.7   -672.08359 
  515000       514500   -7660.8536    547.71773   -8208.5713    4179.2345   -12387.806    91.507942   -669.01811   -923.51805   -380.08135    -65.29197    13.505296    64.529985      46.7237      46.7237      46.7237           90           90           90     102002.7   -657.53917 
  516000       515500   -7627.8003    551.78759   -8179.5878    4219.3272   -12398.915    92.187899   -617.85114   -750.30252   -871.91346    100.67089    53.923874     -83.2617      46.7237      46.7237      46.7237           90           90           90     102002.7   -746.68904 
  517000       516500   -7667.1352    533.60007   -8200.7352    4189.0586   -12389.794    89.149286   -935.64356   -583.96549   -1172.9737    48.703113    52.235166   -73.169004      46.7237      46.7237      46.7237           90           90           90     102002.7   -897.52757 
  518000       517500   -7653.0378    555.83534   -8208.8731    4178.6635   -12387.537    92.864162   -794.78964     -621.873   -773.19123    12.060795   -116.10234   -148.86079      46.7237      46.7237      46.7237           90           90           90     102002.7   -729.95129 
  519000       518500   -7632.0993    542.87359   -8174.9729    4222.8704   -12397.843    90.698625    -853.3242   -604.06609   -1205.2782    6.9684109    13.326238   -180.07496      46.7237      46.7237      46.7237           90           90           90     102002.7   -887.55616 
  520000       519500   -7629.1961    546.57899   -8175.7751    4198.4653    -12374.24    91.317692   -472.83655   -615.56094   -1242.8043    37.474826    21.874188   -28.162387      46.7237      46.7237      46.7237           90           90           90     102002.7   -777.06728 
  521000       520500   -7658.3575    551.02813   -8209.3857     4175.108   -12384.494    92.061015   -322.96134   -735.29736   -637.42409   -57.740413    72.516417    230.33503      46.7237      46.7237      46.7237           90           90           90     102002.7    -565.2276 
  522000       521500   -7647.4707    558.09133    -8205.562    4190.8969   -12396.459    93.241074   -549.66275   -390.65825   -645.01773   -8.8771087   0.83182924    -122.9355      46.7237      46.7237      46.7237           90           90           90     102002.7   -528.44624 
  523000       522500   -7679.5113    527.59073    -8207.102    4172.4179    -12379.52    88.145297   -625.06767   -667.22883   -472.03176   -35.518228    70.303332   -18.949634      46.7237      46.7237      46.7237           90           90           90     102002.7   -588.10942 
  524000       523500   -7634.5037    553.78413   -8188.2878    4209.9136   -12398.201    92.521464   -444.71877   -627.44984   -780.40742   -210.74226   -186.18158    84.749561      46.7237      46.7237      46.7237           90           90           90     102002.7   -617.52534 
  525000       524500   -7658.4383    547.26145   -8205.6998    4201.1015   -12406.801     91.43171   -641.28251   -677.96051   -488.69822   -108.86237    68.577186    91.994473      46.7237      46.7237      46.7237           90           90           90     102002.7   -602.64708 
  526000       525500   -7660.0769    543.90967   -8203.9865    4182.3324   -12386.319    90.871724   -936.36733   -353.98453   -976.42318     222.6629   -3.8734037   -45.308497      46.7237      46.7237      46.7237           90           90           90     102002.7   -755.59168 
  527000       526500   -7635.5404    549.95593   -8185.4963    4213.2471   -12398.743    91.881881   -338.80141   -507.39824   -615.16513   -157.47605   -126.43334    78.268349      46.7237      46.7237      46.7237           90           90           90     102002.7   -487.12159 
  528000       527500   -7655.0205    539.47748    -8194.498    4187.3871   -12381.885    90.131232   -504.10884   -867.08822   -576.08648    47.728976    50.608949   -105.50512      46.7237      46.7237      46.7237           90           90           90     102002.7   -649.09451 
  529000       528500   -7658.6158    544.65423     -8203.27    4185.5522   -12388.822    90.996118   -1046.2943   -438.85793   -527.46104   -95.524614    73.830903    191.34385      46.7237      46.7237      46.7237           90           90           90     102002.7    -670.8711 
  530000       529500   -7649.3195    550.46206   -8199.7815    4201.6915   -12401.473    91.966442   -664.10666    -927.0797   -460.95673   -186.64615    150.47581     419.7612      46.7237      46.7237      46.7237           90           90           90     102002.7    -684.0477 
  531000       530500   -7655.5127    551.28468   -8206.7974     4185.445   -12392.242    92.103877   -850.27201   -817.31403   -1065.9131     42.76769    134.94067   -95.246886      46.7237      46.7237      46.7237           90           90           90     102002.7   -911.16638 
  532000       531500   -7646.2631    545.90416   -8192.1672    4193.1854   -12385.353    91.204947   -858.57594   -842.87884   -748.93369    -52.28204    135.59069   -48.351798      46.7237      46.7237      46.7237           90           90           90     102002.7   -816.79615 
  533000       532500   -7628.6926    562.19182   -8190.8844    4191.2483   -12382.133    93.926148   -370.59657   -769.74295   -797.97934   -82.244015   -221.36118    137.50863      46.7237      46.7237      46.7237           90           90           90     102002.7   -646.10629 
  534000       533500   -7652.6493      551.081   -8203.7303    4190.3158   -12394.046    92.069848   -211.65175    -767.2513    -637.7614   -29.471805   -33.924808    131.75776      46.7237      46.7237      46.7237           90           90           90     102002.7   -538.88815 
  535000       534500   -7668.1417    534.85396   -8202.9956    4190.1905   -12393.186    89.358775   -631.53092   -953.15307   -731.90131   -36.404453   -71.321158    8.7075805      46.7237      46.7237      46.7237           90           90           90     102002.7    -772.1951 
  536000       535500   -7679.2686    538.03083   -8217.2994    4152.6398   -12369.939    89.889538   -745.49938   -694.07445   -847.70573    68.760573   -115.08074    -64.82736      46.7237      46.7237      46.7237           90           90           90     102002.7   -762.42652 
  537000       536500   -7655.8884    539.95541   -8195.8438    4200.2609   -12396.105    90.211081   -884.17546   -615.47497   -861.42999     -138.425   -200.73612    82.479236      46.7237      46.7237      46.7237           90           90           90     102002.7   -787.02681 
  538000       537500   -7646.2686    553.83557   -8200.1042    4196.0675   -12396.172    92.530058   -1032.2107   -884.83376   -958.51277    -199.8286   -4.8717443    111.75576      46.7237      46.7237      46.7237           90           90           90     102002.7   -958.51907 
  539000       538500   -7657.9745    554.45133   -8212.4258     4193.598   -12406.024    92.632933   -768.56233   -962.20919   -775.97205    76.517051   -99.208256    49.798913      46.7237      46.7237      46.7237           90           90           90     102002.7   -835.58119 
  540000       539500   -7614.8511    553.57086    -8168.422    4205.6269   -12374.049    92.485832   -795.02883   -532.50374   -793.06766   -62.427937    108.98463    82.863722      46.7237      46.7237      46.7237           90           90           90     102002.7   -706.86674 
  541000       540500    -7645.566    545.86146   -8191.4275    4195.9871   -12387.415    91.197813   -1039.8837   -689.59592   -563.56398    123.24672   -185.77159     -173.197      46.7237      46.7237      46.7237           90           90           90     102002.7   -764.34785 
  542000       541500   -7628.2856    552.37717   -8180.6627    4189.3716   -12370.034    92.286401   -646.11069   -868.46459   -995.41891   -129.08422     79.48551   -212.38851      46.7237      46.7237      46.7237           90           90           90     102002.7   -836.66473 
  543000       542500   -7652.2324    531.88189   -8184.1143     4204.489   -12388.603    88.862226   -870.98763   -401.68609   -974.73057     74.95782   -62.975301   -241.77607      46.7237      46.7237      46.7237           90           90           90     102002.7   -749.13476 
  544000       543500   -7654.7467    537.09218   -8191.8388    4188.9017   -12380.741    89.732718   -893.15079   -727.81068   -940.17608   -38.882393   -89.391566   -4.0421841      46.7237      46.7237      46.7237           90           90           90     102002.7   -853.71252 
  545000       544500   -7632.1481    554.40346   -8186.5516    4212.2049   -12398.757    92.624936   -1165.8559   -673.95385   -1109.2783   -214.95274   -86.670073   -118.77875      46.7237      46.7237      46.7237           90           90           90     102002.7   -983.02933 
  546000       545500   -7651.7161    541.80238   -8193.5184    4198.6471   -12392.166    90.519657   -1153.8051   -886.27351   -892.06564   -409.72195    74.719286   -61.896833      46.7237      46.7237      46.7237           90           90           90     102002.7   -977.38142 
  547000       546500   -7660.9522     531.2421   -8192.1943    4189.8351   -12382.029    88.755337   -1087.8405   -447.98364   -955.66926   -12.360606   -77.186621     12.48849      46.7237      46.7237      46.7237           90           90           90     102002.7   -830.49779 
  548000       547500   -7680.2672    528.02179    -8208.289    4191.8723   -12400.161    88.217315   -1250.5954   -754.54327   -979.10124    284.45251   -124.85239    75.710198      46.7237      46.7237      46.7237           90           90           90     102002.7   -994.74662 
  549000       548500   -7647.5329    551.68124   -8199.2141    4197.1366   -12396.351    92.170131   -696.42315   -625.66788   -1132.4177   -183.35545   -28.687824    55.884828      46.7237      46.7237      46.7237           90           90           90     102002.7   -818.16958 
  550000       549500   -7638.0879    551.89522   -8189.9831    4207.3582   -12397.341    92.205882   -1295.6444   -824.28984   -926.24612   -87.809455   -32.798322    16.290082      46.7237      46.7237      46.7237           90           90           90     102002.7   -1015.3935 
  551000       550500   -7661.8986    538.29118   -8200.1898    4191.8145   -12392.004    89.933035   -921.12666    -684.3286   -709.17764    81.029579    42.585069    14.495836      46.7237      46.7237      46.7237           90           90           90     102002.7    -771.5443 
  552000       551500   -7640.4509    545.26761   -8185.7185     4212.126   -12397.845    91.098598   -916.89867   -832.82759   -514.36302    195.38958    115.58814    -109.5771      46.7237      46.7237      46.7237           90           90           90     102002.7   -754.69642 
  553000       552500   -7638.3063    543.52528   -8181.8316    4183.8676   -12365.699    90.807505   -1038.0055   -935.26473   -817.78862    52.953455    174.07749   -98.796306      46.7237      46.7237      46.7237           90           90           90     102002.7   -930.35294 
  554000       553500   -7651.7511    540.78645   -8192.5376     4196.455   -12388.993    90.349924   -730.08921   -598.39517   -83.359284   -319.25008   -3.7833136   -13.622212      46.7237      46.7237      46.7237           90           90           90     102002.7   -470.61456 
  555000       554500   -7619.8576    561.83925   -8181.6969    4183.3675   -12365.064    93.867243    -593.9662   -788.44543   -779.26689    182.06702    103.25399    336.03038      46.7237      46.7237      46.7237           90           90           90     102002.7   -720.55951 
[...]
  936000       935500   -7627.3468    566.62461   -8193.9714    4191.4711   -12385.443    94.666741   -286.17047   -644.04612   -419.04863     125.7635    178.88967   -164.49115      46.7237      46.7237      46.7237           90           90           90     102002.7   -449.75508 
  937000       936500   -7634.9067    557.91533    -8192.822    4196.6597   -12389.482    93.211668   -632.71376   -991.95527   -962.83098   -2.1743672    14.435997    106.27755      46.7237      46.7237      46.7237           90           90           90     102002.7       -862.5 
  938000       937500   -7650.5137    545.72219   -8196.2359    4194.8899   -12391.126    91.174545    -1121.959   -504.66481   -940.15055   -77.272518    1.6108436   -24.422222      46.7237      46.7237      46.7237           90           90           90     102002.7   -855.59146 
  939000       938500   -7629.0854     541.7832   -8170.8686    4213.1111    -12383.98    90.516452   -1016.3428   -831.49444   -782.29148    44.535192   -90.097313   -14.588589      46.7237      46.7237      46.7237           90           90           90     102002.7   -876.70958 
  940000       939500    -7655.674    544.01779   -8199.6918    4184.6768   -12384.369    90.889788   -1002.6046   -1029.9855   -1030.3686   -182.33383    49.537844    40.029692      46.7237      46.7237      46.7237           90           90           90     102002.7   -1020.9862 
  941000       940500   -7653.9919    545.13153   -8199.1234    4194.7878   -12393.911    91.075862   -112.17806   -1195.3419   -586.08055    28.005437    -93.18626    202.27377      46.7237      46.7237      46.7237           90           90           90     102002.7   -631.20019 
  942000       941500   -7651.5708     551.0632    -8202.634    4179.7003   -12382.334    92.066875   -984.55024   -1078.8609   -1215.2211    66.745253    69.913831    161.96642      46.7237      46.7237      46.7237           90           90           90     102002.7   -1092.8774 
  943000       942500   -7667.5767    528.24894   -8195.8256    4194.0558   -12389.881    88.255265   -876.40617   -780.62831   -1209.6656   -156.42201   -60.621295    76.174852      46.7237      46.7237      46.7237           90           90           90     102002.7   -955.56669 
  944000       943500   -7651.6086     544.5851   -8196.1937    4182.6627   -12378.856    90.984569   -630.40962   -710.43274   -591.12207    22.302534   -196.46863    -75.61584      46.7237      46.7237      46.7237           90           90           90     102002.7   -643.98814 
  945000       944500   -7647.0261    539.18517   -8186.2113    4195.0755   -12381.287    90.082396   -760.99061   -1191.9916    -560.2306    42.442989   -110.31806   -128.11366      46.7237      46.7237      46.7237           90           90           90     102002.7    -837.7376 
  946000       945500   -7657.0927    537.35713   -8194.4498    4179.4781   -12373.928    89.776983   -687.78094   -716.83846   -744.66584    24.644022   -122.03641   -153.88552      46.7237      46.7237      46.7237           90           90           90     102002.7   -716.42841 
  947000       946500   -7665.7745    543.29102   -8209.0655    4213.2971   -12422.363    90.768366    -517.7684   -1290.9826   -991.09274   -31.635869    116.78846    72.910198      46.7237      46.7237      46.7237           90           90           90     102002.7   -933.28124 
  948000       947500   -7644.4048    543.15906   -8187.5639    4197.3357     -12384.9    90.746319   -551.87662   -639.98419   -916.52739   -266.16986   -23.664194   -136.83185      46.7237      46.7237      46.7237           90           90           90     102002.7   -702.79607 
  949000       948500   -7648.4639     546.4111    -8194.875    4188.8321   -12383.707    91.289642   -748.75826   -745.77861   -636.60597    48.509065   -20.298088    137.26351      46.7237      46.7237      46.7237           90           90           90     102002.7   -710.38095 
  950000       949500   -7659.6198    533.16185   -8192.7817     4196.231   -12389.013    89.076072   -809.88896   -969.99751   -557.20399    28.671427   -220.16518    12.550069      46.7237      46.7237      46.7237           90           90           90     102002.7   -779.03016 
  951000       950500   -7674.7791    536.30863   -8211.0877    4175.5899   -12386.678    89.601808   -904.14412   -656.28638   -552.93008    203.96752   -130.34921    42.011562      46.7237      46.7237      46.7237           90           90           90     102002.7   -704.45353 
  952000       951500   -7655.9753     535.0143   -8190.9896    4213.0309   -12404.021    89.385563   -489.28274   -788.43679    -1043.394      41.2639   -86.097286    27.586429      46.7237      46.7237      46.7237           90           90           90     102002.7    -773.7045 
  953000       952500   -7630.3509    554.60239   -8184.9533    4190.5182   -12375.471    92.658172   -589.73414   -918.09825   -721.94342   -160.20634   -75.731745   -36.977463      46.7237      46.7237      46.7237           90           90           90     102002.7   -743.25861 
  954000       953500   -7626.5136    558.64391   -8185.1575    4206.2945   -12391.452    93.333393   -1136.3161   -634.56922   -565.69257    142.06114   -151.76264    209.53743      46.7237      46.7237      46.7237           90           90           90     102002.7    -778.8593 
  955000       954500   -7647.6521    545.57204   -8193.2242    4187.9864   -12381.211     91.14946   -565.80778   -651.36225   -917.80423    14.559274   -17.778617    10.925861      46.7237      46.7237      46.7237           90           90           90     102002.7   -711.65808 
  956000       955500   -7612.2863    550.70906   -8162.9953    4218.6262   -12381.622    92.007708   -735.31164   -670.05014   -584.94888   -215.53198   -151.60197    223.89722      46.7237      46.7237      46.7237           90           90           90     102002.7   -663.43688 
  957000       956500   -7636.0447    546.36258   -8182.4073    4211.9941   -12394.401    91.281535   -723.41106   -541.95608    -414.6188   -120.18587   -59.763606    155.31411      46.7237      46.7237      46.7237           90           90           90     102002.7   -559.99532 
  958000       957500   -7669.5451    549.52321   -8219.0683    4176.9638   -12396.032    91.809587    -613.4658   -712.04817    -494.7302    55.431331   -123.73371   -32.836589      46.7237      46.7237      46.7237           90           90           90     102002.7   -606.74805 
  959000       958500   -7647.3896    544.66003   -8192.0496    4181.0833   -12373.133    90.997088   -812.66697   -871.07146   -879.17375   -84.834675   -17.849932   -129.91727      46.7237      46.7237      46.7237           90           90           90     102002.7   -854.30406 
  960000       959500   -7627.0719    564.62156   -8191.6935    4190.5319   -12382.225    94.332088   -233.31583   -980.07238   -651.03312   -9.9203614    6.6176513   -22.039923      46.7237      46.7237      46.7237           90           90           90     102002.7   -621.47377 
  961000       960500   -7642.1722    551.15918   -8193.3314    4199.7065   -12393.038    92.082909    -735.5452   -1277.9869   -822.83002   -84.440139    3.8528209     134.7545      46.7237      46.7237      46.7237           90           90           90     102002.7   -945.45404 
  962000       961500   -7648.8849    544.53069   -8193.4156    4206.5476   -12399.963    90.975479    -775.5574   -768.99756   -927.91557   -59.437975   -116.14315    -89.19731      46.7237      46.7237      46.7237           90           90           90     102002.7   -824.15684 
  963000       962500   -7631.9291    564.53742   -8196.4665    4205.2914   -12401.758     94.31803   -509.90565   -757.12347   -684.69339    79.765378    325.26417    23.418206      46.7237      46.7237      46.7237           90           90           90     102002.7   -650.57417 
  964000       963500   -7633.0088    554.42657   -8187.4354    4192.6458   -12380.081    92.628797   -483.89956   -506.43417   -809.60315    41.346765    189.20051   -24.113365      46.7237      46.7237      46.7237           90           90           90     102002.7   -599.97896 
  965000       964500   -7664.3073    544.83612   -8209.1435    4187.7132   -12396.857    91.026508   -823.09868   -587.73668   -488.74258   -124.94541   -154.69985   -135.76942      46.7237      46.7237      46.7237           90           90           90     102002.7   -633.19265 
  966000       965500   -7642.7246    540.65267   -8183.3772    4204.3174   -12387.695    90.327573     -988.442    -863.5404   -719.15927   -12.074171   -91.871151   -115.80294      46.7237      46.7237      46.7237           90           90           90     102002.7   -857.04722 
  967000       966500   -7628.6324    555.37158    -8184.004    4214.3466   -12398.351     92.78668   -984.30247    -634.0432   -1007.5611    53.354677   -198.18904   -192.40304      46.7237      46.7237      46.7237           90           90           90     102002.7   -875.30225 
  968000       967500   -7634.3077    538.58986   -8172.8975    4214.8667   -12387.764    89.982936   -1090.0404   -1200.6574   -1461.9151    17.083655   -29.191272     105.2601      46.7237      46.7237      46.7237           90           90           90     102002.7   -1250.8709 
  969000       968500   -7656.0443    554.07035   -8210.1147    4179.6666   -12389.781    92.569283   -735.92166   -889.54691    -970.0598   -213.11042   -15.313141    149.48169      46.7237      46.7237      46.7237           90           90           90     102002.7   -865.17612 
  970000       969500   -7637.8653    558.25591   -8196.1212    4195.8282   -12391.949     93.26857   -836.75774   -659.08326   -1269.8464    87.173974   -53.225248   -241.04277      46.7237      46.7237      46.7237           90           90           90     102002.7   -921.89579 
  971000       970500   -7634.5018    546.91002   -8181.4118    4216.1477   -12397.559    91.372996   -1000.9418   -877.50585   -773.92345     119.5295   -44.341011    83.734563      46.7237      46.7237      46.7237           90           90           90     102002.7    -884.1237 
  972000       971500   -7627.5166    555.20683   -8182.7234    4208.8984   -12391.622    92.759156   -982.07906   -990.93415   -1382.0099    -15.19901    32.678427   -2.8222997      46.7237      46.7237      46.7237           90           90           90     102002.7    -1118.341 
  973000       972500   -7658.2525     547.8963   -8206.1488    4185.5799   -12391.729    91.537776   -1522.4815   -872.99117   -979.88165   -170.83627    52.079985    30.497672      46.7237      46.7237      46.7237           90           90           90     102002.7   -1125.1181 
  974000       973500   -7657.8289    534.86266   -8192.6915    4199.2492   -12391.941    89.360228   -793.96696   -621.84496   -983.99121   -109.32537    148.06424    104.81373      46.7237      46.7237      46.7237           90           90           90     102002.7   -799.93438 
  975000       974500   -7663.8891    550.87522   -8214.7643    4190.3846   -12405.149    92.035468   -1065.2577   -743.15854   -635.89456     55.99285   -15.300182   -125.18882      46.7237      46.7237      46.7237           90           90           90     102002.7   -814.77027 
  976000       975500   -7649.4986    535.26303   -8184.7616    4222.0686    -12406.83    89.427119   -658.51874   -1170.4296   -965.82916    178.40675    64.214522   -239.62965      46.7237      46.7237      46.7237           90           90           90     102002.7   -931.59249 
  977000       976500   -7648.3651    546.76434   -8195.1294    4180.1826   -12375.312    91.348658   -548.53371   -780.84202   -741.18052   -263.80143    95.664562    102.50044      46.7237      46.7237      46.7237           90           90           90     102002.7   -690.18542 
  978000       977500   -7640.6472    547.56989   -8188.2171    4200.8075   -12389.025    91.483243   -907.15458   -1187.2353    62.785962   -150.08471    -9.500854   -50.095317      46.7237      46.7237      46.7237           90           90           90     102002.7   -677.20131 
  979000       978500   -7625.3213    545.34764   -8170.6689    4233.4178   -12404.087    91.111968    -854.6532   -963.00832   -1265.4626    197.89841    55.223262    24.749261      46.7237      46.7237      46.7237           90           90           90     102002.7    -1027.708 
  980000       979500   -7646.5221    542.20767   -8188.7298    4203.0161   -12391.746    90.587369   -621.96116   -775.80097   -1092.4134    201.41802   -11.669544    5.7497558      46.7237      46.7237      46.7237           90           90           90     102002.7    -830.0585 
  981000       980500   -7646.0049    543.96914   -8189.9741    4204.3006   -12394.275     90.88166    -1286.686   -755.60095   -615.92406    85.223159    77.459416    -59.19113      46.7237      46.7237      46.7237           90           90           90     102002.7   -886.07035 
  982000       981500   -7650.9498    544.03851   -8194.9883    4201.4087   -12396.397    90.893249   -686.35129    -1047.586   -555.36623    32.224209    115.05192    -163.1876      46.7237      46.7237      46.7237           90           90           90     102002.7   -763.10118 
  983000       982500   -7676.9325    525.52254    -8202.455    4185.0303   -12387.485    87.799762   -761.13788   -937.90826   -808.71403    68.034827   -48.714697    153.49984      46.7237      46.7237      46.7237           90           90           90     102002.7   -835.92006 
  984000       983500    -7652.621    539.61215   -8192.2331    4194.2457   -12386.479    90.153733   -1052.3409   -943.77246   -693.37918   0.50381838   -135.85077    4.6398951      46.7237      46.7237      46.7237           90           90           90     102002.7   -896.49751 
  985000       984500   -7627.2777     549.3852   -8176.6629    4206.8651   -12383.528    91.786529   -687.80815    -731.4549   -466.13976    349.94066    11.778732   -121.85698      46.7237      46.7237      46.7237           90           90           90     102002.7    -628.4676 
  986000       985500   -7673.6837    538.43692   -8212.1206    4176.1157   -12388.236    89.957385   -865.31973   -351.57762   -558.50836    135.44063    205.62556   -46.996917      46.7237      46.7237      46.7237           90           90           90     102002.7    -591.8019 
  987000       986500   -7646.8363     545.9734   -8192.8097    4183.0068   -12375.817    91.216514   -305.71874    -622.1456   -890.16809    -250.2609    43.082313   -276.71327      46.7237      46.7237      46.7237           90           90           90     102002.7   -606.01081 
  988000       987500   -7653.9951    549.14039   -8203.1355    4176.3417   -12379.477    91.745627   -937.02924   -433.98749   -651.75177   -23.763678    92.107553    -166.0722      46.7237      46.7237      46.7237           90           90           90     102002.7   -674.25617 
  989000       988500    -7657.054    549.73528   -8206.7893    4181.0818   -12387.871    91.845016    -872.3303   -768.48291   -635.77069    11.350949   -41.197817   -162.91845      46.7237      46.7237      46.7237           90           90           90     102002.7    -758.8613 
  990000       989500   -7647.6709    559.82512    -8207.496    4186.2205   -12393.717     93.53074   -700.36677   -360.16294   -649.67036   -207.72718    -111.2216   -150.64912      46.7237      46.7237      46.7237           90           90           90     102002.7   -570.06669 
  991000       990500   -7647.9865    551.27112   -8199.2576    4200.4687   -12399.726    92.101611   -623.72011   -549.63425   -749.99043   -116.80802   -144.16388    73.372202      46.7237      46.7237      46.7237           90           90           90     102002.7   -641.11493 
  992000       991500   -7642.1201    530.01963   -8172.1398    4217.3335   -12389.473    88.551097   -500.99393   -1265.4391   -879.12196   -86.276392    108.79168    93.349693      46.7237      46.7237      46.7237           90           90           90     102002.7   -881.85167 
  993000       992500   -7626.8019     560.7977   -8187.5996    4211.1128   -12398.712    93.693231   -827.04726   -854.52684   -908.97206    97.447545    8.7283051   -11.337389      46.7237      46.7237      46.7237           90           90           90     102002.7   -863.51538 
  994000       993500   -7657.3179    535.48151   -8192.7995     4192.436   -12385.235    89.463621   -554.46758   -918.89535    -1004.977    32.804219     71.37162    25.121184      46.7237      46.7237      46.7237           90           90           90     102002.7   -826.11332 
  995000       994500   -7662.4771    536.44499   -8198.9221    4202.2711   -12401.193     89.62459   -451.48464    -790.1605   -332.57989    90.102068   -1.3653516    45.278267      46.7237      46.7237      46.7237           90           90           90     102002.7   -524.74168 
  996000       995500   -7621.2784    560.17513   -8181.4535    4199.3054   -12380.759    93.589217   -1147.5965   -685.39114   -866.64607    112.49139    134.97741    193.74487      46.7237      46.7237      46.7237           90           90           90     102002.7   -899.87791 
  997000       996500   -7642.1086    551.21883   -8193.3274    4190.4184   -12383.746    92.092876     -828.585   -630.01871   -423.60068   -74.208337    176.12713   -137.94316      46.7237      46.7237      46.7237           90           90           90     102002.7   -627.40146 
  998000       997500   -7643.4207    560.11866   -8203.5393    4190.0181   -12393.557    93.579782    -359.3264   -524.08139   -623.87231   -3.4851699    168.34288    37.981674      46.7237      46.7237      46.7237           90           90           90     102002.7    -502.4267 
  999000       998500   -7637.5909    549.53362   -8187.1246    4182.9119   -12370.037    91.811325    -929.4411   -1145.5942   -1218.2802    3.6541266   -3.2949022     153.5535      46.7237      46.7237      46.7237           90           90           90     102002.7   -1097.7718 
 1000000       999500   -7653.2207    534.73533    -8187.956    4201.0538    -12389.01    89.338955   -851.27085   -708.05573   -556.23109   -18.987474    111.40996   -20.276285      46.7237      46.7237      46.7237           90           90           90     102002.7   -705.18589 
 1000500      1000000   -7655.0946    541.45962   -8196.5543    4188.3028   -12384.857    90.462391   -1296.2861   -690.59864   -804.86047     346.3222   -74.600871    181.58082      46.7237      46.7237      46.7237           90           90           90     102002.7   -930.58172 
Loop time of 1612.49 on 16 procs for 500000 steps with 2009 atoms

Performance: 26.791 ns/day, 0.896 hours/ns, 310.080 timesteps/s
99.8% CPU use with 16 MPI tasks x no OpenMP threads

MPI task timing breakdown:
Section |  min time  |  avg time  |  max time  |%varavg| %total
---------------------------------------------------------------
Pair    | 650.85     | 890.4      | 1188.8     | 604.4 | 55.22
Bond    | 170.28     | 183.66     | 196.75     |  50.2 | 11.39
Neigh   | 6.1967     | 6.2306     | 6.2687     |   0.9 |  0.39
Comm    | 196.94     | 503.4      | 742.64     | 828.0 | 31.22
Output  | 0.10331    | 0.10867    | 0.10909    |   0.4 |  0.01
Modify  | 22.239     | 23.036     | 23.787     |  10.2 |  1.43
Other   |            | 5.653      |            |       |  0.35

Nlocal:    125.562 ave 150 max 73 min
Histogram: 1 0 0 2 0 0 4 2 5 2
Nghost:    2503.56 ave 2561 max 2480 min
Histogram: 3 4 4 2 0 0 2 0 0 1
Neighs:    11451.5 ave 16812 max 4636 min
Histogram: 1 2 0 3 2 1 0 2 2 3

Total # of neighbors = 183224
Ave neighs/atom = 91.2016
Ave special neighs/atom = 5.7342
Neighbor list builds = 3881
Dangerous builds = 0
Total wall time: 0:50:16
