LAMMPS (30 Mar 2018)
Reading data file ...
  orthogonal box = (0 0 0) to (46.7237 46.7237 46.7237)
  2 by 3 by 4 MPI processor grid
  reading atoms ...
  1807 atoms
  scanning bonds ...
  5 = max bonds/atom
  scanning angles ...
  10 = max angles/atom
  scanning dihedrals ...
  32 = max dihedrals/atom
  scanning impropers ...
  3 = max impropers/atom
  reading bonds ...
  2064 bonds
  reading angles ...
  3696 angles
  reading dihedrals ...
  6240 dihedrals
  reading impropers ...
  1008 impropers
Finding 1-2 1-3 1-4 neighbors ...
  special bond factors lj:   0          0          0         
  special bond factors coul: 0          0          0         
  5 = max # of 1-2 neighbors
  8 = max # of 1-3 neighbors
  20 = max # of 1-4 neighbors
  19 = max # of special neighbors
Finding 1-2 1-3 1-4 neighbors ...
  special bond factors lj:   0          0          1         
  special bond factors coul: 1          1          1         
  5 = max # of 1-2 neighbors
  8 = max # of 1-3 neighbors
  19 = max # of special neighbors
WARNING: Using 'neigh_modify every 1 delay 0 check yes' setting during minimization (../min.cpp:168)
Neighbor list info ...
  update every 1 steps, delay 0 steps, check yes
  max neighbors/atom: 2000, page size: 100000
  master list distance cutoff = 16
  ghost atom cutoff = 16
  binsize = 8, bins = 6 6 6
  3 neighbor lists, perpetual/occasional/extra = 3 0 0
  (1) pair buck6d/coul/gauss/dsf, perpetual, skip from (3)
      attributes: half, newton on
      pair build: skip
      stencil: none
      bin: none
  (2) pair lj/cut, perpetual, skip from (3)
      attributes: half, newton on
      pair build: skip
      stencil: none
      bin: none
  (3) neighbor class addition, perpetual
      attributes: half, newton on
      pair build: half/bin/newton
      stencil: half/bin/3d/newton
      bin: standard
Setting up cg style minimization ...
  Unit style    : real
  Current step  : 0
WARNING: Inconsistent image flags (../domain.cpp:786)
Per MPI rank memory allocation (min/avg/max) = 22.87 | 23.28 | 24.42 Mbytes
Step Temp E_pair E_mol TotEng Press 
       0            0   -11743.664    6482.8914   -5260.7722    6180.1571 
     503            0   -11780.997    3724.5702    -8056.427   -527.87152 
Loop time of 1.24193 on 24 procs for 503 steps with 1807 atoms

99.8% CPU use with 24 MPI tasks x no OpenMP threads

Minimization stats:
  Stopping criterion = max force evaluations
  Energy initial, next-to-last, final = 
        -5260.77215907     -8056.41725188     -8056.42704168
  Force two-norm initial, final = 2576.55 4.49745
  Force max component initial, final = 152.13 0.565635
  Final line search alpha, max atom move = 0.00609619 0.00344822
  Iterations, force evaluations = 503 1001

MPI task timing breakdown:
Section |  min time  |  avg time  |  max time  |%varavg| %total
---------------------------------------------------------------
Pair    | 0.40938    | 0.62009    | 0.76709    |  13.0 | 49.93
Bond    | 0.097722   | 0.15678    | 0.20876    |   6.0 | 12.62
Neigh   | 0.0072196  | 0.0085556  | 0.0092664  |   0.7 |  0.69
Comm    | 0.26688    | 0.43509    | 0.66419    |  17.1 | 35.03
Output  | 0          | 0          | 0          |   0.0 |  0.00
Modify  | 0          | 0          | 0          |   0.0 |  0.00
Other   |            | 0.02141    |            |       |  1.72

Nlocal:    75.2917 ave 99 max 52 min
Histogram: 3 2 1 2 3 5 2 3 1 2
Nghost:    2041.88 ave 2224 max 1935 min
Histogram: 10 6 0 0 0 0 0 0 2 6
Neighs:    7639.38 ave 11383 max 3302 min
Histogram: 2 1 0 2 6 2 4 3 3 1

Total # of neighbors = 183345
Ave neighs/atom = 101.464
Ave special neighs/atom = 6.37521
Neighbor list builds = 12
Dangerous builds = 0
Neighbor list info ...
  update every 1 steps, delay 10 steps, check yes
  max neighbors/atom: 2000, page size: 100000
  master list distance cutoff = 16
  ghost atom cutoff = 16
  binsize = 8, bins = 6 6 6
  3 neighbor lists, perpetual/occasional/extra = 3 0 0
  (1) pair buck6d/coul/gauss/dsf, perpetual, skip from (3)
      attributes: half, newton on
      pair build: skip
      stencil: none
      bin: none
  (2) pair lj/cut, perpetual, skip from (3)
      attributes: half, newton on
      pair build: skip
      stencil: none
      bin: none
  (3) neighbor class addition, perpetual
      attributes: half, newton on
      pair build: half/bin/newton
      stencil: half/bin/3d/newton
      bin: standard
Setting up Verlet run ...
  Unit style    : real
  Current step  : 503
  Time step     : 1
WARNING: Inconsistent image flags (../domain.cpp:786)
Per MPI rank memory allocation (min/avg/max) = 22.52 | 22.72 | 23.3 Mbytes
Step Temp PotEng TotEng Press Volume Lx Ly Lz 
     503          110    -8056.427   -7464.2593   -262.49291     102002.7      46.7237      46.7237      46.7237 
    1000    99.176858   -7545.9534   -7012.0504   -700.07169     102002.7      46.7237      46.7237      46.7237 
    2000    112.41905   -7441.6721   -6836.4818    -664.4635     102002.7      46.7237      46.7237      46.7237 
    3000     106.4274    -7426.265   -6853.3298   -930.40257     102002.7      46.7237      46.7237      46.7237 
    4000    107.78057   -7445.8935   -6865.6737   -267.45124     102002.7      46.7237      46.7237      46.7237 
    5000    113.45396   -7448.0259   -6837.2644   -584.44481     102002.7      46.7237      46.7237      46.7237 
    6000    108.79265   -7434.7456   -6849.0775   -753.74412     102002.7      46.7237      46.7237      46.7237 
    7000    111.60178   -7424.7993   -6824.0087   -395.09095     102002.7      46.7237      46.7237      46.7237 
    8000    108.84939   -7427.2313   -6841.2577   -1048.8953     102002.7      46.7237      46.7237      46.7237 
    9000    108.07545   -7452.7141   -6870.9069   -510.07457     102002.7      46.7237      46.7237      46.7237 
   10000    110.23103     -7450.13   -6856.7185   -734.42616     102002.7      46.7237      46.7237      46.7237 
   11000    108.19941   -7447.9307   -6865.4562   -571.64699     102002.7      46.7237      46.7237      46.7237 
   12000    111.73013   -7442.2562   -6840.7746   -465.84797     102002.7      46.7237      46.7237      46.7237 
   13000    110.58478   -7431.5496   -6836.2338    -587.2424     102002.7      46.7237      46.7237      46.7237 
   14000      110.342   -7458.1645   -6864.1557   -511.54993     102002.7      46.7237      46.7237      46.7237 
   15000    106.22608   -7448.6829   -6876.8314   -607.26954     102002.7      46.7237      46.7237      46.7237 
   16000    113.49346   -7451.6815   -6840.7072   -646.45831     102002.7      46.7237      46.7237      46.7237 
   17000    113.70745   -7427.6288   -6815.5026   -301.35782     102002.7      46.7237      46.7237      46.7237 
   18000    111.23253   -7468.2701   -6869.4673    -595.4074     102002.7      46.7237      46.7237      46.7237 
   19000    107.79628   -7434.7056   -6854.4013   -880.24983     102002.7      46.7237      46.7237      46.7237 
   20000    113.61637   -7456.0831   -6844.4472   -971.74781     102002.7      46.7237      46.7237      46.7237 
   21000     109.1359   -7448.0819   -6860.5659   -486.99055     102002.7      46.7237      46.7237      46.7237 
   22000    113.17269   -7454.8049   -6845.5575   -496.38857     102002.7      46.7237      46.7237      46.7237 
   23000     112.6669    -7439.181   -6832.6564   -870.01362     102002.7      46.7237      46.7237      46.7237 
   24000    110.79888   -7459.4648   -6862.9964   -747.45674     102002.7      46.7237      46.7237      46.7237 
   25000    111.58807    -7430.292   -6829.5751   -955.28072     102002.7      46.7237      46.7237      46.7237 
   26000    106.56017   -7439.6115   -6865.9616   -824.83796     102002.7      46.7237      46.7237      46.7237 
   27000    110.72246   -7435.7156   -6839.6586   -870.52181     102002.7      46.7237      46.7237      46.7237 
   28000    107.70477    -7451.626   -6871.8143   -734.83021     102002.7      46.7237      46.7237      46.7237 
   29000    110.95431   -7465.5007   -6868.1957   -506.62225     102002.7      46.7237      46.7237      46.7237 
   30000    111.63932   -7433.2038    -6832.211   -800.76032     102002.7      46.7237      46.7237      46.7237 
   31000    111.36416   -7440.2951   -6840.7837   -376.52164     102002.7      46.7237      46.7237      46.7237 
   32000    111.66874   -7453.7944   -6852.6432   -557.47026     102002.7      46.7237      46.7237      46.7237 
   33000     112.0021   -7432.4922   -6829.5465   -454.43782     102002.7      46.7237      46.7237      46.7237 
   34000    106.51364   -7449.8994   -6876.4999   -830.75283     102002.7      46.7237      46.7237      46.7237 
   35000    108.23788   -7429.3298   -6846.6482   -713.91766     102002.7      46.7237      46.7237      46.7237 
   36000    110.14874   -7448.2729   -6855.3044   -717.23273     102002.7      46.7237      46.7237      46.7237 
   37000    108.16662   -7432.1778   -6849.8797   -749.51192     102002.7      46.7237      46.7237      46.7237 
   38000    110.60248   -7444.3605   -6848.9494   -508.92736     102002.7      46.7237      46.7237      46.7237 
   39000    112.73383    -7442.041   -6835.1561   -463.47793     102002.7      46.7237      46.7237      46.7237 
   40000    107.67915   -7458.4717   -6878.7979   -539.40004     102002.7      46.7237      46.7237      46.7237 
   41000    110.04873   -7446.6637   -6854.2336   -898.46543     102002.7      46.7237      46.7237      46.7237 
   42000    107.05985   -7439.1786   -6862.8387   -726.27429     102002.7      46.7237      46.7237      46.7237 
   43000    110.89997   -7441.8189   -6844.8063   -922.59561     102002.7      46.7237      46.7237      46.7237 
   44000    109.47039   -7455.5158   -6866.1991   -612.11939     102002.7      46.7237      46.7237      46.7237 
   45000    108.35962   -7439.5952   -6856.2582   -664.66627     102002.7      46.7237      46.7237      46.7237 
   46000    116.11297   -7446.4953   -6821.4193   -889.89014     102002.7      46.7237      46.7237      46.7237 
   47000    109.96876   -7446.5379   -6854.5384   -578.07133     102002.7      46.7237      46.7237      46.7237 
   48000     107.9238    -7456.936   -6875.9452   -579.82225     102002.7      46.7237      46.7237      46.7237 
   49000    109.92652   -7414.9982    -6823.226   -752.22482     102002.7      46.7237      46.7237      46.7237 
   50000    111.04445   -7446.9888   -6849.1985   -870.31658     102002.7      46.7237      46.7237      46.7237 
   51000    108.79756   -7445.5574   -6859.8628   -808.07928     102002.7      46.7237      46.7237      46.7237 
   52000    113.63446   -7447.0117   -6835.2784   -719.43076     102002.7      46.7237      46.7237      46.7237 
   53000    110.93807   -7420.5094   -6823.2918   -589.82763     102002.7      46.7237      46.7237      46.7237 
   54000    109.16488   -7444.7102   -6857.0382   -593.14519     102002.7      46.7237      46.7237      46.7237 
   55000     107.2571   -7447.5793   -6870.1775   -573.51431     102002.7      46.7237      46.7237      46.7237 
   56000    110.10779   -7437.4138   -6844.6659    -726.8849     102002.7      46.7237      46.7237      46.7237 
   57000    108.45468   -7434.8318   -6850.9831    -478.4267     102002.7      46.7237      46.7237      46.7237 
   58000    110.48272   -7459.3003   -6864.5339   -702.95996     102002.7      46.7237      46.7237      46.7237 
   59000    113.84525   -7433.8484   -6820.9804   -529.30802     102002.7      46.7237      46.7237      46.7237 
   60000    109.12712    -7431.292   -6843.8232   -677.10722     102002.7      46.7237      46.7237      46.7237 
   61000    111.11901   -7450.1336   -6851.9419   -732.65468     102002.7      46.7237      46.7237      46.7237 
   62000    113.34839   -7431.3246   -6821.1314   -507.71945     102002.7      46.7237      46.7237      46.7237 
   63000    110.82324   -7454.6904   -6858.0909   -358.45477     102002.7      46.7237      46.7237      46.7237 
   64000    107.39106    -7442.617   -6864.4941   -467.81771     102002.7      46.7237      46.7237      46.7237 
   65000    107.59912   -7433.4052   -6854.1622   -745.31116     102002.7      46.7237      46.7237      46.7237 
   66000    114.27074   -7435.8981   -6820.7395   -679.01663     102002.7      46.7237      46.7237      46.7237 
   67000    110.01242   -7439.0304   -6846.7958   -631.38064     102002.7      46.7237      46.7237      46.7237 
   68000    107.10803   -7444.1757   -6867.5764   -781.30092     102002.7      46.7237      46.7237      46.7237 
   69000    115.91417   -7428.0784   -6804.0727   -668.26936     102002.7      46.7237      46.7237      46.7237 
   70000    110.11004   -7454.9653   -6862.2052   -276.69709     102002.7      46.7237      46.7237      46.7237 
   71000     108.9907   -7451.5038   -6864.7694   -528.23716     102002.7      46.7237      46.7237      46.7237 
   72000    110.87671   -7439.8501   -6842.9627   -519.82084     102002.7      46.7237      46.7237      46.7237 
   73000    112.01834   -7437.5053   -6834.4721   -376.70254     102002.7      46.7237      46.7237      46.7237 
   74000    111.13837   -7445.6743   -6847.3783   -715.98054     102002.7      46.7237      46.7237      46.7237 
   75000    111.13534   -7425.5968   -6827.3172   -714.32714     102002.7      46.7237      46.7237      46.7237 
   76000    107.68501   -7442.4793   -6862.7739   -778.66437     102002.7      46.7237      46.7237      46.7237 
   77000    107.64032   -7453.3422   -6873.8774   -818.75765     102002.7      46.7237      46.7237      46.7237 
   78000     112.1496   -7431.9212   -6828.1814   -609.29223     102002.7      46.7237      46.7237      46.7237 
   79000    112.27752    -7460.494   -6856.0656   -616.45369     102002.7      46.7237      46.7237      46.7237 
   80000    110.31846   -7424.4769   -6830.5948   -601.34217     102002.7      46.7237      46.7237      46.7237 
   81000    109.06552   -7452.0466   -6864.9095   -787.64137     102002.7      46.7237      46.7237      46.7237 
   82000    110.32533   -7422.8974   -6828.9783   -814.58498     102002.7      46.7237      46.7237      46.7237 
   83000    110.86474   -7451.2741   -6854.4512   -648.60648     102002.7      46.7237      46.7237      46.7237 
   84000    109.81595   -7434.0862   -6842.9093   -610.28003     102002.7      46.7237      46.7237      46.7237 
   85000    108.07183   -7426.7028   -6844.9151   -613.50896     102002.7      46.7237      46.7237      46.7237 
   86000    109.88559   -7460.0772   -6868.5253   -598.03439     102002.7      46.7237      46.7237      46.7237 
   87000    111.25328   -7443.7805   -6844.8659    -927.6834     102002.7      46.7237      46.7237      46.7237 
   88000    112.12049   -7435.9314   -6832.3484   -722.89496     102002.7      46.7237      46.7237      46.7237 
   89000    109.62418   -7448.6134   -6858.4689   -777.01123     102002.7      46.7237      46.7237      46.7237 
   90000    111.46755   -7447.4853   -6847.4172   -731.23143     102002.7      46.7237      46.7237      46.7237 
   91000    105.06395   -7445.5881   -6879.9928   -469.60858     102002.7      46.7237      46.7237      46.7237 
   92000    110.71746   -7457.5065   -6861.4764   -888.96733     102002.7      46.7237      46.7237      46.7237 
   93000     111.7826    -7448.332   -6846.5679   -670.31791     102002.7      46.7237      46.7237      46.7237 
   94000    113.54644   -7447.9006   -6836.6412   -545.94806     102002.7      46.7237      46.7237      46.7237 
   95000    107.32142   -7425.7353   -6847.9873   -625.59447     102002.7      46.7237      46.7237      46.7237 
   96000    106.33855   -7463.1287   -6890.6718   -637.05681     102002.7      46.7237      46.7237      46.7237 
   97000    109.07999   -7431.8976   -6844.6826   -608.56388     102002.7      46.7237      46.7237      46.7237 
   98000    107.15142   -7453.3915   -6876.5587   -873.46958     102002.7      46.7237      46.7237      46.7237 
   99000    107.78265   -7449.9938   -6869.7629   -886.40423     102002.7      46.7237      46.7237      46.7237 
  100000     108.6434   -7439.2741   -6854.4094   -809.34699     102002.7      46.7237      46.7237      46.7237 
  101000    111.26236   -7448.3631   -6849.3997   -896.78201     102002.7      46.7237      46.7237      46.7237 
  102000    110.53026   -7429.8021   -6834.7798   -499.74818     102002.7      46.7237      46.7237      46.7237 
  103000    107.76559   -7433.9639   -6853.8248   -622.28176     102002.7      46.7237      46.7237      46.7237 
  104000    109.23254   -7433.5525   -6845.5162   -906.19421     102002.7      46.7237      46.7237      46.7237 
  105000    110.71498   -7445.7851   -6849.7684    -678.2675     102002.7      46.7237      46.7237      46.7237 
  106000    111.66463   -7433.6683   -6832.5393   -582.09696     102002.7      46.7237      46.7237      46.7237 
  107000    109.38377   -7450.9371   -6862.0868   -572.13756     102002.7      46.7237      46.7237      46.7237 
  108000    113.48691   -7456.8479   -6845.9089   -556.01797     102002.7      46.7237      46.7237      46.7237 
  109000    111.55577   -7437.3271   -6836.7841   -519.98952     102002.7      46.7237      46.7237      46.7237 
  110000    108.59424   -7452.7198   -6868.1197   -817.20496     102002.7      46.7237      46.7237      46.7237 
  111000    109.95855    -7438.387   -6846.4424   -573.04151     102002.7      46.7237      46.7237      46.7237 
  112000    111.64137   -7442.0354   -6841.0316    -448.1377     102002.7      46.7237      46.7237      46.7237 
  113000    112.12427   -7462.7604    -6859.157   -548.01625     102002.7      46.7237      46.7237      46.7237 
  114000    114.90988   -7436.6435   -6818.0442   -323.18199     102002.7      46.7237      46.7237      46.7237 
  115000    111.55415   -7447.1875   -6846.6533   -560.07727     102002.7      46.7237      46.7237      46.7237 
  116000    107.75579   -7429.5029   -6849.4165   -812.65762     102002.7      46.7237      46.7237      46.7237 
  117000    109.53755   -7451.7536   -6862.0755   -797.25597     102002.7      46.7237      46.7237      46.7237 
  118000    109.62369    -7435.842   -6845.7001   -554.15741     102002.7      46.7237      46.7237      46.7237 
  119000    113.98123   -7445.5403   -6831.9402    -755.9512     102002.7      46.7237      46.7237      46.7237 
  120000    109.30878   -7450.8712   -6862.4246   -929.10659     102002.7      46.7237      46.7237      46.7237 
  121000    112.56233   -7419.7377   -6813.7761   -810.27084     102002.7      46.7237      46.7237      46.7237 
  122000    109.72947   -7447.6011   -6856.8898   -1071.9199     102002.7      46.7237      46.7237      46.7237 
  123000     110.8006   -7432.4568   -6835.9792   -977.40223     102002.7      46.7237      46.7237      46.7237 
  124000     106.0179   -7453.6941   -6882.9634   -878.18397     102002.7      46.7237      46.7237      46.7237 
  125000    110.63867   -7441.9219    -6846.316   -946.15581     102002.7      46.7237      46.7237      46.7237 
  126000    110.27108   -7440.3461   -6846.7191   -636.34792     102002.7      46.7237      46.7237      46.7237 
  127000      108.609   -7452.7351   -6868.0555   -1082.9969     102002.7      46.7237      46.7237      46.7237 
  128000     111.3561   -7443.8706   -6844.4025    -858.4093     102002.7      46.7237      46.7237      46.7237 
  129000    114.30375   -7450.4038   -6835.0676   -593.93833     102002.7      46.7237      46.7237      46.7237 
  130000     107.4664   -7429.9727   -6851.4442   -766.24522     102002.7      46.7237      46.7237      46.7237 
  131000    111.78669   -7445.5029   -6843.7167   -374.45953     102002.7      46.7237      46.7237      46.7237 
  132000    106.77536   -7451.5768   -6876.7684   -721.21971     102002.7      46.7237      46.7237      46.7237 
  133000    110.69252   -7439.3088    -6843.413   -635.48057     102002.7      46.7237      46.7237      46.7237 
  134000    109.76075   -7431.7443   -6840.8645   -646.37685     102002.7      46.7237      46.7237      46.7237 
  135000    110.89139   -7455.6368   -6858.6705   -476.86304     102002.7      46.7237      46.7237      46.7237 
  136000    110.62538   -7465.3031   -6869.7687   -595.92002     102002.7      46.7237      46.7237      46.7237 
  137000    110.66452   -7449.8019   -6854.0568   -724.47183     102002.7      46.7237      46.7237      46.7237 
  138000    110.89981   -7418.4051   -6821.3934   -856.65221     102002.7      46.7237      46.7237      46.7237 
  139000    108.50761   -7441.4243   -6857.2906   -893.57814     102002.7      46.7237      46.7237      46.7237 
  140000    112.01404   -7440.0498   -6837.0398   -951.94991     102002.7      46.7237      46.7237      46.7237 
  141000    108.69293   -7458.0615   -6872.9302    -643.9518     102002.7      46.7237      46.7237      46.7237 
  142000    109.49698   -7424.6964   -6835.2366   -597.27177     102002.7      46.7237      46.7237      46.7237 
  143000    110.57969   -7454.9054    -6859.617    -776.9359     102002.7      46.7237      46.7237      46.7237 
  144000    108.65076   -7447.2968   -6862.3925    -661.8147     102002.7      46.7237      46.7237      46.7237 
  145000    107.41464   -7440.8771   -6862.6273   -867.70565     102002.7      46.7237      46.7237      46.7237 
  146000    107.85306   -7450.8909   -6870.2808   -890.01649     102002.7      46.7237      46.7237      46.7237 
  147000    109.97171   -7448.9028   -6856.8874   -904.79341     102002.7      46.7237      46.7237      46.7237 
  148000    109.03856   -7425.1932   -6838.2013   -785.96188     102002.7      46.7237      46.7237      46.7237 
  149000    111.22196   -7442.2838   -6843.5378   -721.54596     102002.7      46.7237      46.7237      46.7237 
  150000    115.27528   -7435.8305   -6815.2641   -964.46536     102002.7      46.7237      46.7237      46.7237 
  151000    108.66115   -7431.5588   -6846.5986   -429.14388     102002.7      46.7237      46.7237      46.7237 
  152000     109.5735   -7446.9221   -6857.0504   -863.17945     102002.7      46.7237      46.7237      46.7237 
  153000     109.9006   -7454.4562   -6862.8236   -614.53665     102002.7      46.7237      46.7237      46.7237 
  154000    112.23988   -7434.7932   -6830.5674   -939.45756     102002.7      46.7237      46.7237      46.7237 
  155000    111.06969   -7433.8223   -6835.8961   -579.05104     102002.7      46.7237      46.7237      46.7237 
  156000    109.57578   -7443.6584   -6853.7744   -773.46926     102002.7      46.7237      46.7237      46.7237 
  157000     109.0647   -7427.3384   -6840.2058   -833.48889     102002.7      46.7237      46.7237      46.7237 
  158000    108.89419   -7443.2222   -6857.0074   -661.14444     102002.7      46.7237      46.7237      46.7237 
  159000     109.2651   -7430.0027   -6841.7912   -487.72649     102002.7      46.7237      46.7237      46.7237 
  160000    111.81157   -7435.5525   -6833.6325   -571.97759     102002.7      46.7237      46.7237      46.7237 
  161000    109.39405   -7449.1508   -6860.2451   -780.94748     102002.7      46.7237      46.7237      46.7237 
  162000     114.4561   -7454.5968   -6838.4403   -989.86575     102002.7      46.7237      46.7237      46.7237 
  163000    109.87602   -7437.6856   -6846.1853   -848.35552     102002.7      46.7237      46.7237      46.7237 
  164000    110.80995    -7444.777   -6848.2491   -750.69257     102002.7      46.7237      46.7237      46.7237 
  165000    106.72257   -7443.1988   -6868.6746   -780.13221     102002.7      46.7237      46.7237      46.7237 
  166000    112.15773   -7440.6618   -6836.8783    -1066.884     102002.7      46.7237      46.7237      46.7237 
  167000    105.73638   -7462.5837   -6893.3685   -824.02309     102002.7      46.7237      46.7237      46.7237 
  168000    108.66772   -7428.9429   -6843.9473   -533.56062     102002.7      46.7237      46.7237      46.7237 
  169000    106.30533   -7451.9951    -6879.717   -663.41337     102002.7      46.7237      46.7237      46.7237 
  170000    111.04349   -7434.3908   -6836.6056   -493.85595     102002.7      46.7237      46.7237      46.7237 
  171000    107.46154   -7445.9994   -6867.4971   -775.13219     102002.7      46.7237      46.7237      46.7237 
  172000    108.14756   -7438.1031   -6855.9077    -414.6775     102002.7      46.7237      46.7237      46.7237 
  173000    113.18095   -7416.6163   -6807.3245   -683.75821     102002.7      46.7237      46.7237      46.7237 
  174000    107.53779   -7430.1015   -6851.1887   -1130.5892     102002.7      46.7237      46.7237      46.7237 
  175000    106.17316   -7457.0682   -6885.5017   -841.31202     102002.7      46.7237      46.7237      46.7237 
  176000    110.34836   -7446.9384   -6852.8953   -1101.0845     102002.7      46.7237      46.7237      46.7237 
  177000    112.34677    -7431.208   -6826.4068   -672.62819     102002.7      46.7237      46.7237      46.7237 
  178000    111.04518   -7442.0353    -6844.241   -714.35124     102002.7      46.7237      46.7237      46.7237 
  179000    107.37786   -7430.9318   -6852.8799    -875.3478     102002.7      46.7237      46.7237      46.7237 
  180000    108.18976   -7417.4311   -6835.0085   -580.76364     102002.7      46.7237      46.7237      46.7237 
  181000    109.87822   -7452.4883   -6860.9761   -995.87741     102002.7      46.7237      46.7237      46.7237 
  182000    106.38851   -7438.2875   -6865.5616   -495.80986     102002.7      46.7237      46.7237      46.7237 
  183000    110.75618    -7439.718   -6843.4794   -789.62234     102002.7      46.7237      46.7237      46.7237 
  184000    111.30803   -7447.2547   -6848.0454   -696.27583     102002.7      46.7237      46.7237      46.7237 
  185000    110.25267   -7443.8712   -6850.3432   -1009.0524     102002.7      46.7237      46.7237      46.7237 
  186000    109.76316   -7442.9037   -6852.0109   -490.93429     102002.7      46.7237      46.7237      46.7237 
  187000    111.96472   -7443.9639   -6841.2195   -551.58982     102002.7      46.7237      46.7237      46.7237 
  188000    110.35649    -7456.412   -6862.3252   -792.51904     102002.7      46.7237      46.7237      46.7237 
  189000    107.78436   -7429.3143   -6849.0741    -558.5943     102002.7      46.7237      46.7237      46.7237 
  190000     108.8805   -7448.5744   -6862.4333   -467.13405     102002.7      46.7237      46.7237      46.7237 
  191000    109.01116   -7456.3111   -6869.4666   -275.44063     102002.7      46.7237      46.7237      46.7237 
  192000    111.53098   -7457.6813   -6857.2718   -738.36246     102002.7      46.7237      46.7237      46.7237 
  193000    109.57781   -7438.8031   -6848.9082   -606.34496     102002.7      46.7237      46.7237      46.7237 
  194000    107.62597   -7443.5271   -6864.1396   -462.60934     102002.7      46.7237      46.7237      46.7237 
  195000    110.21383    -7435.516   -6842.1972   -798.51305     102002.7      46.7237      46.7237      46.7237 
  196000     109.8088   -7463.6815   -6872.5431   -854.98499     102002.7      46.7237      46.7237      46.7237 
  197000    110.03565   -7446.3799   -6854.0203   -957.15332     102002.7      46.7237      46.7237      46.7237 
  198000    114.78546   -7454.5147   -6836.5851   -884.37474     102002.7      46.7237      46.7237      46.7237 
  199000    108.96742   -7439.5166   -6852.9076   -923.96962     102002.7      46.7237      46.7237      46.7237 
  200000    110.58127   -7442.1915   -6846.8946    -717.9583     102002.7      46.7237      46.7237      46.7237 
  201000    109.60984   -7447.2664    -6857.199   -534.67608     102002.7      46.7237      46.7237      46.7237 
  202000    111.86057   -7420.1836   -6817.9998   -690.24197     102002.7      46.7237      46.7237      46.7237 
  203000    110.47544   -7430.4164   -6835.6892   -621.44454     102002.7      46.7237      46.7237      46.7237 
  204000    110.36446   -7452.4188    -6858.289   -1120.6269     102002.7      46.7237      46.7237      46.7237 
  205000    113.07237   -7447.2574   -6838.5501   -526.05199     102002.7      46.7237      46.7237      46.7237 
  206000    107.36423   -7442.1126   -6864.1341   -434.85252     102002.7      46.7237      46.7237      46.7237 
  207000    114.90769   -7459.5892   -6841.0017   -986.14881     102002.7      46.7237      46.7237      46.7237 
  208000    109.14304   -7453.9473   -6866.3929     -553.065     102002.7      46.7237      46.7237      46.7237 
  209000    112.02351   -7433.8311   -6830.7702   -866.66664     102002.7      46.7237      46.7237      46.7237 
  210000    109.38034   -7447.8221   -6858.9902   -764.97223     102002.7      46.7237      46.7237      46.7237 
  211000    109.54324   -7452.3601   -6862.6513   -747.31743     102002.7      46.7237      46.7237      46.7237 
  212000    109.93517   -7472.0672   -6880.2485   -930.23694     102002.7      46.7237      46.7237      46.7237 
  213000    111.84696   -7448.5959   -6846.4853   -725.83707     102002.7      46.7237      46.7237      46.7237 
  214000    113.04843     -7416.41   -6807.8315   -820.55761     102002.7      46.7237      46.7237      46.7237 
  215000    108.22363   -7433.9135   -6851.3086   -658.66055     102002.7      46.7237      46.7237      46.7237 
  216000    112.13921    -7448.619   -6844.9352    -1015.703     102002.7      46.7237      46.7237      46.7237 
  217000    111.11719   -7418.4673   -6820.2853   -686.71953     102002.7      46.7237      46.7237      46.7237 
  218000    110.36264   -7439.2796   -6845.1597   -525.27771     102002.7      46.7237      46.7237      46.7237 
  219000    113.27935   -7435.6473   -6825.8257   -919.74582     102002.7      46.7237      46.7237      46.7237 
  220000     111.2293   -7424.6503   -6825.8648   -754.17352     102002.7      46.7237      46.7237      46.7237 
  221000    109.09789   -7438.8143   -6851.5029   -808.63334     102002.7      46.7237      46.7237      46.7237 
  222000    108.78652    -7448.264   -6862.6289   -575.36694     102002.7      46.7237      46.7237      46.7237 
  223000    109.93375   -7427.0343   -6835.2232   -617.30176     102002.7      46.7237      46.7237      46.7237 
  224000    116.04089   -7443.5857   -6818.8978   -703.52516     102002.7      46.7237      46.7237      46.7237 
  225000    108.54701    -7440.688   -6856.3422   -850.75582     102002.7      46.7237      46.7237      46.7237 
  226000     109.8934   -7441.5662   -6849.9723   -729.39441     102002.7      46.7237      46.7237      46.7237 
  227000    110.81082    -7439.225   -6842.6923   -731.71475     102002.7      46.7237      46.7237      46.7237 
  228000     107.7106   -7432.6392   -6852.7961   -751.85307     102002.7      46.7237      46.7237      46.7237 
  229000    113.34106   -7447.8665   -6837.7127   -937.55732     102002.7      46.7237      46.7237      46.7237 
  230000    109.54894   -7441.0223   -6851.2828   -761.75783     102002.7      46.7237      46.7237      46.7237 
  231000    109.36244   -7453.5629   -6864.8274   -943.41263     102002.7      46.7237      46.7237      46.7237 
  232000     108.8931    -7443.129   -6856.9201   -1042.8403     102002.7      46.7237      46.7237      46.7237 
  233000    113.73904   -7440.8796   -6828.5833   -726.26296     102002.7      46.7237      46.7237      46.7237 
  234000    106.94109   -7437.8896    -6862.189   -833.64693     102002.7      46.7237      46.7237      46.7237 
  235000    108.99387   -7445.0013     -6858.25   -627.17693     102002.7      46.7237      46.7237      46.7237 
  236000    108.18169   -7429.4934   -6847.1142   -743.05162     102002.7      46.7237      46.7237      46.7237 
  237000    114.96295    -7427.702    -6808.817   -810.27701     102002.7      46.7237      46.7237      46.7237 
  238000    106.56898   -7423.8535   -6850.1561   -909.97312     102002.7      46.7237      46.7237      46.7237 
  239000    110.86446   -7437.3449   -6840.5235   -882.69515     102002.7      46.7237      46.7237      46.7237 
  240000    108.33728   -7455.5451   -6872.3284   -730.23507     102002.7      46.7237      46.7237      46.7237 
  241000    108.24852   -7448.8688   -6866.1299   -390.37355     102002.7      46.7237      46.7237      46.7237 
  242000    109.82298   -7431.1159   -6839.9012   -738.57907     102002.7      46.7237      46.7237      46.7237 
  243000    107.43106   -7469.6032    -6891.265   -492.45258     102002.7      46.7237      46.7237      46.7237 
  244000    107.00875   -7443.8495   -6867.7847   -1001.1239     102002.7      46.7237      46.7237      46.7237 
  245000    108.10444   -7453.3538   -6871.3906   -852.44656     102002.7      46.7237      46.7237      46.7237 
  246000    111.60517   -7445.6718   -6844.8629   -720.91662     102002.7      46.7237      46.7237      46.7237 
  247000     111.2003   -7445.6385   -6847.0091   -1047.2605     102002.7      46.7237      46.7237      46.7237 
  248000    108.13703   -7437.0683   -6854.9295   -619.11861     102002.7      46.7237      46.7237      46.7237 
  249000    113.19306   -7440.4902   -6831.1331   -766.39173     102002.7      46.7237      46.7237      46.7237 
  250000    111.39727    -7449.343   -6849.6532   -679.73814     102002.7      46.7237      46.7237      46.7237 
  251000    109.83758   -7427.6065   -6836.3131    -517.0867     102002.7      46.7237      46.7237      46.7237 
  252000    109.01965   -7447.9326   -6861.0425   -809.82287     102002.7      46.7237      46.7237      46.7237 
  253000    110.02083   -7432.0042   -6839.7243   -681.78505     102002.7      46.7237      46.7237      46.7237 
  254000    110.28006   -7442.8697   -6849.1943   -892.82443     102002.7      46.7237      46.7237      46.7237 
  255000    107.75655   -7454.1502   -6874.0598   -828.88554     102002.7      46.7237      46.7237      46.7237 
  256000    108.14579   -7444.9305   -6862.7447   -954.62214     102002.7      46.7237      46.7237      46.7237 
  257000    107.42953   -7426.5417   -6848.2116    -872.8885     102002.7      46.7237      46.7237      46.7237 
  258000    111.28174   -7453.7177   -6854.6499    -493.4983     102002.7      46.7237      46.7237      46.7237 
  259000    110.93743   -7435.1046   -6837.8904   -913.20716     102002.7      46.7237      46.7237      46.7237 
  260000    112.41337   -7447.2473   -6842.0876   -534.26825     102002.7      46.7237      46.7237      46.7237 
  261000    109.05929   -7416.2673   -6829.1637   -914.56107     102002.7      46.7237      46.7237      46.7237 
  262000    108.42939   -7458.4891   -6874.7765   -531.34517     102002.7      46.7237      46.7237      46.7237 
  263000    108.49012   -7429.0504   -6845.0109   -572.49798     102002.7      46.7237      46.7237      46.7237 
  264000    110.90509   -7438.1316   -6841.0914    -702.7124     102002.7      46.7237      46.7237      46.7237 
  265000    112.29432   -7446.5912   -6842.0724    -252.5605     102002.7      46.7237      46.7237      46.7237 
  266000    109.30442   -7443.7263   -6855.3032   -955.47498     102002.7      46.7237      46.7237      46.7237 
  267000    108.61447   -7451.0354   -6866.3265   -852.15968     102002.7      46.7237      46.7237      46.7237 
  268000    110.98661   -7433.7753   -6836.2963   -916.84934     102002.7      46.7237      46.7237      46.7237 
  269000     110.2008   -7469.1727    -6875.924   -571.94378     102002.7      46.7237      46.7237      46.7237 
  270000    113.08788   -7441.4254   -6832.6345   -1081.2704     102002.7      46.7237      46.7237      46.7237 
  271000    106.77058   -7456.6196   -6881.8369   -745.98883     102002.7      46.7237      46.7237      46.7237 
  272000    108.46327   -7430.3574   -6846.4624   -266.08733     102002.7      46.7237      46.7237      46.7237 
  273000    111.47919   -7414.7347    -6814.604   -752.28799     102002.7      46.7237      46.7237      46.7237 
  274000    112.61434   -7462.8975   -6856.6559   -854.41464     102002.7      46.7237      46.7237      46.7237 
  275000    112.03609   -7465.5537    -6862.425   -833.49573     102002.7      46.7237      46.7237      46.7237 
  276000    109.53353   -7428.0131   -6838.3565   -767.58538     102002.7      46.7237      46.7237      46.7237 
  277000    109.54948   -7442.8444    -6853.102   -440.34562     102002.7      46.7237      46.7237      46.7237 
  278000    105.57297   -7435.3327   -6866.9972   -669.40409     102002.7      46.7237      46.7237      46.7237 
  279000    104.80362   -7430.8045   -6866.6106   -568.05879     102002.7      46.7237      46.7237      46.7237 
  280000    113.18337   -7455.3622   -6846.0573    -760.9098     102002.7      46.7237      46.7237      46.7237 
  281000    106.78502   -7447.7344    -6872.874   -943.22556     102002.7      46.7237      46.7237      46.7237 
  282000    111.07673   -7442.6067   -6844.6426   -892.35816     102002.7      46.7237      46.7237      46.7237 
  283000    112.48397   -7437.8243   -6832.2845   -640.64833     102002.7      46.7237      46.7237      46.7237 
  284000    111.32102    -7437.774   -6838.4948   -851.63242     102002.7      46.7237      46.7237      46.7237 
  285000    109.64889   -7443.6214   -6853.3438   -563.44615     102002.7      46.7237      46.7237      46.7237 
  286000    109.48009   -7434.3851   -6845.0162   -558.89812     102002.7      46.7237      46.7237      46.7237 
  287000    114.89369   -7429.5191   -6811.0069   -835.34569     102002.7      46.7237      46.7237      46.7237 
  288000    108.37309   -7427.9402   -6844.5307   -843.58919     102002.7      46.7237      46.7237      46.7237 
  289000    109.91953   -7456.8473   -6865.1128   -843.77663     102002.7      46.7237      46.7237      46.7237 
  290000    109.13406   -7438.8428   -6851.3367   -722.24193     102002.7      46.7237      46.7237      46.7237 
  291000    109.37212   -7444.0814   -6855.2938   -896.35743     102002.7      46.7237      46.7237      46.7237 
  292000     111.2772   -7432.8237   -6833.7804   -767.62775     102002.7      46.7237      46.7237      46.7237 
  293000    112.04917   -7439.3406   -6836.1415   -615.78206     102002.7      46.7237      46.7237      46.7237 
  294000    109.84401   -7448.9063   -6857.5784   -722.17032     102002.7      46.7237      46.7237      46.7237 
  295000    113.14102   -7449.7069     -6840.63   -682.84562     102002.7      46.7237      46.7237      46.7237 
  296000    108.98857   -7459.6981   -6872.9753   -621.22253     102002.7      46.7237      46.7237      46.7237 
  297000    109.64924   -7451.4321   -6861.1526   -874.92213     102002.7      46.7237      46.7237      46.7237 
  298000    106.90726   -7449.7834   -6874.2649   -640.64486     102002.7      46.7237      46.7237      46.7237 
  299000    107.97616   -7425.4121   -6844.1394   -657.25895     102002.7      46.7237      46.7237      46.7237 
  300000    113.57453   -7444.7001   -6833.2894   -664.45883     102002.7      46.7237      46.7237      46.7237 
  301000    113.52812   -7442.3172   -6831.1565    -603.7945     102002.7      46.7237      46.7237      46.7237 
  302000    109.50659   -7440.0977   -6850.5861   -724.21874     102002.7      46.7237      46.7237      46.7237 
  303000    110.66651   -7435.5637   -6839.8079   -683.15712     102002.7      46.7237      46.7237      46.7237 
  304000    109.60543   -7460.7287   -6870.6851   -677.34726     102002.7      46.7237      46.7237      46.7237 
  305000    113.52595   -7445.1966   -6834.0475   -1014.6233     102002.7      46.7237      46.7237      46.7237 
  306000    110.54301   -7442.1736   -6847.0827   -754.68843     102002.7      46.7237      46.7237      46.7237 
  307000    105.50763   -7453.6029   -6885.6191   -583.69607     102002.7      46.7237      46.7237      46.7237 
  308000    109.83091   -7444.3368   -6853.0794   -673.48855     102002.7      46.7237      46.7237      46.7237 
  309000    108.95527    -7443.742   -6857.1985    -539.4929     102002.7      46.7237      46.7237      46.7237 
  310000    110.90333   -7457.3594   -6860.3288   -770.38343     102002.7      46.7237      46.7237      46.7237 
  311000    109.38817   -7454.1201   -6865.2461   -949.00933     102002.7      46.7237      46.7237      46.7237 
  312000    109.88793   -7419.1551   -6827.5907   -799.10532     102002.7      46.7237      46.7237      46.7237 
  313000    109.20542   -7443.8634   -6855.9731   -593.63686     102002.7      46.7237      46.7237      46.7237 
  314000     110.0145    -7451.636   -6859.3902   -838.21695     102002.7      46.7237      46.7237      46.7237 
  315000     110.0626   -7446.9793   -6854.4745   -337.79658     102002.7      46.7237      46.7237      46.7237 
  316000    108.80468   -7452.0854   -6866.3525   -868.22427     102002.7      46.7237      46.7237      46.7237 
  317000    111.17932   -7428.8784    -6830.362   -741.84787     102002.7      46.7237      46.7237      46.7237 
  318000    108.91501   -7424.4866   -6838.1598   -619.55248     102002.7      46.7237      46.7237      46.7237 
  319000    108.55438    -7444.818   -6860.4326   -401.67759     102002.7      46.7237      46.7237      46.7237 
  320000    108.94065   -7428.7481   -6842.2832   -562.95898     102002.7      46.7237      46.7237      46.7237 
  321000    111.41439   -7456.1998   -6856.4179   -548.93891     102002.7      46.7237      46.7237      46.7237 
  322000    110.20634   -7451.1065    -6857.828   -614.94249     102002.7      46.7237      46.7237      46.7237 
  323000    108.88526   -7440.1976    -6854.031   -923.22608     102002.7      46.7237      46.7237      46.7237 
  324000     112.3361   -7435.8589   -6831.1152   -548.56191     102002.7      46.7237      46.7237      46.7237 
  325000    117.70834   -7443.1615   -6809.4972   -477.08886     102002.7      46.7237      46.7237      46.7237 
  326000    105.80492   -7465.5551    -6895.971   -856.74347     102002.7      46.7237      46.7237      46.7237 
  327000    111.56905   -7449.3937   -6848.7792   -942.62816     102002.7      46.7237      46.7237      46.7237 
  328000     111.2195   -7449.8701   -6851.1374   -624.80387     102002.7      46.7237      46.7237      46.7237 
  329000    108.69603   -7447.9365   -6862.7885   -311.64569     102002.7      46.7237      46.7237      46.7237 
  330000    112.99208   -7429.2628   -6820.9876   -739.14008     102002.7      46.7237      46.7237      46.7237 
  331000    112.16759   -7437.7709   -6833.9343   -692.59357     102002.7      46.7237      46.7237      46.7237 
  332000      107.595   -7441.6409   -6862.4201     -571.218     102002.7      46.7237      46.7237      46.7237 
  333000     106.3573   -7439.4598    -6866.902   -881.83001     102002.7      46.7237      46.7237      46.7237 
  334000    110.15733     -7443.26   -6850.2453   -835.55692     102002.7      46.7237      46.7237      46.7237 
  335000    108.84743    -7430.333   -6844.3699   -795.47097     102002.7      46.7237      46.7237      46.7237 
  336000    108.80819   -7450.3675   -6864.6157   -1010.2934     102002.7      46.7237      46.7237      46.7237 
  337000    110.05102   -7425.9466   -6833.5042   -801.42496     102002.7      46.7237      46.7237      46.7237 
  338000    109.16626   -7451.7977   -6864.1183   -903.98846     102002.7      46.7237      46.7237      46.7237 
  339000     108.3064   -7437.5369   -6854.4863   -730.39588     102002.7      46.7237      46.7237      46.7237 
  340000     111.0443   -7424.4992   -6826.7096   -576.84424     102002.7      46.7237      46.7237      46.7237 
  341000    111.53883   -7438.7822   -6838.3304   -691.12885     102002.7      46.7237      46.7237      46.7237 
  342000    105.34659   -7449.4857   -6882.3689   -642.78647     102002.7      46.7237      46.7237      46.7237 
  343000    109.90348   -7453.9459   -6862.2977   -664.45964     102002.7      46.7237      46.7237      46.7237 
  344000    108.08683   -7418.2932   -6836.4248   -782.10565     102002.7      46.7237      46.7237      46.7237 
  345000    110.25819   -7430.1339   -6836.5762   -716.21473     102002.7      46.7237      46.7237      46.7237 
  346000    110.59691    -7452.032   -6856.6509   -466.96196     102002.7      46.7237      46.7237      46.7237 
  347000    112.90044   -7421.7864   -6814.0047   -612.68101     102002.7      46.7237      46.7237      46.7237 
  348000    111.11196   -7451.1823   -6853.0285   -386.03743     102002.7      46.7237      46.7237      46.7237 
  349000    109.99922   -7466.3649   -6874.2014   -490.92357     102002.7      46.7237      46.7237      46.7237 
  350000    113.24711   -7451.9631   -6842.3151   -490.91291     102002.7      46.7237      46.7237      46.7237 
  351000    114.62393   -7445.9205   -6828.8605   -563.87486     102002.7      46.7237      46.7237      46.7237 
  352000    107.82028   -7443.3723   -6862.9387   -790.36716     102002.7      46.7237      46.7237      46.7237 
  353000    110.94791   -7430.1334   -6832.8628   -640.74436     102002.7      46.7237      46.7237      46.7237 
  354000    107.47916   -7449.8564   -6871.2593   -726.94815     102002.7      46.7237      46.7237      46.7237 
  355000    109.07458     -7450.56   -6863.3742   -698.09633     102002.7      46.7237      46.7237      46.7237 
  356000    110.18868   -7438.5843   -6845.4008   -556.87524     102002.7      46.7237      46.7237      46.7237 
  357000    109.04421   -7454.0596   -6867.0372   -717.84904     102002.7      46.7237      46.7237      46.7237 
  358000    111.62225   -7445.5916   -6844.6907   -660.25095     102002.7      46.7237      46.7237      46.7237 
  359000    107.36958   -7447.0024   -6868.9951   -629.58353     102002.7      46.7237      46.7237      46.7237 
  360000    109.45006   -7447.7011   -6858.4939   -618.96638     102002.7      46.7237      46.7237      46.7237 
  361000     108.8813   -7442.0744   -6855.9291   -681.42075     102002.7      46.7237      46.7237      46.7237 
  362000    109.09484   -7443.2074   -6855.9124   -610.03858     102002.7      46.7237      46.7237      46.7237 
  363000    112.68475   -7430.2698   -6823.6491   -822.02038     102002.7      46.7237      46.7237      46.7237 
  364000     110.9458   -7447.5292   -6850.2699   -681.13398     102002.7      46.7237      46.7237      46.7237 
  365000     108.3146   -7437.1635   -6854.0689   -693.99237     102002.7      46.7237      46.7237      46.7237 
  366000    110.10575   -7425.9995   -6833.2625   -747.24977     102002.7      46.7237      46.7237      46.7237 
  367000    110.10963    -7452.347   -6859.5891   -728.11722     102002.7      46.7237      46.7237      46.7237 
  368000    111.51672   -7407.7065   -6807.3738   -598.47748     102002.7      46.7237      46.7237      46.7237 
  369000    110.27701   -7436.8782   -6843.2193   -619.78271     102002.7      46.7237      46.7237      46.7237 
  370000    108.58941   -7444.3426   -6859.7686   -641.32869     102002.7      46.7237      46.7237      46.7237 
  371000    108.24751   -7453.1702   -6870.4367   -394.58519     102002.7      46.7237      46.7237      46.7237 
  372000    111.75034   -7437.8898   -6836.2994   -743.50645     102002.7      46.7237      46.7237      46.7237 
  373000    106.59324   -7456.4456   -6882.6177   -507.52394     102002.7      46.7237      46.7237      46.7237 
  374000    111.53074   -7442.4646   -6842.0564   -469.10993     102002.7      46.7237      46.7237      46.7237 
  375000    106.24591   -7442.6093   -6870.6511   -525.78424     102002.7      46.7237      46.7237      46.7237 
  376000    106.97809   -7437.9105   -6862.0107   -570.09727     102002.7      46.7237      46.7237      46.7237 
  377000    108.42608    -7433.043   -6849.3483   -1010.6334     102002.7      46.7237      46.7237      46.7237 
  378000    107.21534   -7408.2479    -6831.071   -421.72663     102002.7      46.7237      46.7237      46.7237 
  379000    109.96123   -7427.1829   -6835.2239   -806.19646     102002.7      46.7237      46.7237      46.7237 
  380000    105.55168   -7446.9777   -6878.7568   -604.71475     102002.7      46.7237      46.7237      46.7237 
  381000    109.35024   -7448.2719   -6859.6021   -594.07787     102002.7      46.7237      46.7237      46.7237 
  382000    109.77743   -7423.4035    -6832.434   -672.43199     102002.7      46.7237      46.7237      46.7237 
  383000    111.92821   -7412.3159    -6809.768   -988.83878     102002.7      46.7237      46.7237      46.7237 
  384000    110.98635   -7450.4724   -6852.9948   -887.77593     102002.7      46.7237      46.7237      46.7237 
  385000    106.57954   -7449.8949   -6876.1407   -961.28905     102002.7      46.7237      46.7237      46.7237 
  386000    109.24744   -7429.2493   -6841.1329   -1139.4407     102002.7      46.7237      46.7237      46.7237 
  387000    108.47638   -7461.0277   -6877.0622    -920.9355     102002.7      46.7237      46.7237      46.7237 
  388000    106.23668   -7426.2878   -6854.3793   -912.58011     102002.7      46.7237      46.7237      46.7237 
  389000    115.04193   -7448.9643   -6829.6541   -696.05204     102002.7      46.7237      46.7237      46.7237 
  390000    111.67331    -7441.966   -6840.7903   -606.09576     102002.7      46.7237      46.7237      46.7237 
  391000    106.14697   -7428.5273   -6857.1018   -745.52588     102002.7      46.7237      46.7237      46.7237 
  392000    107.92086   -7426.0268   -6845.0517   -381.50905     102002.7      46.7237      46.7237      46.7237 
  393000    111.49087   -7421.6616    -6821.468   -956.74451     102002.7      46.7237      46.7237      46.7237 
  394000    111.09709   -7456.3067   -6858.2329   -796.27347     102002.7      46.7237      46.7237      46.7237 
  395000    110.14481   -7444.6416   -6851.6943   -378.80486     102002.7      46.7237      46.7237      46.7237 
  396000    113.62084   -7435.1386   -6823.4786   -775.76376     102002.7      46.7237      46.7237      46.7237 
  397000    110.12562    -7445.458    -6852.614   -586.65671     102002.7      46.7237      46.7237      46.7237 
  398000    109.04267   -7448.2946   -6861.2804   -446.20196     102002.7      46.7237      46.7237      46.7237 
  399000    109.68678   -7448.8813   -6858.3998   -685.81531     102002.7      46.7237      46.7237      46.7237 
  400000    109.82372   -7432.6399   -6841.4211   -613.06989     102002.7      46.7237      46.7237      46.7237 
  401000    112.88049    -7445.053   -6837.3787   -543.80642     102002.7      46.7237      46.7237      46.7237 
  402000    111.31615   -7445.3699   -6846.1169   -495.03985     102002.7      46.7237      46.7237      46.7237 
  403000    112.01516   -7445.6848   -6842.6688   -818.59264     102002.7      46.7237      46.7237      46.7237 
  404000    105.78766   -7445.9358   -6876.4446   -558.89684     102002.7      46.7237      46.7237      46.7237 
  405000    109.55503   -7427.6316   -6837.8592   -772.83783     102002.7      46.7237      46.7237      46.7237 
  406000    112.84168   -7445.4028   -6837.9373   -401.88023     102002.7      46.7237      46.7237      46.7237 
  407000    108.10322   -7465.1057    -6883.149   -579.62002     102002.7      46.7237      46.7237      46.7237 
  408000     109.1842   -7442.1286   -6854.3526   -582.07253     102002.7      46.7237      46.7237      46.7237 
  409000    108.15514   -7432.1116   -6849.8754   -723.80381     102002.7      46.7237      46.7237      46.7237 
  410000    110.93237   -7446.8804   -6849.6934   -639.76627     102002.7      46.7237      46.7237      46.7237 
  411000    111.01049   -7449.7757   -6852.1682   -458.42271     102002.7      46.7237      46.7237      46.7237 
  412000    108.76296   -7446.3986   -6860.8903   -651.05302     102002.7      46.7237      46.7237      46.7237 
  413000    108.83589   -7451.8112   -6865.9102   -823.02493     102002.7      46.7237      46.7237      46.7237 
  414000    110.90169   -7435.9281   -6838.9062   -694.34201     102002.7      46.7237      46.7237      46.7237 
  415000    111.64886   -7435.5233   -6834.4792   -785.64385     102002.7      46.7237      46.7237      46.7237 
  416000    112.98391   -7434.8332   -6826.6021   -955.02668     102002.7      46.7237      46.7237      46.7237 
  417000    109.17348   -7455.2838   -6867.5655   -861.72171     102002.7      46.7237      46.7237      46.7237 
  418000    111.17364   -7437.3785   -6838.8927    -865.1045     102002.7      46.7237      46.7237      46.7237 
  419000    108.11519   -7445.6037   -6863.5826    -1015.717     102002.7      46.7237      46.7237      46.7237 
  420000    111.89671    -7437.621   -6835.2427   -863.41901     102002.7      46.7237      46.7237      46.7237 
  421000    108.08858   -7432.8816   -6851.0036   -677.93362     102002.7      46.7237      46.7237      46.7237 
  422000    108.18094   -7463.4866   -6881.1115   -853.14232     102002.7      46.7237      46.7237      46.7237 
  423000    111.44243   -7445.9608    -6846.028   -685.94462     102002.7      46.7237      46.7237      46.7237 
  424000    109.22178   -7434.8506   -6846.8723   -436.56861     102002.7      46.7237      46.7237      46.7237 
  425000    108.47164   -7431.7768   -6847.8367   -186.72552     102002.7      46.7237      46.7237      46.7237 
  426000    109.74177   -7443.9698   -6853.1922   -565.51717     102002.7      46.7237      46.7237      46.7237 
  427000    113.02919   -7440.6874   -6832.2125   -581.02602     102002.7      46.7237      46.7237      46.7237 
  428000    108.26302   -7433.1992   -6850.3823   -320.43933     102002.7      46.7237      46.7237      46.7237 
  429000    107.06108   -7455.5127   -6879.1662   -349.91946     102002.7      46.7237      46.7237      46.7237 
  430000    110.04892   -7435.3359   -6842.9049    -395.3165     102002.7      46.7237      46.7237      46.7237 
  431000    107.14801   -7446.3129   -6869.4984   -413.14453     102002.7      46.7237      46.7237      46.7237 
  432000    105.82718   -7413.7704   -6844.0664   -385.96266     102002.7      46.7237      46.7237      46.7237 
  433000    110.62417   -7455.6292   -6860.1014   -678.42188     102002.7      46.7237      46.7237      46.7237 
  434000    109.20501   -7453.7431   -6865.8551     -574.349     102002.7      46.7237      46.7237      46.7237 
  435000     112.5284   -7446.6105   -6840.8315   -706.03303     102002.7      46.7237      46.7237      46.7237 
  436000    112.08367   -7462.0287   -6858.6439   -653.22636     102002.7      46.7237      46.7237      46.7237 
  437000    110.55303   -7426.7722   -6831.6273   -834.79269     102002.7      46.7237      46.7237      46.7237 
  438000    107.65863   -7456.6302   -6877.0668   -621.82909     102002.7      46.7237      46.7237      46.7237 
  439000     112.4624   -7439.8534   -6834.4297   -732.57041     102002.7      46.7237      46.7237      46.7237 
  440000    112.90412   -7462.7078   -6854.9062   -577.32357     102002.7      46.7237      46.7237      46.7237 
  441000    110.13697   -7453.9323   -6861.0272   -406.04926     102002.7      46.7237      46.7237      46.7237 
  442000    110.94931   -7437.1578   -6839.8797   -650.78485     102002.7      46.7237      46.7237      46.7237 
  443000    107.49583      -7435.6   -6856.9131   -849.38352     102002.7      46.7237      46.7237      46.7237 
  444000    111.58246   -7445.8917   -6845.2051   -576.41604     102002.7      46.7237      46.7237      46.7237 
  445000    107.08192   -7433.9628   -6857.5041   -890.01735     102002.7      46.7237      46.7237      46.7237 
  446000    108.42855   -7430.4154   -6846.7073   -897.99466     102002.7      46.7237      46.7237      46.7237 
  447000    111.47027   -7421.2453   -6821.1626   -888.70886     102002.7      46.7237      46.7237      46.7237 
  448000    109.49235    -7455.565   -6866.1301   -589.56464     102002.7      46.7237      46.7237      46.7237 
  449000    111.95223   -7445.9203   -6843.2431   -725.91617     102002.7      46.7237      46.7237      46.7237 
  450000    112.08308   -7458.5985   -6855.2168   -747.84249     102002.7      46.7237      46.7237      46.7237 
  451000    109.25885   -7449.3265   -6861.1486   -920.07097     102002.7      46.7237      46.7237      46.7237 
  452000     107.6887   -7431.1368   -6851.4116   -420.53102     102002.7      46.7237      46.7237      46.7237 
  453000    110.57176   -7455.5018    -6860.256   -920.78773     102002.7      46.7237      46.7237      46.7237 
  454000    113.52247   -7426.2997   -6815.1693   -614.79568     102002.7      46.7237      46.7237      46.7237 
  455000    110.96658   -7438.8957   -6841.5245   -845.08145     102002.7      46.7237      46.7237      46.7237 
  456000    112.14224   -7440.9006   -6837.2005   -713.21105     102002.7      46.7237      46.7237      46.7237 
  457000    110.79387   -7428.6749   -6832.2335   -670.71659     102002.7      46.7237      46.7237      46.7237 
  458000    110.39415   -7438.3712   -6844.0816   -637.18992     102002.7      46.7237      46.7237      46.7237 
  459000    110.57125   -7440.3186   -6845.0756   -382.32069     102002.7      46.7237      46.7237      46.7237 
  460000    109.89598   -7442.6261   -6851.0183   -481.99617     102002.7      46.7237      46.7237      46.7237 
  461000    110.26939   -7443.8341   -6850.2162   -683.11851     102002.7      46.7237      46.7237      46.7237 
  462000    108.38101   -7471.1304   -6887.6782   -496.12496     102002.7      46.7237      46.7237      46.7237 
  463000     109.6541   -7440.8483   -6850.5426   -644.22605     102002.7      46.7237      46.7237      46.7237 
  464000    111.06522    -7446.389   -6848.4869   -645.68537     102002.7      46.7237      46.7237      46.7237 
  465000    113.14527   -7442.7167   -6833.6168   -661.09794     102002.7      46.7237      46.7237      46.7237 
  466000    110.49738   -7454.0313    -6859.186   -633.39534     102002.7      46.7237      46.7237      46.7237 
  467000     109.1218   -7451.2938   -6863.8537   -782.98814     102002.7      46.7237      46.7237      46.7237 
  468000    110.50045   -7435.7109   -6840.8491   -953.52481     102002.7      46.7237      46.7237      46.7237 
  469000    108.77433   -7440.4827   -6854.9131   -442.95565     102002.7      46.7237      46.7237      46.7237 
  470000    110.81966   -7434.7834   -6838.2031   -574.91738     102002.7      46.7237      46.7237      46.7237 
  471000    107.44239   -7458.2034   -6879.8041   -533.41029     102002.7      46.7237      46.7237      46.7237 
  472000    114.01551   -7437.6728   -6823.8882    -850.9104     102002.7      46.7237      46.7237      46.7237 
  473000    110.15355   -7440.9136   -6847.9193   -553.63358     102002.7      46.7237      46.7237      46.7237 
  474000    104.52515   -7443.1657    -6880.471   -741.36616     102002.7      46.7237      46.7237      46.7237 
  475000    113.36969   -7429.7001   -6819.3922   -1020.9089     102002.7      46.7237      46.7237      46.7237 
  476000    106.93582   -7433.6689   -6857.9968   -695.76556     102002.7      46.7237      46.7237      46.7237 
  477000    106.57698   -7418.6175   -6844.8771   -487.39249     102002.7      46.7237      46.7237      46.7237 
  478000    106.45934   -7417.5917   -6844.4846   -630.30067     102002.7      46.7237      46.7237      46.7237 
  479000    107.51831   -7435.2451   -6856.4372   -590.87398     102002.7      46.7237      46.7237      46.7237 
  480000    106.43881   -7439.1235   -6866.1269    -972.3143     102002.7      46.7237      46.7237      46.7237 
  481000    111.97117   -7442.7561   -6839.9768    -841.9372     102002.7      46.7237      46.7237      46.7237 
  482000    105.82963   -7445.8038   -6876.0866   -834.31744     102002.7      46.7237      46.7237      46.7237 
  483000    109.91256   -7440.0458   -6848.3488   -690.55987     102002.7      46.7237      46.7237      46.7237 
  484000    108.56664   -7439.3455   -6854.8941    -633.9178     102002.7      46.7237      46.7237      46.7237 
  485000    110.83738   -7414.0331   -6817.3575   -754.24086     102002.7      46.7237      46.7237      46.7237 
  486000    107.08801    -7449.073   -6872.5815   -801.67374     102002.7      46.7237      46.7237      46.7237 
  487000    111.47584   -7441.2328   -6841.1201   -579.26543     102002.7      46.7237      46.7237      46.7237 
  488000    111.58796   -7462.5438   -6861.8276   -850.84999     102002.7      46.7237      46.7237      46.7237 
  489000    106.86972    -7447.023   -6871.7066   -900.16035     102002.7      46.7237      46.7237      46.7237 
  490000     106.9044   -7419.7513   -6844.2483   -868.11772     102002.7      46.7237      46.7237      46.7237 
  491000    110.80032   -7442.2062   -6845.7301   -870.38618     102002.7      46.7237      46.7237      46.7237 
  492000    113.65763   -7452.9814   -6841.1234   -909.92962     102002.7      46.7237      46.7237      46.7237 
  493000    109.31831   -7434.9379     -6846.44   -853.72738     102002.7      46.7237      46.7237      46.7237 
  494000    107.64897   -7433.9413   -6854.4299   -928.35137     102002.7      46.7237      46.7237      46.7237 
  495000    106.53062   -7436.5565   -6863.0656   -856.65014     102002.7      46.7237      46.7237      46.7237 
  496000    109.25834   -7438.1208   -6849.9457   -539.65013     102002.7      46.7237      46.7237      46.7237 
  497000     107.3464    -7458.831   -6880.9485   -746.62942     102002.7      46.7237      46.7237      46.7237 
  498000     109.9394   -7450.8821   -6859.0406   -556.34576     102002.7      46.7237      46.7237      46.7237 
  499000    110.79387   -7417.2223   -6820.7809   -953.66736     102002.7      46.7237      46.7237      46.7237 
  500000    109.24011   -7456.7694   -6868.6925   -761.99322     102002.7      46.7237      46.7237      46.7237 
  500503    107.60217   -7434.6148   -6855.3554   -576.31874     102002.7      46.7237      46.7237      46.7237 
Loop time of 566.622 on 24 procs for 500000 steps with 1807 atoms

Performance: 76.241 ns/day, 0.315 hours/ns, 882.422 timesteps/s
99.9% CPU use with 24 MPI tasks x no OpenMP threads

MPI task timing breakdown:
Section |  min time  |  avg time  |  max time  |%varavg| %total
---------------------------------------------------------------
Pair    | 195.99     | 280.99     | 362.04     | 272.0 | 49.59
Bond    | 65.827     | 78.088     | 89.592     |  64.6 | 13.78
Neigh   | 2.2318     | 2.2578     | 2.2784     |   1.0 |  0.40
Comm    | 117.11     | 197.29     | 279.54     | 320.3 | 34.82
Output  | 1.1101     | 1.1104     | 1.1139     |   0.1 |  0.20
Modify  | 3.5633     | 3.8915     | 4.1669     |   6.8 |  0.69
Other   |            | 2.99       |            |       |  0.53

Nlocal:    75.2917 ave 96 max 47 min
Histogram: 1 1 2 1 4 2 5 2 4 2
Nghost:    2049.88 ave 2220 max 1948 min
Histogram: 10 5 1 0 0 0 0 0 1 7
Neighs:    7641.54 ave 10324 max 3477 min
Histogram: 1 0 2 2 1 4 4 4 5 1

Total # of neighbors = 183397
Ave neighs/atom = 101.493
Ave special neighs/atom = 6.37521
Neighbor list builds = 3918
Dangerous builds = 0
Neighbor list info ...
  update every 1 steps, delay 10 steps, check yes
  max neighbors/atom: 2000, page size: 100000
  master list distance cutoff = 16
  ghost atom cutoff = 16
  binsize = 8, bins = 6 6 6
  3 neighbor lists, perpetual/occasional/extra = 3 0 0
  (1) pair buck6d/coul/gauss/dsf, perpetual, skip from (3)
      attributes: half, newton on
      pair build: skip
      stencil: none
      bin: none
  (2) pair lj/cut, perpetual, skip from (3)
      attributes: half, newton on
      pair build: skip
      stencil: none
      bin: none
  (3) neighbor class addition, perpetual
      attributes: half, newton on
      pair build: half/bin/newton
      stencil: half/bin/3d/newton
      bin: standard
Setting up Verlet run ...
  Unit style    : real
  Current step  : 500503
  Time step     : 1
WARNING: Inconsistent image flags (../domain.cpp:786)
Per MPI rank memory allocation (min/avg/max) = 23.92 | 24.47 | 24.58 Mbytes
Step Time TotEng KinEng PotEng E_mol E_pair Temp Pxx Pyy Pzz Pxy Pxz Pyz Cella Cellb Cellc CellAlpha CellBeta CellGamma Volume Press 
  500503       500000   -6855.3554    579.25939   -7434.6148    4323.9474   -11758.562    107.60217   -517.52695   -328.09854   -883.33075   -100.99143   -37.358424    -210.3002      46.7237      46.7237      46.7237           90           90           90     102002.7   -576.31874 
  501000       500497   -6842.2083    609.93211   -7452.1404    4292.9182   -11745.059    113.29988    -335.5781   -929.08268   -944.45231    24.173427    81.474018   -23.432299      46.7237      46.7237      46.7237           90           90           90     102002.7   -736.37103 
  502000       501497   -6844.9788    594.18676   -7439.1656    4290.6238   -11729.789    110.37505   -878.99749   -576.02759   -565.91191    41.286707   -66.114888    64.917275      46.7237      46.7237      46.7237           90           90           90     102002.7   -673.64567 
  503000       502497   -6869.1778    588.70367   -7457.8815    4285.8301   -11743.712    109.35652   -470.42175    -354.5178   -480.78657    53.720917    120.33225    288.27416      46.7237      46.7237      46.7237           90           90           90     102002.7   -435.24204 
  504000       503497   -6886.9355    558.06332   -7444.9988    4291.7576   -11736.756    103.66483   -319.45742   -813.56802   -873.19747    168.13516    223.37258    52.478917      46.7237      46.7237      46.7237           90           90           90     102002.7   -668.74097 
  505000       504497   -6846.9384    595.69144   -7442.6298    4294.0554   -11736.685    110.65456   -225.08274   -565.33711    -409.6597    28.015756   -286.11012   -71.363844      46.7237      46.7237      46.7237           90           90           90     102002.7   -400.02652 
  506000       505497   -6901.9569    561.26713   -7463.2241    4282.3305   -11745.555    104.25996   -624.56926      -901.38   -575.43216    21.479889   -237.73958    27.480213      46.7237      46.7237      46.7237           90           90           90     102002.7   -700.46047 
  507000       506497   -6834.7027    614.00853   -7448.7112     4284.445   -11733.156    114.05711   -180.09282   -310.25545    -631.5335     115.5873    40.160218    86.872639      46.7237      46.7237      46.7237           90           90           90     102002.7   -373.96059 
  508000       507497   -6834.4926    593.77162   -7428.2642    4315.8551   -11744.119    110.29794   -1101.3888   -679.36823   -597.58857   -99.620791   -63.615917    24.599473      46.7237      46.7237      46.7237           90           90           90     102002.7   -792.78185 
  509000       508497   -6869.6957    569.39876   -7439.0944    4308.1243   -11747.219    105.77048   -480.74632   -678.43189   -946.92516   -25.891307   -49.288073   -95.187513      46.7237      46.7237      46.7237           90           90           90     102002.7   -702.03446 
  510000       509497   -6822.5313    602.29053   -7424.8218    4317.1843   -11742.006    111.88039   -330.69579   -664.50937    -749.1862   -76.751942   -40.469235    91.585663      46.7237      46.7237      46.7237           90           90           90     102002.7   -581.46379 
  511000       510497   -6851.1264    584.50829   -7435.6346    4299.8276   -11735.462     108.5772   -578.78444   -469.50519    -851.3476   -131.47463   -240.72322    4.0482897      46.7237      46.7237      46.7237           90           90           90     102002.7   -633.21241 
  512000       511497   -6844.0564    591.41964    -7435.476    4295.7267   -11731.203    109.86104   -361.12873   -254.54075   -804.31935   -55.281134    1.8243837   -66.963831      46.7237      46.7237      46.7237           90           90           90     102002.7   -473.32961 
  513000       512497   -6856.0243    591.74142   -7447.7657    4290.5812   -11738.347    109.92081   -551.95239   -903.87428    -623.6406   -20.720744   -1.8918546    -157.6785      46.7237      46.7237      46.7237           90           90           90     102002.7   -693.15575 
  514000       513497   -6842.8799    590.44088   -7433.3208    4314.4149   -11747.736    109.67922   -706.96509   -489.09467   -1383.2722   -2.3693246   -170.60642   -39.272869      46.7237      46.7237      46.7237           90           90           90     102002.7   -859.77732 
  515000       514497   -6844.3001    586.82668   -7431.1268    4316.4009   -11747.528    109.00786   -596.23732   -978.34681   -744.56336   -192.63493   -244.24305    104.83097      46.7237      46.7237      46.7237           90           90           90     102002.7   -773.04917 
  516000       515497    -6870.425    579.38904    -7449.814     4285.063   -11734.877    107.62625   -1028.6132   -448.60081   -796.43095   -74.768839    47.550445   -214.16867      46.7237      46.7237      46.7237           90           90           90     102002.7   -757.88166 
  517000       516497   -6851.7307    590.00075   -7441.7315    4305.4312   -11747.163    109.59747   -769.12874   -567.48472   -650.67832   -4.4230646    48.809659    156.44293      46.7237      46.7237      46.7237           90           90           90     102002.7   -662.43059 
  518000       517497   -6849.9452    590.71326   -7440.6585    4302.1111    -11742.77    109.72982   -279.86857   -601.04292   -766.73248   -123.38922   -389.13775    346.12705      46.7237      46.7237      46.7237           90           90           90     102002.7   -549.21466 
  519000       518497   -6842.2589    606.23774   -7448.4967    4301.3003   -11749.797    112.61362   -844.40363   -679.54837   -477.77471    -36.49784    6.4556752   -70.198877      46.7237      46.7237      46.7237           90           90           90     102002.7   -667.24224 
  520000       519497   -6839.4944    584.87091   -7424.3653    4315.1336   -11739.499    108.64456   -714.86169   -742.99014   -477.01191    207.94606    258.16833    -180.0701      46.7237      46.7237      46.7237           90           90           90     102002.7   -644.95458 
  521000       520497   -6880.1564    575.52617   -7455.6826     4297.951   -11753.634     106.9087   -590.13166   -793.45566   -659.69798    286.38558    104.53142   -115.72978      46.7237      46.7237      46.7237           90           90           90     102002.7    -681.0951 
  522000       521497   -6845.9991    589.59185   -7435.5909    4294.9733   -11730.564    109.52151   -472.76831   -240.58315   -705.64242    1.2963658    125.09958   -82.213277      46.7237      46.7237      46.7237           90           90           90     102002.7   -472.99796 
  523000       522497   -6833.4909    582.26053   -7415.7515    4320.9546   -11736.706    108.15966   -519.48126   -546.63743     -567.499   -26.018329    150.05781   -63.652792      46.7237      46.7237      46.7237           90           90           90     102002.7   -544.53923 
  524000       523497   -6860.6329    586.26649   -7446.8994     4290.865   -11737.764     108.9038   -642.84858   -940.16265   -826.73217     76.89291    151.23825   -197.41707      46.7237      46.7237      46.7237           90           90           90     102002.7    -803.2478 
  525000       524497   -6855.5004    585.85358    -7441.354    4290.2382   -11731.592     108.8271   -511.06715     -649.848   -984.42588   -61.525821    161.69704   -232.21683      46.7237      46.7237      46.7237           90           90           90     102002.7   -715.11368 
  526000       525497    -6852.665    584.60922   -7437.2743    4314.8892   -11752.164    108.59595   -637.91231   -894.97062   -624.20316    237.31265    61.873247    114.95463      46.7237      46.7237      46.7237           90           90           90     102002.7    -719.0287 
  527000       526497   -6880.0909    583.37042   -7463.4614    4275.5867   -11739.048    108.36583   -651.65594   -783.64453   -620.42207   -335.55655   -220.88327    266.60519      46.7237      46.7237      46.7237           90           90           90     102002.7   -685.24085 
  528000       527497   -6829.9621    600.10719   -7430.0693    4305.0287   -11735.098    111.47482    -607.0338   -635.57617   -627.95354   -25.565305    194.03012    156.31424      46.7237      46.7237      46.7237           90           90           90     102002.7   -623.52117 
  529000       528497   -6855.6537    580.86311   -7436.5168    4296.2904   -11732.807    107.90008   -279.80823   -849.45556    -400.6694     12.97328    336.73655    177.97819      46.7237      46.7237      46.7237           90           90           90     102002.7   -509.97773 
  530000       529497    -6877.404     583.9966   -7461.4006    4279.4708   -11740.871    108.48215   -721.81241   -791.25456   -935.33254   -136.90014    76.170776   -176.49517      46.7237      46.7237      46.7237           90           90           90     102002.7   -816.13317 
  531000       530497   -6847.0748    591.55391   -7438.6288    4294.4821   -11733.111    109.88598   -456.42346    -471.0259   -675.20668    98.468763   -44.146593   -15.181108      46.7237      46.7237      46.7237           90           90           90     102002.7   -534.21868 
  532000       531497   -6858.3665    590.32697   -7448.6935    4300.8959   -11749.589    109.65806   -1025.3722   -867.67848   -777.06313    65.430258   -16.850114   -67.933007      46.7237      46.7237      46.7237           90           90           90     102002.7   -890.03793 
  533000       532497   -6838.5715    603.24621   -7441.8178    4292.9088   -11734.727    112.05792   -120.41855   -936.96382   -573.08761   -191.90844    81.333372    284.87653      46.7237      46.7237      46.7237           90           90           90     102002.7   -543.48999 
  534000       533497    -6836.109     598.4457   -7434.5547    4304.2575   -11738.812    111.16619   -424.41688   -1148.2195   -857.01421   -42.489598    30.938276   -61.808993      46.7237      46.7237      46.7237           90           90           90     102002.7   -809.88353 
  535000       534497    -6851.593    589.18565   -7440.7787     4282.393   -11723.172    109.44606   -545.37384   -787.03517   -852.04672   -66.709484    166.85423    76.375311      46.7237      46.7237      46.7237           90           90           90     102002.7   -728.15191 
  536000       535497    -6810.771    619.86587   -7430.6369    4309.7011   -11740.338    115.14516   -740.99499   -812.82354   -1243.6689   -75.726371    85.918889   -2.2194819      46.7237      46.7237      46.7237           90           90           90     102002.7   -932.49582 
  537000       536497   -6845.5175    596.59447   -7442.1119    4286.0237   -11728.136    110.82231   -705.22108   -643.66065   -537.77106   -8.8600681    117.94317   -133.32383      46.7237      46.7237      46.7237           90           90           90     102002.7   -628.88427 
  538000       537497   -6870.4009      584.815   -7455.2159    4291.9423   -11747.158    108.63417   -835.90106   -843.41235   -905.02268     15.37156   -314.26522   -156.86814      46.7237      46.7237      46.7237           90           90           90     102002.7   -861.44536 
  539000       538497   -6842.9501    593.18577   -7436.1359    4304.6192   -11740.755    110.18911   -881.50321   -677.49814   -1306.7098   -210.38879    155.89401   -153.72602      46.7237      46.7237      46.7237           90           90           90     102002.7   -955.23706 
  540000       539497   -6856.7827    578.19266   -7434.9753    4305.4283   -11740.404    107.40402    -739.2087   -605.33308   -880.05151    166.51962    303.84864    -206.5146      46.7237      46.7237      46.7237           90           90           90     102002.7    -741.5311 
  541000       540497   -6833.0401    604.51123   -7437.5513    4287.4605   -11725.012    112.29291   -608.96085   -760.07826   -779.46175    239.66871   -148.10054   -337.87915      46.7237      46.7237      46.7237           90           90           90     102002.7   -716.16695 
  542000       541497   -6871.6157    583.98012   -7455.5958    4298.4835   -11754.079    108.47909   -447.49162   -577.27752    -663.0186   -163.67902     -25.5495   -7.7831025      46.7237      46.7237      46.7237           90           90           90     102002.7   -562.59592 
  543000       542497   -6821.8899    615.68462   -7437.5745    4304.6133   -11742.188    114.36846   -751.84806   -215.17485   -898.91249    -31.88333    60.079817    197.90257      46.7237      46.7237      46.7237           90           90           90     102002.7   -621.97847 
  544000       543497   -6860.5984    591.92301   -7452.5214    4271.7114   -11724.233    109.95454   -850.29961   -739.02665   -585.87303    53.624338    202.81688    49.385696      46.7237      46.7237      46.7237           90           90           90     102002.7   -725.06643 
  545000       544497   -6827.2338    612.74722    -7439.981    4289.1417   -11729.123    113.82281   -363.07932   -889.68292   -935.14887   -69.226712   -172.83122     142.9738      46.7237      46.7237      46.7237           90           90           90     102002.7    -729.3037 
  546000       545497   -6871.5755    576.23251    -7447.808    4300.2161   -11748.024     107.0399   -366.02167   -667.40697   -1218.7929   -137.89505    63.777998   -135.73977      46.7237      46.7237      46.7237           90           90           90     102002.7   -750.74052 
  547000       546497   -6872.9815    589.43018   -7462.4117    4280.9594   -11743.371    109.49148   -582.17115   -1025.7139    -715.6577    83.723772     213.6064    61.633231      46.7237      46.7237      46.7237           90           90           90     102002.7   -774.51424 
  548000       547497   -6856.7207     580.7765   -7437.4972    4297.9816   -11735.479    107.88399   -710.21287   -792.75456    -849.1879   -192.45179     78.58386   -142.08637      46.7237      46.7237      46.7237           90           90           90     102002.7   -784.05178 
  549000       548497   -6821.3887    603.01072   -7424.3994    4321.6857   -11746.085    112.01417   -149.36608   -935.55359   -949.84342    21.703732   -63.330284   -66.005157      46.7237      46.7237      46.7237           90           90           90     102002.7   -678.25436 
  550000       549497   -6837.5682    591.89284   -7429.4611    4297.9432   -11727.404    109.94894   -678.64965    -1011.705   -847.54437    406.70287   -107.81652    72.317006      46.7237      46.7237      46.7237           90           90           90     102002.7   -845.96633 
  551000       550497   -6862.7449    589.15624   -7451.9011    4301.1635   -11753.065    109.44059   -720.71897   -377.88488    -582.8338   -140.96415   -3.3069468   -37.536712      46.7237      46.7237      46.7237           90           90           90     102002.7   -560.47922 
  552000       551497   -6852.0473    580.20324   -7432.2506    4302.3552   -11734.606     107.7775   -545.09411    -547.6992   -979.48007    103.19114    -8.534227    55.045857      46.7237      46.7237      46.7237           90           90           90     102002.7   -690.75779 
  553000       552497   -6832.6796    607.98217   -7440.6618      4291.68   -11732.342    112.93766   -259.22897   -677.13813   -557.64241   -28.419083   -174.44033    43.851296      46.7237      46.7237      46.7237           90           90           90     102002.7   -498.00317 
  554000       553497   -6811.8916    608.20034    -7420.092    4324.1058   -11744.198    112.97819   -679.54918   -565.83912   -329.10745    106.61955     50.08821   -137.02065      46.7237      46.7237      46.7237           90           90           90     102002.7   -524.83192 
  555000       554497   -6862.8433    592.94017   -7455.7835    4300.8934   -11756.677    110.14349   -99.142149   -1059.3985   -791.38579    150.17233    159.38858   -46.172153      46.7237      46.7237      46.7237           90           90           90     102002.7   -649.97549 
[...]
  936000       935497   -6831.0592    597.40184    -7428.461     4310.232   -11738.693    110.97228   -756.12088   -707.28817   -787.78317    166.98783   -116.57655   -34.299131      46.7237      46.7237      46.7237           90           90           90     102002.7   -750.39741 
  937000       936497   -6866.3093    592.53568    -7458.845     4274.559   -11733.404    110.06835   -604.25028   -330.66095    -602.2092    -133.9101   -32.004724   -21.399416      46.7237      46.7237      46.7237           90           90           90     102002.7   -512.37348 
  938000       937497   -6886.1216    562.79439    -7448.916    4296.3275   -11745.244    104.54366   -938.40126   -652.95454   -347.93394    -229.4737   -196.38865    234.62577      46.7237      46.7237      46.7237           90           90           90     102002.7   -646.42991 
  939000       938497   -6853.1676    594.91623   -7448.0838    4312.1265    -11760.21    110.51056   -432.30558   -794.50575   -777.48291   -59.313035    3.2448326   -48.290553      46.7237      46.7237      46.7237           90           90           90     102002.7   -668.09808 
  940000       939497    -6834.591      611.477    -7446.068    4293.3736   -11739.442    113.58686   -718.41575   -266.96159   -1087.7079    132.53181    47.145378   -149.26163      46.7237      46.7237      46.7237           90           90           90     102002.7   -691.02841 
  941000       940497   -6863.2076    578.83483   -7442.0424    4304.5652   -11746.608    107.52331   -641.45961   -707.82907   -380.01849   -169.79201    84.283986    250.20674      46.7237      46.7237      46.7237           90           90           90     102002.7   -576.43573 
  942000       941497   -6858.2515    607.28323   -7465.5347    4275.3509   -11740.886    112.80783   -807.29859   -234.15245   -636.81926    10.569329    73.685481    194.04641      46.7237      46.7237      46.7237           90           90           90     102002.7   -559.42343 
  943000       942497   -6849.6321    573.16764   -7422.7998    4318.5646   -11741.364    106.47058   -621.91777    -1104.995    -486.7614   -51.266499    39.318796    159.14768      46.7237      46.7237      46.7237           90           90           90     102002.7    -737.8914 
  944000       943497   -6858.8046    594.53541     -7453.34     4294.956   -11748.296    110.43982   -526.07608   -1150.7866   -898.84576   -99.061554   -28.434647   -122.51069      46.7237      46.7237      46.7237           90           90           90     102002.7   -858.56949 
  945000       944497   -6858.5095    578.22044   -7436.7299    4292.3642   -11729.094    107.40918   -682.37983   -528.67419   -686.88402   -88.406102   -102.18045   -20.111432      46.7237      46.7237      46.7237           90           90           90     102002.7   -632.64601 
  946000       945497   -6843.2543     591.7672   -7435.0215     4305.573   -11740.595     109.9256   -929.94956   -309.12311   -1038.0546    80.832818   -172.32008    111.30631      46.7237      46.7237      46.7237           90           90           90     102002.7   -759.04244 
  947000       946497   -6843.3833    588.14861   -7431.5319    4299.5597   -11731.092    109.25342   -534.71002   -585.70745   -897.31845    -86.94715   -31.499352   -41.221604      46.7237      46.7237      46.7237           90           90           90     102002.7   -672.57864 
  948000       947497   -6833.0492    605.53292   -7438.5821    4291.9277    -11730.51    112.48269   -949.64289   -640.11385   -200.45203    76.948035   -33.013238     115.0844      46.7237      46.7237      46.7237           90           90           90     102002.7   -596.73626 
  949000       948497   -6820.1207     597.0584   -7417.1791    4310.1294   -11727.308    110.90848   -72.505065   -400.52608   -638.12393    172.67529    85.300581   -125.79778      46.7237      46.7237      46.7237           90           90           90     102002.7   -370.38503 
  950000       949497    -6842.613    599.01127   -7441.6243    4305.5539   -11747.178    111.27124    -937.7364   -981.06112   -1093.8917   -207.06742   -99.832983   -9.6070372      46.7237      46.7237      46.7237           90           90           90     102002.7   -1004.2297 
  951000       950497   -6843.5189    577.22407   -7420.7429    4305.8252   -11726.568    107.22409   -543.30246   -893.73708   -659.67686   -145.72003   -38.737633     103.2119      46.7237      46.7237      46.7237           90           90           90     102002.7   -698.90547 
  952000       951497   -6819.7316    603.71698   -7423.4486    4318.7997   -11742.248    112.14537   -551.89176    -1070.882   -595.40485    37.135673    43.611641    75.891492      46.7237      46.7237      46.7237           90           90           90     102002.7   -739.39287 
  953000       952497    -6839.268    585.80819   -7425.0761    4282.4845   -11707.561    108.81866   -337.41391   -885.34694     -968.249    67.985937   -9.3166896    203.12565      46.7237      46.7237      46.7237           90           90           90     102002.7   -730.33662 
  954000       953497   -6870.1932    585.25257   -7455.4457    4287.7169   -11743.163    108.71545   -140.12441   -604.56304   -359.67424   -93.320989    229.89962   -13.175364      46.7237      46.7237      46.7237           90           90           90     102002.7   -368.12056 
  955000       954497    -6836.686    599.34571   -7436.0317    4315.5901   -11751.622    111.33337   -742.88625   -383.05346   -487.23377   -3.3139085    5.6851926    -172.2146      46.7237      46.7237      46.7237           90           90           90     102002.7   -537.72449 
  956000       955497    -6824.014    601.96803    -7425.982    4324.7589   -11750.741    111.82049   -626.10274   -525.96765   -995.35839   -15.007347    -52.32082   -194.82477      46.7237      46.7237      46.7237           90           90           90     102002.7   -715.80959 
  957000       956497   -6871.7535    590.63981   -7462.3933    4270.5334   -11732.927    109.71618   -347.94839   -445.26855   -1220.9587    -29.47877    428.44738    131.54291      46.7237      46.7237      46.7237           90           90           90     102002.7   -671.39189 
  958000       957497   -6846.9945    603.43855   -7450.4331    4282.3584   -11732.792    112.09365   -1041.0677   -909.60805   -1014.8749   -120.64512    218.23458    146.18473      46.7237      46.7237      46.7237           90           90           90     102002.7   -988.51686 
  959000       958497   -6873.6574    588.14704   -7461.8044    4279.3959     -11741.2    109.25312   -160.73327   -934.52884   -36.893575   -42.466826   -115.14107    156.56281      46.7237      46.7237      46.7237           90           90           90     102002.7   -377.38523 
  960000       959497    -6838.011    604.93176   -7442.9428    4289.1561   -11732.099    112.37102    304.21434   -607.01792   -567.86287    162.98169   -10.270986    69.644653      46.7237      46.7237      46.7237           90           90           90     102002.7   -290.22215 
  961000       960497   -6871.9797    579.67291   -7451.6526    4291.2809   -11742.933    107.67899   -861.32724   -474.16596   -167.39794   -278.43988    125.88818    170.59172      46.7237      46.7237      46.7237           90           90           90     102002.7   -500.96371 
  962000       961497   -6833.9404    606.04285   -7439.9832    4304.2898   -11744.273    112.57742   -589.87667   -330.04931    -702.5322   -256.43014    113.71386    141.24506      46.7237      46.7237      46.7237           90           90           90     102002.7   -540.81939 
  963000       962497   -6887.9791    565.39867   -7453.3777    4287.9253   -11741.303    105.02743   -671.98666   -600.83613    -945.8246    87.930543   -283.33907   -155.27297      46.7237      46.7237      46.7237           90           90           90     102002.7   -739.54913 
  964000       963497   -6855.0849    591.92164   -7447.0066    4317.6021   -11764.609    109.95429   -577.19795   -799.38253    -989.9265    19.485501    203.40762    14.187892      46.7237      46.7237      46.7237           90           90           90     102002.7   -788.83566 
  965000       964497   -6854.8178     583.3747   -7438.1925    4295.0489   -11733.241    108.36662   -805.62821   -294.34482   -518.68553    198.04489   -112.35528   -78.959443      46.7237      46.7237      46.7237           90           90           90     102002.7   -539.55286 
  966000       965497    -6867.757    587.06864   -7454.8256    4280.7535   -11735.579     109.0528   -310.45348   -736.04591   -594.69619    109.58479   -85.532564   -116.46314      46.7237      46.7237      46.7237           90           90           90     102002.7   -547.06519 
  967000       966497   -6853.2778     588.0053   -7441.2831    4299.8021   -11741.085     109.2268   -576.61705   -520.50539   -653.39443   -43.589181   -149.77793   -130.27653      46.7237      46.7237      46.7237           90           90           90     102002.7   -583.50562 
  968000       967497   -6841.5845    596.57861   -7438.1631    4298.0031   -11736.166    110.81936   -802.08339   -915.90916   -719.32933   -163.96508    137.04395    88.739728      46.7237      46.7237      46.7237           90           90           90     102002.7   -812.44063 
  969000       968497   -6841.5212    612.05341   -7453.5746    4288.0343   -11741.609    113.69393   -933.29445   -714.09498   -695.65308   -43.021009    -131.2125    -100.5958      46.7237      46.7237      46.7237           90           90           90     102002.7   -781.01417 
  970000       969497     -6853.03    587.75073   -7440.7807    4288.7613   -11729.542    109.17951   -468.62548   -458.73584   -438.13116   -45.792239   -106.36618    -212.9985      46.7237      46.7237      46.7237           90           90           90     102002.7   -455.16416 
  971000       970497   -6850.9821    582.84389    -7433.826     4298.745   -11732.571    108.26802    -385.5656   -798.58049   -528.27068   -104.49849    7.6452169     37.85986      46.7237      46.7237      46.7237           90           90           90     102002.7   -570.80559 
  972000       971497   -6852.9848    604.50248   -7457.4873    4302.1447   -11759.632    112.29128   -874.60484   -642.78978   -409.09981    63.588792    65.332698   -154.80803      46.7237      46.7237      46.7237           90           90           90     102002.7   -642.16481 
  973000       972497   -6881.1496    568.43487   -7449.5845    4290.4144   -11739.999    105.59143   -1076.4454    -611.6435   -596.58209   -193.62752   -225.73226     191.8606      46.7237      46.7237      46.7237           90           90           90     102002.7   -761.55701 
  974000       973497   -6859.1123    586.33847   -7445.4507    4300.8672   -11746.318    108.91717   -961.41885   -1020.3108   -608.24456   -45.114122    446.51672    231.77579      46.7237      46.7237      46.7237           90           90           90     102002.7   -863.32473 
  975000       974497   -6845.2406    610.70623   -7455.9468    4282.9736    -11738.92    113.44368   -577.88807   -295.65405   -642.66471    87.310523    44.351563    58.207372      46.7237      46.7237      46.7237           90           90           90     102002.7   -505.40228 
  976000       975497   -6843.8529    605.55879   -7449.4117    4312.9382    -11762.35     112.4875   -1278.9282   -779.60093   -908.88353   -138.68944    154.49573     27.66712      46.7237      46.7237      46.7237           90           90           90     102002.7   -989.13754 
  977000       976497   -6850.1391    593.85346   -7443.9926    4314.1982   -11758.191    110.31314   -766.04958   -634.37703   -997.80517    255.19927    99.867238    219.24497      46.7237      46.7237      46.7237           90           90           90     102002.7    -799.4106 
  978000       977497    -6872.896    580.66524   -7453.5613    4294.1632   -11747.724    107.86332   -1310.6511   -571.27708   -1003.8054    17.992477    38.391635    51.012146      46.7237      46.7237      46.7237           90           90           90     102002.7    -961.9112 
  979000       978497   -6851.7816    589.81701   -7441.5986    4321.2801   -11762.879    109.56334   -379.26368   -697.19108   -967.38553   -278.16297   -78.007954    49.201401      46.7237      46.7237      46.7237           90           90           90     102002.7    -681.2801 
  980000       979497   -6863.8135    604.58655   -7468.4001    4272.0741   -11740.474     112.3069   -472.31367   -736.71941   -1047.1045    82.030411  -0.95575787   -55.484461      46.7237      46.7237      46.7237           90           90           90     102002.7   -752.04587 
  981000       980497   -6855.6577    598.03975   -7453.6974    4295.1046   -11748.802    111.09078   -869.94873   -724.59152   -837.40844   -98.042193   -18.240242    183.19737      46.7237      46.7237      46.7237           90           90           90     102002.7   -810.64956 
  982000       981497   -6854.7539     580.5753   -7435.3292    4290.1896   -11725.519    107.84661   -673.99292   -880.93414   -1068.2891   -176.06403    334.32133    88.077967      46.7237      46.7237      46.7237           90           90           90     102002.7   -874.40539 
  983000       982497   -6872.5566    587.97313   -7460.5298    4284.7692   -11745.299    109.22082   -962.55147   -1037.6854   -892.51154   -375.79373    150.81637   -72.843007      46.7237      46.7237      46.7237           90           90           90     102002.7   -964.24946 
  984000       983497   -6820.8531     626.0055   -7446.8586    4293.0944   -11739.953    116.28564   -1007.8822    -645.6423   -718.65958   -60.279878   -155.77928    110.70683      46.7237      46.7237      46.7237           90           90           90     102002.7   -790.72804 
  985000       984497   -6862.4947    592.65472   -7455.1494    4287.9381   -11743.087    110.09046   -729.84435   -776.98738   -862.48836    23.508854    47.678593   -49.866516      46.7237      46.7237      46.7237           90           90           90     102002.7   -789.77336 
  986000       985497   -6889.9238    556.03842   -7445.9623    4280.8901   -11726.852    103.28869   -516.24059   -1080.3505   -516.06433    85.064388    220.79754   -271.41099      46.7237      46.7237      46.7237           90           90           90     102002.7   -704.21846 
  987000       986497   -6842.1082    588.35443   -7430.4627    4329.3444   -11759.807    109.29165   -787.97981   -1212.7802   -1125.5159   -234.58385    205.98773     80.86877      46.7237      46.7237      46.7237           90           90           90     102002.7    -1042.092 
  988000       987497   -6869.0584    587.88746   -7456.9459    4284.7885   -11741.734    109.20491   -763.49245   -855.97367   -1183.6017   -37.695376    432.99852    92.583462      46.7237      46.7237      46.7237           90           90           90     102002.7   -934.35593 
  989000       988497   -6863.8733    585.91656   -7449.7898    4299.7784   -11749.568    108.83879   -893.23388    -964.7536    -1123.904   -70.415857    129.19233     129.3476      46.7237      46.7237      46.7237           90           90           90     102002.7   -993.96383 
  990000       989497   -6829.6282    607.88594   -7437.5141    4315.2078   -11752.722    112.91979   -991.00425   -1122.9122   -772.19648   -238.89427   -182.85868   -111.07612      46.7237      46.7237      46.7237           90           90           90     102002.7   -962.03765 
  991000       990497   -6866.1254    591.24817   -7457.3736    4287.5468    -11744.92    109.82919   -846.43966   -547.40644   -598.96799    194.48201   -121.99084    14.863548      46.7237      46.7237      46.7237           90           90           90     102002.7   -664.27136 
  992000       991497   -6836.5482     602.7896   -7439.3378    4319.5066   -11758.844     111.9731    -510.7331   -611.78408   -751.94485   -4.3586493   -301.00033   -239.24987      46.7237      46.7237      46.7237           90           90           90     102002.7   -624.82068 
  993000       992497   -6850.7883     591.7411   -7442.5294    4297.0308    -11739.56    109.92075   -698.87901   -650.81388   -800.66751   -336.66001   -94.271267   -10.926668      46.7237      46.7237      46.7237           90           90           90     102002.7    -716.7868 
  994000       993497   -6845.2997    585.71115   -7431.0108    4297.3999   -11728.411    108.80064   -271.71307   -609.99701   -494.23897   -23.306874    166.20765    178.45044      46.7237      46.7237      46.7237           90           90           90     102002.7   -458.64968 
  995000       994497   -6880.5856    585.27891   -7465.8645    4273.2761   -11739.141    108.72035   -730.18323   -955.82927   -871.16789    143.26388   -82.696034     131.9542      46.7237      46.7237      46.7237           90           90           90     102002.7   -852.39346 
  996000       995497   -6864.4318    584.63348   -7449.0653    4292.4928   -11741.558    108.60045   -476.81465   -470.17872   -935.85203   -50.545876     20.25458   -117.71479      46.7237      46.7237      46.7237           90           90           90     102002.7   -627.61513 
  997000       996497   -6829.0464    614.51225   -7443.5587    4313.2983   -11756.857    114.15068   -713.33199   -417.13752    -471.1496   -256.06575   -59.740151   -43.776008      46.7237      46.7237      46.7237           90           90           90     102002.7   -533.87304 
  998000       997497   -6879.6648    592.64586   -7472.3106    4254.1509   -11726.461    110.08882   -664.30365   -437.36216    -1069.434    200.58911   -211.01435    391.34346      46.7237      46.7237      46.7237           90           90           90     102002.7   -723.69993 
  999000       998497   -6857.2272    596.28549   -7453.5127     4286.775   -11740.288    110.76491   -620.10685    -649.2272   -946.65959   -22.697737   -68.949733   -121.07381      46.7237      46.7237      46.7237           90           90           90     102002.7   -738.66454 
 1000000       999497   -6832.4923    595.53522   -7428.0276    4321.2386   -11749.266    110.62554   -965.62675   -679.14803   -899.94027   -90.374143   -95.658462   -205.20496      46.7237      46.7237      46.7237           90           90           90     102002.7   -848.23835 
 1000503      1000000   -6862.4643    601.36787   -7463.8322    4276.2472   -11740.079      111.709   -280.94492   -698.81209   -572.83486   -45.584085    -130.4492   -58.443431      46.7237      46.7237      46.7237           90           90           90     102002.7   -517.53062 
Loop time of 613.116 on 24 procs for 500000 steps with 1807 atoms

Performance: 70.460 ns/day, 0.341 hours/ns, 815.506 timesteps/s
99.9% CPU use with 24 MPI tasks x no OpenMP threads

MPI task timing breakdown:
Section |  min time  |  avg time  |  max time  |%varavg| %total
---------------------------------------------------------------
Pair    | 221.04     | 311.75     | 404.87     | 250.2 | 50.85
Bond    | 57.78      | 82.078     | 104.86     | 129.8 | 13.39
Neigh   | 2.2602     | 2.2832     | 2.3002     |   1.0 |  0.37
Comm    | 109.33     | 201.41     | 288.55     | 322.8 | 32.85
Output  | 0.47933    | 0.51007    | 0.51155    |   0.9 |  0.08
Modify  | 11.545     | 12.01      | 12.609     |   9.0 |  1.96
Other   |            | 3.071      |            |       |  0.50

Nlocal:    75.2917 ave 94 max 51 min
Histogram: 2 1 1 3 2 3 5 2 1 4
Nghost:    2061.67 ave 2224 max 1970 min
Histogram: 10 6 0 0 0 0 0 0 2 6
Neighs:    7640 ave 12421 max 5606 min
Histogram: 7 4 3 4 1 2 1 1 0 1

Total # of neighbors = 183360
Ave neighs/atom = 101.472
Ave special neighs/atom = 6.37521
Neighbor list builds = 3944
Dangerous builds = 0
Total wall time: 0:19:41
