LAMMPS (30 Mar 2018)
Reading data file ...
  orthogonal box = (0 0 0) to (46.7237 46.7237 46.7237)
  2 by 2 by 4 MPI processor grid
  reading atoms ...
  3327 atoms
  scanning bonds ...
  5 = max bonds/atom
  scanning angles ...
  10 = max angles/atom
  scanning dihedrals ...
  32 = max dihedrals/atom
  scanning impropers ...
  3 = max impropers/atom
  reading bonds ...
  2064 bonds
  reading angles ...
  3696 angles
  reading dihedrals ...
  6240 dihedrals
  reading impropers ...
  1008 impropers
Finding 1-2 1-3 1-4 neighbors ...
  special bond factors lj:   0          0          0         
  special bond factors coul: 0          0          0         
  5 = max # of 1-2 neighbors
  8 = max # of 1-3 neighbors
  20 = max # of 1-4 neighbors
  19 = max # of special neighbors
Finding 1-2 1-3 1-4 neighbors ...
  special bond factors lj:   0          0          1         
  special bond factors coul: 1          1          1         
  5 = max # of 1-2 neighbors
  8 = max # of 1-3 neighbors
  19 = max # of special neighbors
WARNING: Using 'neigh_modify every 1 delay 0 check yes' setting during minimization (../min.cpp:168)
Neighbor list info ...
  update every 1 steps, delay 0 steps, check yes
  max neighbors/atom: 2000, page size: 100000
  master list distance cutoff = 16
  ghost atom cutoff = 16
  binsize = 8, bins = 6 6 6
  3 neighbor lists, perpetual/occasional/extra = 3 0 0
  (1) pair buck6d/coul/gauss/dsf, perpetual, skip from (3)
      attributes: half, newton on
      pair build: skip
      stencil: none
      bin: none
  (2) pair lj/cut, perpetual, skip from (3)
      attributes: half, newton on
      pair build: skip
      stencil: none
      bin: none
  (3) neighbor class addition, perpetual
      attributes: half, newton on
      pair build: half/bin/newton
      stencil: half/bin/3d/newton
      bin: standard
Setting up cg style minimization ...
  Unit style    : real
  Current step  : 0
WARNING: Inconsistent image flags (../domain.cpp:786)
Per MPI rank memory allocation (min/avg/max) = 23.03 | 23.48 | 23.92 Mbytes
Step Temp E_pair E_mol TotEng Press 
       0            0   -16014.273    6482.8914   -9531.3818      6676.97 
     500            0   -16351.764    3762.4444    -12589.32   -1010.0909 
Loop time of 4.71017 on 16 procs for 500 steps with 3327 atoms

99.9% CPU use with 16 MPI tasks x no OpenMP threads

Minimization stats:
  Stopping criterion = max force evaluations
  Energy initial, next-to-last, final = 
        -9531.38178617     -12589.2763167     -12589.3200693
  Force two-norm initial, final = 2575.34 9.39791
  Force max component initial, final = 152.178 1.09062
  Final line search alpha, max atom move = 0.00756001 0.00824511
  Iterations, force evaluations = 500 1000

MPI task timing breakdown:
Section |  min time  |  avg time  |  max time  |%varavg| %total
---------------------------------------------------------------
Pair    | 2.1985     | 3.1477     | 3.7711     |  23.5 | 66.83
Bond    | 0.26979    | 0.36015    | 0.44486    |   7.4 |  7.65
Neigh   | 0.030258   | 0.030349   | 0.030418   |   0.0 |  0.64
Comm    | 0.48626    | 1.1265     | 2.1352     |  41.8 | 23.92
Output  | 0          | 0          | 0          |   0.0 |  0.00
Modify  | 0          | 0          | 0          |   0.0 |  0.00
Other   |            | 0.04546    |            |       |  0.97

Nlocal:    207.938 ave 229 max 189 min
Histogram: 2 0 3 2 3 2 1 0 1 2
Nghost:    4150.25 ave 4169 max 4127 min
Histogram: 2 1 0 1 1 4 2 1 2 2
Neighs:    11509.2 ave 15684 max 6971 min
Histogram: 2 0 3 2 1 1 2 1 1 3

Total # of neighbors = 184148
Ave neighs/atom = 55.3496
Ave special neighs/atom = 3.46258
Neighbor list builds = 8
Dangerous builds = 0
Neighbor list info ...
  update every 1 steps, delay 10 steps, check yes
  max neighbors/atom: 2000, page size: 100000
  master list distance cutoff = 16
  ghost atom cutoff = 16
  binsize = 8, bins = 6 6 6
  3 neighbor lists, perpetual/occasional/extra = 3 0 0
  (1) pair buck6d/coul/gauss/dsf, perpetual, skip from (3)
      attributes: half, newton on
      pair build: skip
      stencil: none
      bin: none
  (2) pair lj/cut, perpetual, skip from (3)
      attributes: half, newton on
      pair build: skip
      stencil: none
      bin: none
  (3) neighbor class addition, perpetual
      attributes: half, newton on
      pair build: half/bin/newton
      stencil: half/bin/3d/newton
      bin: standard
Setting up Verlet run ...
  Unit style    : real
  Current step  : 500
  Time step     : 1
WARNING: Inconsistent image flags (../domain.cpp:786)
Per MPI rank memory allocation (min/avg/max) = 22.67 | 22.75 | 22.86 Mbytes
Step Temp PotEng TotEng Press Volume Lx Ly Lz 
     500           91    -12589.32    -11687.13   -605.77656     102002.7      46.7237      46.7237      46.7237 
    1000    77.404628   -11850.067   -11082.664    651.43656     102002.7      46.7237      46.7237      46.7237 
    2000    92.101933   -11700.192   -10787.078    760.53913     102002.7      46.7237      46.7237      46.7237 
    3000    91.501937   -11726.546    -10819.38    993.06463     102002.7      46.7237      46.7237      46.7237 
    4000    89.740919    -11713.14   -10823.433    806.53023     102002.7      46.7237      46.7237      46.7237 
    5000    91.344778     -11740.2   -10834.592    433.49875     102002.7      46.7237      46.7237      46.7237 
    6000    91.148383   -11732.855   -10829.194    765.24218     102002.7      46.7237      46.7237      46.7237 
    7000    94.177522   -11738.524   -10804.831     871.5361     102002.7      46.7237      46.7237      46.7237 
    8000     90.96015   -11732.579   -10830.784    624.98078     102002.7      46.7237      46.7237      46.7237 
    9000     92.82835   -11720.105   -10799.788    434.90912     102002.7      46.7237      46.7237      46.7237 
   10000    91.312706   -11729.305   -10824.015    741.40016     102002.7      46.7237      46.7237      46.7237 
   11000    90.814219   -11736.894   -10836.546    576.75796     102002.7      46.7237      46.7237      46.7237 
   12000    93.307315   -11756.183   -10831.118    759.13271     102002.7      46.7237      46.7237      46.7237 
   13000    91.632566    -11745.57   -10837.109    745.24189     102002.7      46.7237      46.7237      46.7237 
   14000    91.303049   -11722.923   -10817.729    841.87283     102002.7      46.7237      46.7237      46.7237 
   15000    88.172666   -11743.929   -10869.769    670.95661     102002.7      46.7237      46.7237      46.7237 
   16000    89.162103   -11740.491   -10856.523    868.06125     102002.7      46.7237      46.7237      46.7237 
   17000    90.429602   -11738.603   -10842.068    823.66009     102002.7      46.7237      46.7237      46.7237 
   18000    92.669117   -11718.892   -10800.154    471.60329     102002.7      46.7237      46.7237      46.7237 
   19000     89.31823   -11749.038   -10863.522    649.45392     102002.7      46.7237      46.7237      46.7237 
   20000    91.418016   -11730.727   -10824.393     748.8845     102002.7      46.7237      46.7237      46.7237 
   21000    90.789071   -11746.103   -10846.005    967.46684     102002.7      46.7237      46.7237      46.7237 
   22000    92.695869   -11730.762   -10811.759    789.36368     102002.7      46.7237      46.7237      46.7237 
   23000     90.93503   -11722.614   -10821.068    513.33788     102002.7      46.7237      46.7237      46.7237 
   24000    90.955816   -11720.469   -10818.718    753.18712     102002.7      46.7237      46.7237      46.7237 
   25000     91.50849     -11767.5   -10860.268    750.54362     102002.7      46.7237      46.7237      46.7237 
   26000    91.460641   -11770.852   -10864.095    654.35365     102002.7      46.7237      46.7237      46.7237 
   27000    90.306289   -11745.686   -10850.374    667.79444     102002.7      46.7237      46.7237      46.7237 
   28000    91.833715   -11759.475    -10849.02    903.21076     102002.7      46.7237      46.7237      46.7237 
   29000    93.856506   -11750.929   -10820.419    859.76526     102002.7      46.7237      46.7237      46.7237 
   30000    91.831868   -11744.474   -10834.037    697.17443     102002.7      46.7237      46.7237      46.7237 
   31000    91.773139   -11750.426   -10840.571    725.98396     102002.7      46.7237      46.7237      46.7237 
   32000     88.68156   -11755.837   -10876.633    316.91307     102002.7      46.7237      46.7237      46.7237 
   33000    90.766505   -11753.605    -10853.73    664.67085     102002.7      46.7237      46.7237      46.7237 
   34000    93.220912   -11744.323   -10820.115    655.26621     102002.7      46.7237      46.7237      46.7237 
   35000    92.218901   -11756.482   -10842.208    565.43007     102002.7      46.7237      46.7237      46.7237 
   36000    90.512838    -11764.88    -10867.52    583.44631     102002.7      46.7237      46.7237      46.7237 
   37000    92.820393    -11748.88   -10828.642    757.86027     102002.7      46.7237      46.7237      46.7237 
   38000    92.429751   -11767.292   -10850.928    799.86638     102002.7      46.7237      46.7237      46.7237 
   39000    90.625796   -11761.716   -10863.236    537.90467     102002.7      46.7237      46.7237      46.7237 
   40000    90.725746   -11774.075   -10874.605    694.33879     102002.7      46.7237      46.7237      46.7237 
   41000    91.268415   -11751.288   -10846.437    753.23417     102002.7      46.7237      46.7237      46.7237 
   42000    90.108486   -11759.337   -10865.986    695.82666     102002.7      46.7237      46.7237      46.7237 
   43000    89.117747   -11737.375   -10853.846    479.94932     102002.7      46.7237      46.7237      46.7237 
   44000    91.276768     -11749.9   -10844.966    615.81453     102002.7      46.7237      46.7237      46.7237 
   45000    91.113648   -11760.088   -10856.771    427.64888     102002.7      46.7237      46.7237      46.7237 
   46000     91.61852   -11745.216   -10836.894     980.0408     102002.7      46.7237      46.7237      46.7237 
   47000    94.056791   -11744.659   -10812.164    691.12467     102002.7      46.7237      46.7237      46.7237 
   48000    91.869475    -11760.37    -10849.56    697.18263     102002.7      46.7237      46.7237      46.7237 
   49000    91.529742   -11773.763   -10866.321    930.05972     102002.7      46.7237      46.7237      46.7237 
   50000    90.224175    -11738.06   -10843.562    862.60446     102002.7      46.7237      46.7237      46.7237 
   51000     91.66561   -11733.046   -10824.257    920.65416     102002.7      46.7237      46.7237      46.7237 
   52000    88.564633   -11763.377   -10885.332     851.1305     102002.7      46.7237      46.7237      46.7237 
   53000    89.025691   -11716.849   -10834.233    838.25497     102002.7      46.7237      46.7237      46.7237 
   54000    90.085101   -11761.522   -10868.402    403.96827     102002.7      46.7237      46.7237      46.7237 
   55000    92.283852   -11752.218   -10837.299    482.49026     102002.7      46.7237      46.7237      46.7237 
   56000    91.147719   -11746.453   -10842.798    537.30243     102002.7      46.7237      46.7237      46.7237 
   57000    92.220496   -11745.624   -10831.334    569.05745     102002.7      46.7237      46.7237      46.7237 
   58000    89.687256   -11743.992   -10854.817    716.85077     102002.7      46.7237      46.7237      46.7237 
   59000    90.534745   -11740.257    -10842.68    699.03685     102002.7      46.7237      46.7237      46.7237 
   60000    89.048386   -11770.652   -10887.811    865.46165     102002.7      46.7237      46.7237      46.7237 
   61000    90.974957   -11747.625   -10845.683    606.52612     102002.7      46.7237      46.7237      46.7237 
   62000    91.610284   -11756.463   -10848.223    974.43487     102002.7      46.7237      46.7237      46.7237 
   63000     91.78284   -11743.531    -10833.58    524.94113     102002.7      46.7237      46.7237      46.7237 
   64000    90.744405   -11767.193   -10867.537    742.53893     102002.7      46.7237      46.7237      46.7237 
   65000    90.664641   -11742.879   -10844.014    954.03308     102002.7      46.7237      46.7237      46.7237 
   66000    90.334694   -11769.722   -10874.128    797.08769     102002.7      46.7237      46.7237      46.7237 
   67000     89.53415   -11744.697    -10857.04     804.4826     102002.7      46.7237      46.7237      46.7237 
   68000    93.028604    -11753.02   -10830.718    490.40014     102002.7      46.7237      46.7237      46.7237 
   69000    88.724085   -11773.833   -10894.207    511.79614     102002.7      46.7237      46.7237      46.7237 
   70000    91.264836   -11764.636    -10859.82    707.30813     102002.7      46.7237      46.7237      46.7237 
   71000    90.219249   -11742.896   -10848.446    541.33231     102002.7      46.7237      46.7237      46.7237 
   72000    92.945634   -11754.272   -10832.793    580.68943     102002.7      46.7237      46.7237      46.7237 
   73000    91.399369   -11749.657   -10843.507    808.33459     102002.7      46.7237      46.7237      46.7237 
   74000    89.986769   -11760.636   -10868.492    589.98531     102002.7      46.7237      46.7237      46.7237 
   75000    93.548843   -11766.623   -10839.164    663.31594     102002.7      46.7237      46.7237      46.7237 
   76000    89.186432   -11771.686   -10887.477    492.06884     102002.7      46.7237      46.7237      46.7237 
   77000    90.107929   -11761.493   -10868.148    975.65253     102002.7      46.7237      46.7237      46.7237 
   78000    92.448486   -11756.205   -10839.655    642.97457     102002.7      46.7237      46.7237      46.7237 
   79000    90.551485   -11780.288   -10882.545    773.96627     102002.7      46.7237      46.7237      46.7237 
   80000    93.600039   -11756.248   -10828.281    1065.4502     102002.7      46.7237      46.7237      46.7237 
   81000    91.711837   -11767.289   -10858.042    676.45264     102002.7      46.7237      46.7237      46.7237 
   82000    91.471536   -11758.844   -10851.979    585.31176     102002.7      46.7237      46.7237      46.7237 
   83000    90.119843   -11773.435   -10879.972    758.93447     102002.7      46.7237      46.7237      46.7237 
   84000    92.819395   -11771.624   -10851.396    488.30175     102002.7      46.7237      46.7237      46.7237 
   85000     92.80011   -11776.375   -10856.339    700.10212     102002.7      46.7237      46.7237      46.7237 
   86000    92.218168   -11761.453   -10847.186    1027.1371     102002.7      46.7237      46.7237      46.7237 
   87000    92.151599   -11758.944   -10845.337    987.91805     102002.7      46.7237      46.7237      46.7237 
   88000     89.92095   -11778.712    -10887.22     566.5409     102002.7      46.7237      46.7237      46.7237 
   89000    89.511152   -11749.594   -10862.165    681.66212     102002.7      46.7237      46.7237      46.7237 
   90000    95.011767   -11735.588   -10793.625    749.23323     102002.7      46.7237      46.7237      46.7237 
   91000    91.266332    -11771.78   -10866.949    860.02286     102002.7      46.7237      46.7237      46.7237 
   92000    91.466399   -11759.416   -10852.602    908.18284     102002.7      46.7237      46.7237      46.7237 
   93000    89.592573   -11769.693   -10881.457    920.37329     102002.7      46.7237      46.7237      46.7237 
   94000     91.40056   -11769.576   -10863.415    488.46845     102002.7      46.7237      46.7237      46.7237 
   95000    90.863192   -11763.652   -10862.818    807.06011     102002.7      46.7237      46.7237      46.7237 
   96000    90.915089   -11767.723   -10866.375    749.31578     102002.7      46.7237      46.7237      46.7237 
   97000    90.267745   -11763.287   -10868.357    881.61673     102002.7      46.7237      46.7237      46.7237 
   98000    90.652467   -11783.725   -10884.981    804.72793     102002.7      46.7237      46.7237      46.7237 
   99000    91.547255    -11774.15   -10866.535     1019.944     102002.7      46.7237      46.7237      46.7237 
  100000    89.704915   -11769.559   -10880.209    1049.1677     102002.7      46.7237      46.7237      46.7237 
  101000    92.961101   -11772.366   -10850.733     1018.574     102002.7      46.7237      46.7237      46.7237 
  102000    91.432519   -11780.919   -10874.441     1014.671     102002.7      46.7237      46.7237      46.7237 
  103000    89.273937   -11760.686   -10875.609    555.15297     102002.7      46.7237      46.7237      46.7237 
  104000    92.162603   -11768.627   -10854.911    344.53631     102002.7      46.7237      46.7237      46.7237 
  105000    91.196202   -11781.381   -10877.246    728.24718     102002.7      46.7237      46.7237      46.7237 
  106000    91.464621   -11799.669   -10892.873    942.10289     102002.7      46.7237      46.7237      46.7237 
  107000    89.408339   -11774.159   -10887.749    692.21106     102002.7      46.7237      46.7237      46.7237 
  108000    90.725127   -11774.936   -10875.471    872.51147     102002.7      46.7237      46.7237      46.7237 
  109000    89.395886   -11786.702   -10900.416    704.48066     102002.7      46.7237      46.7237      46.7237 
  110000     91.76571   -11797.713   -10887.932     1075.926     102002.7      46.7237      46.7237      46.7237 
  111000    91.194143   -11785.383   -10881.268    718.79791     102002.7      46.7237      46.7237      46.7237 
  112000    91.546777   -11751.789   -10844.178    697.16773     102002.7      46.7237      46.7237      46.7237 
  113000    89.386741   -11778.295     -10892.1    705.84051     102002.7      46.7237      46.7237      46.7237 
  114000    88.752819   -11780.563   -10900.652    682.51977     102002.7      46.7237      46.7237      46.7237 
  115000    92.543543   -11791.275   -10873.782    809.65722     102002.7      46.7237      46.7237      46.7237 
  116000    91.562444   -11773.817   -10866.051    811.13332     102002.7      46.7237      46.7237      46.7237 
  117000    91.883745   -11799.981    -10889.03     819.5966     102002.7      46.7237      46.7237      46.7237 
  118000    91.896288    -11779.72   -10868.644    956.13352     102002.7      46.7237      46.7237      46.7237 
  119000    89.017213   -11789.394   -10906.862    679.72993     102002.7      46.7237      46.7237      46.7237 
  120000    90.271797   -11773.867   -10878.897    901.45268     102002.7      46.7237      46.7237      46.7237 
  121000    91.296555   -11770.779   -10865.649    747.86873     102002.7      46.7237      46.7237      46.7237 
  122000    90.197992   -11769.801   -10875.562    770.83868     102002.7      46.7237      46.7237      46.7237 
  123000    92.466978   -11760.037   -10843.304     739.9818     102002.7      46.7237      46.7237      46.7237 
  124000    89.705943   -11765.168   -10875.807     655.5761     102002.7      46.7237      46.7237      46.7237 
  125000    90.960319   -11782.953   -10881.157    812.55163     102002.7      46.7237      46.7237      46.7237 
  126000    93.358658   -11776.437   -10850.863     845.9581     102002.7      46.7237      46.7237      46.7237 
  127000    90.091939     -11810.8   -10917.612    523.03099     102002.7      46.7237      46.7237      46.7237 
  128000    91.240737   -11768.894   -10864.317    902.77343     102002.7      46.7237      46.7237      46.7237 
  129000    89.286231   -11785.395   -10900.196    702.07253     102002.7      46.7237      46.7237      46.7237 
  130000    92.923914   -11781.268   -10860.005    706.14961     102002.7      46.7237      46.7237      46.7237 
  131000    91.497939   -11772.966   -10865.839    725.97201     102002.7      46.7237      46.7237      46.7237 
  132000    89.896292   -11780.856   -10889.609    625.06927     102002.7      46.7237      46.7237      46.7237 
  133000    91.297431   -11811.295   -10906.156    671.09541     102002.7      46.7237      46.7237      46.7237 
  134000    91.320182   -11770.351   -10864.986    702.93424     102002.7      46.7237      46.7237      46.7237 
  135000    90.782813   -11806.659   -10906.623    555.75552     102002.7      46.7237      46.7237      46.7237 
  136000    92.459874   -11760.491   -10843.828    899.25185     102002.7      46.7237      46.7237      46.7237 
  137000    89.039919   -11761.561   -10878.803    838.84818     102002.7      46.7237      46.7237      46.7237 
  138000    90.099502   -11798.355   -10905.093    621.27395     102002.7      46.7237      46.7237      46.7237 
  139000    91.378358   -11780.529   -10874.588    884.82622     102002.7      46.7237      46.7237      46.7237 
  140000    93.205428    -11771.51   -10847.455    740.05135     102002.7      46.7237      46.7237      46.7237 
  141000    91.040215   -11774.845   -10872.256    873.37821     102002.7      46.7237      46.7237      46.7237 
  142000    93.431928   -11783.272   -10856.972    858.49075     102002.7      46.7237      46.7237      46.7237 
  143000    88.403578   -11800.697   -10924.249    799.11509     102002.7      46.7237      46.7237      46.7237 
  144000      90.9051   -11795.759    -10894.51    756.62621     102002.7      46.7237      46.7237      46.7237 
  145000    90.838647   -11772.115   -10871.524    617.57985     102002.7      46.7237      46.7237      46.7237 
  146000    90.499059   -11784.211   -10886.988    778.36034     102002.7      46.7237      46.7237      46.7237 
  147000    90.759332   -11774.335   -10874.531     1023.351     102002.7      46.7237      46.7237      46.7237 
  148000    91.209449    -11772.26   -10867.993    669.06554     102002.7      46.7237      46.7237      46.7237 
  149000    91.781485   -11787.449   -10877.511    797.53292     102002.7      46.7237      46.7237      46.7237 
  150000    90.077991   -11777.319    -10884.27    813.81082     102002.7      46.7237      46.7237      46.7237 
  151000    89.602345   -11778.193    -10889.86    811.23787     102002.7      46.7237      46.7237      46.7237 
  152000    90.948576   -11782.824   -10881.144    570.16619     102002.7      46.7237      46.7237      46.7237 
  153000    90.520132   -11772.083   -10874.651    593.24927     102002.7      46.7237      46.7237      46.7237 
  154000    90.427572   -11803.774   -10907.259    1111.1312     102002.7      46.7237      46.7237      46.7237 
  155000    88.217613   -11771.634    -10897.03    790.79582     102002.7      46.7237      46.7237      46.7237 
  156000     90.99063   -11779.323   -10877.226    525.44517     102002.7      46.7237      46.7237      46.7237 
  157000    89.691503   -11782.522   -10893.305    1037.0657     102002.7      46.7237      46.7237      46.7237 
  158000    92.442892    -11766.87   -10850.375    706.73574     102002.7      46.7237      46.7237      46.7237 
  159000    89.250612   -11789.855   -10905.009    645.56315     102002.7      46.7237      46.7237      46.7237 
  160000    90.973563     -11811.5   -10909.572    736.56475     102002.7      46.7237      46.7237      46.7237 
  161000    90.115808    -11788.64   -10895.216    739.89267     102002.7      46.7237      46.7237      46.7237 
  162000     90.49228   -11795.275   -10898.119    973.62721     102002.7      46.7237      46.7237      46.7237 
  163000    90.589363   -11787.401   -10889.282    902.88213     102002.7      46.7237      46.7237      46.7237 
  164000    93.101891   -11790.616   -10867.588     586.6062     102002.7      46.7237      46.7237      46.7237 
  165000    94.025059   -11793.455   -10861.275    712.40719     102002.7      46.7237      46.7237      46.7237 
  166000     91.49958   -11780.819   -10873.676    776.89209     102002.7      46.7237      46.7237      46.7237 
  167000    92.321426   -11776.372   -10861.081    558.43598     102002.7      46.7237      46.7237      46.7237 
  168000    90.089016   -11786.859   -10893.701    480.02611     102002.7      46.7237      46.7237      46.7237 
  169000    89.592693   -11780.881   -10892.643    1010.7022     102002.7      46.7237      46.7237      46.7237 
  170000    91.058844   -11787.797   -10885.024    565.74087     102002.7      46.7237      46.7237      46.7237 
  171000    89.710714   -11776.585   -10887.177      630.731     102002.7      46.7237      46.7237      46.7237 
  172000    90.149477   -11794.737   -10900.979    908.28997     102002.7      46.7237      46.7237      46.7237 
  173000    91.717721   -11789.279   -10879.973    578.06745     102002.7      46.7237      46.7237      46.7237 
  174000    90.095706   -11785.089   -10891.864    628.48062     102002.7      46.7237      46.7237      46.7237 
  175000    90.325902   -11763.098   -10867.591     1117.208     102002.7      46.7237      46.7237      46.7237 
  176000    89.620672   -11786.773   -10898.258    972.24471     102002.7      46.7237      46.7237      46.7237 
  177000    90.106777   -11805.912   -10912.577    658.71902     102002.7      46.7237      46.7237      46.7237 
  178000    91.286292   -11791.267   -10886.239    910.48281     102002.7      46.7237      46.7237      46.7237 
  179000     92.79539   -11786.821   -10866.831    525.71258     102002.7      46.7237      46.7237      46.7237 
  180000    90.225446   -11786.047   -10891.536    688.78665     102002.7      46.7237      46.7237      46.7237 
  181000    92.932227    -11796.43   -10875.083    995.34897     102002.7      46.7237      46.7237      46.7237 
  182000    91.746666    -11792.59   -10882.997    662.25506     102002.7      46.7237      46.7237      46.7237 
  183000    92.951255    -11798.28   -10876.745    725.94573     102002.7      46.7237      46.7237      46.7237 
  184000    93.029437   -11779.225   -10856.915    730.00067     102002.7      46.7237      46.7237      46.7237 
  185000     91.56829   -11802.054    -10894.23    613.98789     102002.7      46.7237      46.7237      46.7237 
  186000     93.72325   -11780.906   -10851.718    774.08283     102002.7      46.7237      46.7237      46.7237 
  187000    89.899681   -11791.471   -10900.189    663.66594     102002.7      46.7237      46.7237      46.7237 
  188000    91.182744   -11773.622    -10869.62    603.36078     102002.7      46.7237      46.7237      46.7237 
  189000    92.978926   -11770.572   -10848.762    953.08995     102002.7      46.7237      46.7237      46.7237 
  190000    91.251846   -11804.615   -10899.928    1037.5024     102002.7      46.7237      46.7237      46.7237 
  191000    90.273189   -11785.733   -10890.749    591.83641     102002.7      46.7237      46.7237      46.7237 
  192000    89.511862   -11801.966    -10914.53    511.17343     102002.7      46.7237      46.7237      46.7237 
  193000    90.457741    -11782.85   -10886.036    789.10663     102002.7      46.7237      46.7237      46.7237 
  194000    91.923255   -11779.898   -10868.555    775.05337     102002.7      46.7237      46.7237      46.7237 
  195000    90.514265   -11814.384    -10917.01    634.74427     102002.7      46.7237      46.7237      46.7237 
  196000    92.116189   -11798.112   -10884.856    609.37683     102002.7      46.7237      46.7237      46.7237 
  197000    90.727858   -11783.309   -10883.818    673.25013     102002.7      46.7237      46.7237      46.7237 
  198000    91.866553   -11803.789   -10893.008     529.1293     102002.7      46.7237      46.7237      46.7237 
  199000    91.891138   -11786.708   -10875.683    897.65743     102002.7      46.7237      46.7237      46.7237 
  200000    89.804955   -11783.072    -10892.73     804.5132     102002.7      46.7237      46.7237      46.7237 
  201000    91.266758    -11765.78   -10860.945    1108.5085     102002.7      46.7237      46.7237      46.7237 
  202000    90.499272    -11795.55   -10898.325    1076.5607     102002.7      46.7237      46.7237      46.7237 
  203000    93.518208   -11789.432   -10862.277    1033.4327     102002.7      46.7237      46.7237      46.7237 
  204000    92.971883   -11812.463   -10890.724    985.45496     102002.7      46.7237      46.7237      46.7237 
  205000    90.840736   -11788.755   -10888.144    598.59325     102002.7      46.7237      46.7237      46.7237 
  206000    89.961451   -11787.968   -10896.075    756.24989     102002.7      46.7237      46.7237      46.7237 
  207000    92.507061   -11788.396   -10871.265    785.26991     102002.7      46.7237      46.7237      46.7237 
  208000    90.857046   -11789.172     -10888.4    722.75563     102002.7      46.7237      46.7237      46.7237 
  209000    90.254321   -11782.802   -10888.005    694.51224     102002.7      46.7237      46.7237      46.7237 
  210000    91.157469   -11776.705   -10872.954    659.31672     102002.7      46.7237      46.7237      46.7237 
  211000    90.795956   -11769.051   -10868.884    892.69162     102002.7      46.7237      46.7237      46.7237 
  212000    90.405784   -11778.418    -10882.12    519.60378     102002.7      46.7237      46.7237      46.7237 
  213000    92.787182   -11792.632   -10872.724    607.58483     102002.7      46.7237      46.7237      46.7237 
  214000    90.802044   -11799.168   -10898.941    753.72144     102002.7      46.7237      46.7237      46.7237 
  215000    94.468614   -11780.824   -10844.245    547.55917     102002.7      46.7237      46.7237      46.7237 
  216000    91.363904   -11782.346   -10876.548    726.56415     102002.7      46.7237      46.7237      46.7237 
  217000    89.921658   -11779.334   -10887.835    653.03357     102002.7      46.7237      46.7237      46.7237 
  218000    90.744974   -11760.545   -10860.883    734.45885     102002.7      46.7237      46.7237      46.7237 
  219000    87.770023   -11798.749   -10928.582    620.49473     102002.7      46.7237      46.7237      46.7237 
  220000    90.715624   -11783.348   -10883.978    802.43154     102002.7      46.7237      46.7237      46.7237 
  221000    92.805358   -11779.769    -10859.68    905.99037     102002.7      46.7237      46.7237      46.7237 
  222000     91.42535   -11800.375   -10893.968    805.23793     102002.7      46.7237      46.7237      46.7237 
  223000    89.770215    -11792.35   -10902.352    823.41343     102002.7      46.7237      46.7237      46.7237 
  224000     88.28914   -11799.494    -10924.18    889.17674     102002.7      46.7237      46.7237      46.7237 
  225000    91.939327   -11785.907   -10874.405    647.85041     102002.7      46.7237      46.7237      46.7237 
  226000    91.202025   -11780.952    -10876.76    619.91961     102002.7      46.7237      46.7237      46.7237 
  227000    91.029791   -11794.923   -10892.437    654.49107     102002.7      46.7237      46.7237      46.7237 
  228000    92.587872   -11786.387   -10868.454    494.03239     102002.7      46.7237      46.7237      46.7237 
  229000    93.728583   -11812.316   -10883.075     881.2305     102002.7      46.7237      46.7237      46.7237 
  230000    89.884188   -11806.838    -10915.71    856.41696     102002.7      46.7237      46.7237      46.7237 
  231000    92.298608   -11800.693   -10885.629    818.78981     102002.7      46.7237      46.7237      46.7237 
  232000    92.363446   -11787.066   -10871.358    892.58459     102002.7      46.7237      46.7237      46.7237 
  233000    89.171251   -11775.697   -10891.638    839.18586     102002.7      46.7237      46.7237      46.7237 
  234000    93.373925   -11769.666    -10843.94    619.69536     102002.7      46.7237      46.7237      46.7237 
  235000    90.056008   -11812.004   -10919.173    890.78056     102002.7      46.7237      46.7237      46.7237 
  236000    90.207929   -11787.948   -10893.611    686.07215     102002.7      46.7237      46.7237      46.7237 
  237000     90.79762   -11808.812   -10908.629    524.32462     102002.7      46.7237      46.7237      46.7237 
  238000     92.51564   -11811.256    -10894.04    914.75562     102002.7      46.7237      46.7237      46.7237 
  239000    90.770054   -11776.172   -10876.262    496.17021     102002.7      46.7237      46.7237      46.7237 
  240000    88.876583   -11799.567   -10918.429    793.96951     102002.7      46.7237      46.7237      46.7237 
  241000    92.132561   -11777.058    -10863.64    1062.7356     102002.7      46.7237      46.7237      46.7237 
  242000    89.417721   -11820.179   -10933.677    790.20241     102002.7      46.7237      46.7237      46.7237 
  243000     90.56593   -11797.932   -10900.046    707.97205     102002.7      46.7237      46.7237      46.7237 
  244000    90.836257   -11793.451   -10892.885    676.52584     102002.7      46.7237      46.7237      46.7237 
  245000    90.214854   -11784.018   -10889.613     620.6192     102002.7      46.7237      46.7237      46.7237 
  246000    91.708602   -11777.353   -10868.138    847.92878     102002.7      46.7237      46.7237      46.7237 
  247000     88.85392   -11810.874    -10929.96    673.15424     102002.7      46.7237      46.7237      46.7237 
  248000    89.015939   -11776.383   -10893.863    901.65086     102002.7      46.7237      46.7237      46.7237 
  249000    90.473614   -11794.799   -10897.828     647.6219     102002.7      46.7237      46.7237      46.7237 
  250000    89.532306   -11797.925   -10910.287     909.4881     102002.7      46.7237      46.7237      46.7237 
  251000    91.982762    -11784.05   -10872.117    940.33676     102002.7      46.7237      46.7237      46.7237 
  252000     91.13627    -11789.06    -10885.52    867.96219     102002.7      46.7237      46.7237      46.7237 
  253000    92.403027   -11808.323   -10892.223    1010.7676     102002.7      46.7237      46.7237      46.7237 
  254000    90.788395   -11789.966   -10889.874    848.20438     102002.7      46.7237      46.7237      46.7237 
  255000    89.474945   -11806.666   -10919.596    785.94402     102002.7      46.7237      46.7237      46.7237 
  256000    90.292606   -11787.002   -10891.825    689.98123     102002.7      46.7237      46.7237      46.7237 
  257000     94.27211    -11767.27    -10832.64     850.1296     102002.7      46.7237      46.7237      46.7237 
  258000    90.291074    -11795.93   -10900.768    715.89889     102002.7      46.7237      46.7237      46.7237 
  259000    90.978851   -11768.507   -10866.527      851.698     102002.7      46.7237      46.7237      46.7237 
  260000    89.042589    -11795.75   -10912.967    919.87803     102002.7      46.7237      46.7237      46.7237 
  261000    90.773749   -11773.434   -10873.487    642.35715     102002.7      46.7237      46.7237      46.7237 
  262000    91.084236   -11778.218   -10875.193    612.70814     102002.7      46.7237      46.7237      46.7237 
  263000    89.748084   -11785.976   -10896.198     727.0034     102002.7      46.7237      46.7237      46.7237 
  264000    89.575885   -11793.372   -10905.301    754.48254     102002.7      46.7237      46.7237      46.7237 
  265000    91.165484   -11799.137   -10895.307    731.29551     102002.7      46.7237      46.7237      46.7237 
  266000    91.371854   -11780.736    -10874.86    619.49209     102002.7      46.7237      46.7237      46.7237 
  267000    92.151744    -11810.19   -10896.581    978.15483     102002.7      46.7237      46.7237      46.7237 
  268000    91.578264   -11766.174   -10858.252    944.42216     102002.7      46.7237      46.7237      46.7237 
  269000    89.581558   -11767.586   -10879.459    641.49447     102002.7      46.7237      46.7237      46.7237 
  270000    88.713578    -11781.47   -10901.948    948.54285     102002.7      46.7237      46.7237      46.7237 
  271000     89.65043   -11787.226   -10898.416    217.76553     102002.7      46.7237      46.7237      46.7237 
  272000    89.029321   -11784.963   -10902.311    613.82116     102002.7      46.7237      46.7237      46.7237 
  273000     88.78933     -11784.8   -10904.528    813.07035     102002.7      46.7237      46.7237      46.7237 
  274000    91.879983   -11795.897   -10884.982    750.36348     102002.7      46.7237      46.7237      46.7237 
  275000    92.047595   -11756.031   -10843.455     875.6376     102002.7      46.7237      46.7237      46.7237 
  276000    90.487409   -11799.027   -10901.919    864.15199     102002.7      46.7237      46.7237      46.7237 
  277000    91.157307   -11764.976   -10861.227    666.25662     102002.7      46.7237      46.7237      46.7237 
  278000    92.044537   -11792.585    -10880.04    601.68893     102002.7      46.7237      46.7237      46.7237 
  279000    91.556296   -11785.155    -10877.45    465.61423     102002.7      46.7237      46.7237      46.7237 
  280000    87.619766   -11781.679   -10913.002    698.63094     102002.7      46.7237      46.7237      46.7237 
  281000    92.090121   -11787.181   -10874.183    784.64938     102002.7      46.7237      46.7237      46.7237 
  282000    90.164876    -11772.05   -10878.139    749.84369     102002.7      46.7237      46.7237      46.7237 
  283000     90.39352     -11786.1   -10889.923    883.88767     102002.7      46.7237      46.7237      46.7237 
  284000     91.08864   -11771.778   -10868.709    839.62199     102002.7      46.7237      46.7237      46.7237 
  285000    90.328714   -11803.477   -10907.942      687.589     102002.7      46.7237      46.7237      46.7237 
  286000    90.796612   -11807.127   -10906.954    633.65928     102002.7      46.7237      46.7237      46.7237 
  287000    91.486352   -11803.943   -10896.932     816.9209     102002.7      46.7237      46.7237      46.7237 
  288000    91.872192   -11801.378   -10890.541    630.92159     102002.7      46.7237      46.7237      46.7237 
  289000    91.119108   -11807.085   -10903.714    590.77827     102002.7      46.7237      46.7237      46.7237 
  290000    88.204087   -11794.692   -10920.222    852.58027     102002.7      46.7237      46.7237      46.7237 
  291000    92.117646   -11791.057   -10877.786    718.93087     102002.7      46.7237      46.7237      46.7237 
  292000    94.102221   -11772.374   -10839.429    1126.2848     102002.7      46.7237      46.7237      46.7237 
  293000    89.770339   -11805.401   -10915.402    691.85298     102002.7      46.7237      46.7237      46.7237 
  294000    92.312181   -11761.436   -10846.237    836.81427     102002.7      46.7237      46.7237      46.7237 
  295000    93.151241   -11796.179   -10872.662    657.31921     102002.7      46.7237      46.7237      46.7237 
  296000    90.486058   -11765.704    -10868.61    746.03304     102002.7      46.7237      46.7237      46.7237 
  297000    90.436111   -11794.102   -10897.502    608.46053     102002.7      46.7237      46.7237      46.7237 
  298000    92.130858   -11800.971   -10887.569    708.54409     102002.7      46.7237      46.7237      46.7237 
  299000    91.800689   -11797.504   -10887.376    799.71103     102002.7      46.7237      46.7237      46.7237 
  300000    92.228892   -11807.498   -10893.125    696.03785     102002.7      46.7237      46.7237      46.7237 
  301000    90.910246   -11791.247   -10889.947    653.16874     102002.7      46.7237      46.7237      46.7237 
  302000    89.597872   -11809.536   -10921.247    406.42086     102002.7      46.7237      46.7237      46.7237 
  303000    89.360728    -11787.49   -10901.552    762.84922     102002.7      46.7237      46.7237      46.7237 
  304000     90.63237    -11782.45   -10883.905    753.04373     102002.7      46.7237      46.7237      46.7237 
  305000     89.22184   -11778.328   -10893.767    389.32827     102002.7      46.7237      46.7237      46.7237 
  306000    92.567915   -11784.073   -10866.339     669.5408     102002.7      46.7237      46.7237      46.7237 
  307000    93.220223   -11803.138   -10878.937    629.97152     102002.7      46.7237      46.7237      46.7237 
  308000    89.422264   -11793.321   -10906.773     522.7166     102002.7      46.7237      46.7237      46.7237 
  309000    89.936745   -11799.375   -10907.727    822.11302     102002.7      46.7237      46.7237      46.7237 
  310000    91.947857   -11784.505   -10872.918    729.86128     102002.7      46.7237      46.7237      46.7237 
  311000    94.620743   -11788.131   -10850.045     741.9351     102002.7      46.7237      46.7237      46.7237 
  312000    92.061525     -11788.8   -10876.086    725.19671     102002.7      46.7237      46.7237      46.7237 
  313000    90.811342   -11783.393   -10883.074    724.16327     102002.7      46.7237      46.7237      46.7237 
  314000    92.137833   -11788.246   -10874.775    600.05665     102002.7      46.7237      46.7237      46.7237 
  315000    91.934862   -11789.774   -10878.316    618.92976     102002.7      46.7237      46.7237      46.7237 
  316000    88.729932   -11786.219   -10906.535    734.13493     102002.7      46.7237      46.7237      46.7237 
  317000    92.705845   -11761.055   -10841.953    427.29441     102002.7      46.7237      46.7237      46.7237 
  318000    90.960511   -11801.254   -10899.456    783.13497     102002.7      46.7237      46.7237      46.7237 
  319000    89.537597    -11765.31   -10877.618    967.32823     102002.7      46.7237      46.7237      46.7237 
  320000    89.835182   -11792.879   -10902.237     664.1284     102002.7      46.7237      46.7237      46.7237 
  321000    93.138132   -11761.736   -10838.348    1021.4589     102002.7      46.7237      46.7237      46.7237 
  322000    92.476488   -11781.833   -10865.005    705.96739     102002.7      46.7237      46.7237      46.7237 
  323000    91.840958   -11790.115   -10879.588    1003.2897     102002.7      46.7237      46.7237      46.7237 
  324000    90.621998    -11792.66   -10894.218    780.81355     102002.7      46.7237      46.7237      46.7237 
  325000    90.709357   -11789.051   -10889.743    715.04049     102002.7      46.7237      46.7237      46.7237 
  326000    92.812663   -11785.069   -10864.909    533.92597     102002.7      46.7237      46.7237      46.7237 
  327000     90.01138   -11783.338   -10890.949    594.57187     102002.7      46.7237      46.7237      46.7237 
  328000    90.220901   -11776.695   -10882.229    611.37621     102002.7      46.7237      46.7237      46.7237 
  329000    92.327081   -11783.757    -10868.41    925.02919     102002.7      46.7237      46.7237      46.7237 
  330000      92.6702   -11797.252   -10878.504    1029.2869     102002.7      46.7237      46.7237      46.7237 
  331000    88.836521    -11786.33   -10905.589    613.74159     102002.7      46.7237      46.7237      46.7237 
  332000    92.218357   -11793.925   -10879.656    847.21249     102002.7      46.7237      46.7237      46.7237 
  333000    91.388324   -11812.571   -10906.531    668.80767     102002.7      46.7237      46.7237      46.7237 
  334000    89.735383   -11795.587   -10905.935    570.85487     102002.7      46.7237      46.7237      46.7237 
  335000    92.023981   -11778.424   -10866.082    683.31479     102002.7      46.7237      46.7237      46.7237 
  336000    91.683802   -11784.779   -10875.809    666.74932     102002.7      46.7237      46.7237      46.7237 
  337000    89.917521   -11813.896   -10922.438    441.15991     102002.7      46.7237      46.7237      46.7237 
  338000    89.286989   -11781.921   -10896.715    526.49946     102002.7      46.7237      46.7237      46.7237 
  339000    90.956727   -11782.496   -10880.735     643.9907     102002.7      46.7237      46.7237      46.7237 
  340000    91.191212   -11801.433   -10897.347    710.96015     102002.7      46.7237      46.7237      46.7237 
  341000    92.456044   -11763.867   -10847.241    723.38579     102002.7      46.7237      46.7237      46.7237 
  342000    89.163606    -11790.67   -10906.686    736.83736     102002.7      46.7237      46.7237      46.7237 
  343000    92.289447   -11792.342   -10877.369    733.83389     102002.7      46.7237      46.7237      46.7237 
  344000    92.661823   -11765.728   -10847.063    1072.7091     102002.7      46.7237      46.7237      46.7237 
  345000    91.774072   -11791.358   -10881.494    908.91091     102002.7      46.7237      46.7237      46.7237 
  346000     89.35602    -11781.11   -10895.219    708.84471     102002.7      46.7237      46.7237      46.7237 
  347000    88.488603   -11775.867   -10898.576    858.01457     102002.7      46.7237      46.7237      46.7237 
  348000    91.007833    -11818.68   -10916.412    564.07218     102002.7      46.7237      46.7237      46.7237 
  349000    91.094322   -11798.996   -10895.871    603.29049     102002.7      46.7237      46.7237      46.7237 
  350000    90.805353    -11792.67    -10892.41    523.10482     102002.7      46.7237      46.7237      46.7237 
  351000     90.70724   -11786.136   -10886.848     923.0111     102002.7      46.7237      46.7237      46.7237 
  352000    90.891035   -11789.091   -10887.981    881.15543     102002.7      46.7237      46.7237      46.7237 
  353000    91.225824   -11787.331   -10882.902    866.56373     102002.7      46.7237      46.7237      46.7237 
  354000    90.460718   -11757.555   -10860.711    774.26077     102002.7      46.7237      46.7237      46.7237 
  355000    89.877039   -11786.082   -10895.025    846.94487     102002.7      46.7237      46.7237      46.7237 
  356000    93.272804   -11801.247   -10876.524    850.02718     102002.7      46.7237      46.7237      46.7237 
  357000    90.401088   -11808.087   -10911.835    636.46443     102002.7      46.7237      46.7237      46.7237 
  358000    91.580586   -11786.529   -10878.583    468.15299     102002.7      46.7237      46.7237      46.7237 
  359000    91.779966   -11807.652   -10897.729    674.27888     102002.7      46.7237      46.7237      46.7237 
  360000    90.161488   -11791.269   -10897.392     546.6697     102002.7      46.7237      46.7237      46.7237 
  361000    91.813655   -11799.773   -10889.516    544.82895     102002.7      46.7237      46.7237      46.7237 
  362000    91.249429   -11773.529   -10868.866    1066.3016     102002.7      46.7237      46.7237      46.7237 
  363000    90.194671   -11810.234   -10916.028    642.44861     102002.7      46.7237      46.7237      46.7237 
  364000    90.314428   -11781.254   -10885.861    796.68433     102002.7      46.7237      46.7237      46.7237 
  365000    89.216373   -11795.942   -10911.435    773.40128     102002.7      46.7237      46.7237      46.7237 
  366000    90.862187   -11774.301   -10873.477    675.67155     102002.7      46.7237      46.7237      46.7237 
  367000    91.216701   -11806.836   -10902.498    691.58915     102002.7      46.7237      46.7237      46.7237 
  368000    90.828825   -11769.889   -10869.396    974.00084     102002.7      46.7237      46.7237      46.7237 
  369000    88.415359   -11804.842   -10928.277     538.1327     102002.7      46.7237      46.7237      46.7237 
  370000    92.997128   -11791.687   -10869.697     790.5213     102002.7      46.7237      46.7237      46.7237 
  371000    90.844393    -11783.17   -10882.523    959.56649     102002.7      46.7237      46.7237      46.7237 
  372000    91.925683   -11793.367       -10882    727.05372     102002.7      46.7237      46.7237      46.7237 
  373000    91.740923   -11781.568   -10872.032    780.67675     102002.7      46.7237      46.7237      46.7237 
  374000    90.489571   -11791.221   -10894.091    698.48692     102002.7      46.7237      46.7237      46.7237 
  375000    92.086079   -11808.689   -10895.732    364.13772     102002.7      46.7237      46.7237      46.7237 
  376000    91.052394   -11803.835   -10901.125    634.81354     102002.7      46.7237      46.7237      46.7237 
  377000    93.635696    -11790.17    -10861.85    995.98147     102002.7      46.7237      46.7237      46.7237 
  378000    90.616032   -11814.993   -10916.609     473.1424     102002.7      46.7237      46.7237      46.7237 
  379000    91.373853   -11795.695   -10889.798     509.0215     102002.7      46.7237      46.7237      46.7237 
  380000    90.954955   -11799.874    -10898.13    836.03556     102002.7      46.7237      46.7237      46.7237 
  381000    91.319267   -11786.684   -10881.329    802.48039     102002.7      46.7237      46.7237      46.7237 
  382000    90.271111   -11785.626   -10890.662    852.97713     102002.7      46.7237      46.7237      46.7237 
  383000    91.347692   -11795.058   -10889.421    552.00269     102002.7      46.7237      46.7237      46.7237 
  384000    90.530114   -11794.593   -10897.062    825.49107     102002.7      46.7237      46.7237      46.7237 
  385000    91.600231   -11796.637   -10888.496    642.72488     102002.7      46.7237      46.7237      46.7237 
  386000    89.992894   -11796.685   -10904.479    627.86153     102002.7      46.7237      46.7237      46.7237 
  387000    91.398275   -11786.108    -10879.97    831.46222     102002.7      46.7237      46.7237      46.7237 
  388000    92.567095   -11809.651   -10891.924    474.05008     102002.7      46.7237      46.7237      46.7237 
  389000    92.673824   -11787.137   -10868.353     742.1774     102002.7      46.7237      46.7237      46.7237 
  390000    89.825304   -11792.159   -10901.616    880.74425     102002.7      46.7237      46.7237      46.7237 
  391000    92.305774   -11804.018   -10888.883    856.10512     102002.7      46.7237      46.7237      46.7237 
  392000     91.40407   -11793.618   -10887.422    941.69924     102002.7      46.7237      46.7237      46.7237 
  393000    92.372851   -11789.038   -10873.238    876.26078     102002.7      46.7237      46.7237      46.7237 
  394000     89.08583   -11780.461   -10897.248    608.81096     102002.7      46.7237      46.7237      46.7237 
  395000    90.894544   -11781.123   -10879.978    872.16328     102002.7      46.7237      46.7237      46.7237 
  396000    90.567441   -11813.427   -10915.526    455.65331     102002.7      46.7237      46.7237      46.7237 
  397000    93.020228   -11799.785   -10877.566    673.95399     102002.7      46.7237      46.7237      46.7237 
  398000    91.983089   -11778.921   -10866.985    789.63565     102002.7      46.7237      46.7237      46.7237 
  399000    90.410474    -11792.98   -10896.635    799.27952     102002.7      46.7237      46.7237      46.7237 
  400000    92.443432   -11770.334   -10853.833    904.82394     102002.7      46.7237      46.7237      46.7237 
  401000    92.592892    -11796.94   -10878.958    790.39004     102002.7      46.7237      46.7237      46.7237 
  402000    93.156575   -11773.157   -10849.587     559.3682     102002.7      46.7237      46.7237      46.7237 
  403000    91.184513   -11809.375   -10905.356    760.21717     102002.7      46.7237      46.7237      46.7237 
  404000    92.185635   -11774.316   -10860.371    829.81955     102002.7      46.7237      46.7237      46.7237 
  405000    91.452134   -11796.791   -10890.119     773.2848     102002.7      46.7237      46.7237      46.7237 
  406000    88.560158   -11789.531   -10911.531    826.68557     102002.7      46.7237      46.7237      46.7237 
  407000    93.572582   -11778.535    -10850.84     750.0591     102002.7      46.7237      46.7237      46.7237 
  408000    90.234182   -11785.085   -10890.488    650.97852     102002.7      46.7237      46.7237      46.7237 
  409000    92.711252   -11810.894   -10891.738    490.40315     102002.7      46.7237      46.7237      46.7237 
  410000    90.111953   -11784.826    -10891.44    544.96294     102002.7      46.7237      46.7237      46.7237 
  411000    89.737424   -11766.623   -10876.951    710.95655     102002.7      46.7237      46.7237      46.7237 
  412000    91.105707   -11773.872   -10870.634    751.77262     102002.7      46.7237      46.7237      46.7237 
  413000    91.107588   -11779.419   -10876.163    765.01052     102002.7      46.7237      46.7237      46.7237 
  414000    91.133872   -11805.275   -10901.758     759.5321     102002.7      46.7237      46.7237      46.7237 
  415000     92.46941   -11791.656   -10874.898    488.95819     102002.7      46.7237      46.7237      46.7237 
  416000    90.076534   -11787.351   -10894.317    508.87563     102002.7      46.7237      46.7237      46.7237 
  417000    91.665506   -11802.223   -10893.435    711.81771     102002.7      46.7237      46.7237      46.7237 
  418000    92.588037   -11809.123   -10891.189    728.15923     102002.7      46.7237      46.7237      46.7237 
  419000    91.107432   -11806.918   -10903.664    640.33339     102002.7      46.7237      46.7237      46.7237 
  420000    91.395827   -11790.693   -10884.579    748.30573     102002.7      46.7237      46.7237      46.7237 
  421000    91.177654    -11781.48   -10877.529    738.18433     102002.7      46.7237      46.7237      46.7237 
  422000    88.334803   -11789.409   -10913.643    621.35655     102002.7      46.7237      46.7237      46.7237 
  423000    94.582679   -11799.157   -10861.448    844.23719     102002.7      46.7237      46.7237      46.7237 
  424000    89.982063   -11781.209   -10889.111    703.80204     102002.7      46.7237      46.7237      46.7237 
  425000     88.91657    -11791.52   -10909.985    969.23668     102002.7      46.7237      46.7237      46.7237 
  426000    88.529285   -11776.763   -10899.068    872.23892     102002.7      46.7237      46.7237      46.7237 
  427000    91.961307   -11795.574   -10883.853     786.2708     102002.7      46.7237      46.7237      46.7237 
  428000    90.086167   -11777.768   -10884.638    777.78044     102002.7      46.7237      46.7237      46.7237 
  429000    91.411423   -11787.066   -10880.797      970.134     102002.7      46.7237      46.7237      46.7237 
  430000     90.38428   -11775.614   -10879.528    546.28902     102002.7      46.7237      46.7237      46.7237 
  431000    90.704605   -11783.526   -10884.265    675.08102     102002.7      46.7237      46.7237      46.7237 
  432000    90.848915   -11776.266   -10875.574    957.50379     102002.7      46.7237      46.7237      46.7237 
  433000    91.463128   -11800.574   -10893.792    657.73303     102002.7      46.7237      46.7237      46.7237 
  434000     91.93424   -11802.622    -10891.17    319.88277     102002.7      46.7237      46.7237      46.7237 
  435000    90.138645   -11789.567   -10895.917    487.62858     102002.7      46.7237      46.7237      46.7237 
  436000    91.060578   -11797.552   -10894.761    507.14325     102002.7      46.7237      46.7237      46.7237 
  437000    89.131957   -11773.689   -10890.019     695.3208     102002.7      46.7237      46.7237      46.7237 
  438000    91.566281   -11778.779   -10870.975    679.61426     102002.7      46.7237      46.7237      46.7237 
  439000    90.768537   -11790.151   -10890.256    826.50409     102002.7      46.7237      46.7237      46.7237 
  440000    92.243667   -11792.237   -10877.718    569.79113     102002.7      46.7237      46.7237      46.7237 
  441000    90.524945   -11796.581   -10899.101    760.91152     102002.7      46.7237      46.7237      46.7237 
  442000     91.48521   -11792.041   -10885.041    611.15683     102002.7      46.7237      46.7237      46.7237 
  443000    89.764671   -11804.226   -10914.284     953.0117     102002.7      46.7237      46.7237      46.7237 
  444000    90.341536   -11772.698   -10877.036    818.35834     102002.7      46.7237      46.7237      46.7237 
  445000    91.183245   -11798.134   -10894.127    522.72531     102002.7      46.7237      46.7237      46.7237 
  446000    93.308865   -11785.766   -10860.686     855.6316     102002.7      46.7237      46.7237      46.7237 
  447000    90.822642   -11796.886   -10896.454    564.01081     102002.7      46.7237      46.7237      46.7237 
  448000    91.289532   -11804.632   -10899.572     810.9891     102002.7      46.7237      46.7237      46.7237 
  449000    88.817779   -11802.885    -10922.33    628.23897     102002.7      46.7237      46.7237      46.7237 
  450000    89.977149    -11773.67   -10881.621    547.36008     102002.7      46.7237      46.7237      46.7237 
  451000    93.234092   -11801.463   -10877.124    826.23176     102002.7      46.7237      46.7237      46.7237 
  452000    91.458538   -11799.028   -10892.292    707.14438     102002.7      46.7237      46.7237      46.7237 
  453000    89.192686   -11778.625   -10894.353    362.45183     102002.7      46.7237      46.7237      46.7237 
  454000    91.407399    -11760.07   -10853.841    657.35578     102002.7      46.7237      46.7237      46.7237 
  455000      89.0654    -11780.68    -10897.67    582.49908     102002.7      46.7237      46.7237      46.7237 
  456000    90.497287   -11788.421   -10891.216    722.70152     102002.7      46.7237      46.7237      46.7237 
  457000    90.724511   -11772.184   -10872.725    866.09026     102002.7      46.7237      46.7237      46.7237 
  458000     90.32094    -11770.25   -10874.793    802.25913     102002.7      46.7237      46.7237      46.7237 
  459000    92.540242   -11799.058   -10881.598    867.60172     102002.7      46.7237      46.7237      46.7237 
  460000    93.065708   -11788.201   -10865.531    514.45875     102002.7      46.7237      46.7237      46.7237 
  461000    91.095487    -11792.98   -10889.844    621.27156     102002.7      46.7237      46.7237      46.7237 
  462000    91.673143   -11774.311   -10865.448    742.72175     102002.7      46.7237      46.7237      46.7237 
  463000    90.528367   -11802.498   -10904.984    658.54195     102002.7      46.7237      46.7237      46.7237 
  464000    90.722689   -11796.358   -10896.917    400.89392     102002.7      46.7237      46.7237      46.7237 
  465000    93.813595    -11813.63   -10883.546    734.44279     102002.7      46.7237      46.7237      46.7237 
  466000    91.726958    -11800.14   -10890.743    727.15827     102002.7      46.7237      46.7237      46.7237 
  467000    93.087762   -11795.431   -10872.543    611.10807     102002.7      46.7237      46.7237      46.7237 
  468000    90.459978   -11797.696    -10900.86    547.54366     102002.7      46.7237      46.7237      46.7237 
  469000    90.208489   -11784.129   -10889.787    681.83405     102002.7      46.7237      46.7237      46.7237 
  470000    90.253844   -11782.732    -10887.94    561.05972     102002.7      46.7237      46.7237      46.7237 
  471000    92.709557   -11782.903   -10863.765    676.32294     102002.7      46.7237      46.7237      46.7237 
  472000    92.489804   -11807.027   -10890.067    596.75234     102002.7      46.7237      46.7237      46.7237 
  473000    90.090706   -11782.354   -10889.179    893.72936     102002.7      46.7237      46.7237      46.7237 
  474000    91.379505   -11818.685   -10912.732    989.96744     102002.7      46.7237      46.7237      46.7237 
  475000    91.749947   -11791.102   -10881.477    663.04178     102002.7      46.7237      46.7237      46.7237 
  476000    88.569207   -11788.077   -10909.986    554.04171     102002.7      46.7237      46.7237      46.7237 
  477000    91.616456    -11788.04   -10879.739    648.78056     102002.7      46.7237      46.7237      46.7237 
  478000    91.998059   -11784.363   -10872.278    659.28941     102002.7      46.7237      46.7237      46.7237 
  479000    90.874461   -11774.246   -10873.301    651.67182     102002.7      46.7237      46.7237      46.7237 
  480000    91.881069   -11775.454    -10864.53    388.43808     102002.7      46.7237      46.7237      46.7237 
  481000     91.51786   -11816.662   -10909.338    607.40286     102002.7      46.7237      46.7237      46.7237 
  482000     91.49376   -11786.014   -10878.929    925.25393     102002.7      46.7237      46.7237      46.7237 
  483000    92.096692   -11821.755   -10908.692    870.93275     102002.7      46.7237      46.7237      46.7237 
  484000    90.015609    -11784.92    -10892.49    706.41164     102002.7      46.7237      46.7237      46.7237 
  485000    90.996384   -11784.394    -10882.24    639.89247     102002.7      46.7237      46.7237      46.7237 
  486000    89.942846   -11798.764   -10907.055    682.47654     102002.7      46.7237      46.7237      46.7237 
  487000    90.179862   -11778.992   -10884.933    808.64648     102002.7      46.7237      46.7237      46.7237 
  488000    90.002368   -11783.798   -10891.499    609.92092     102002.7      46.7237      46.7237      46.7237 
  489000    91.678561   -11810.654   -10901.737    567.14342     102002.7      46.7237      46.7237      46.7237 
  490000    93.572346   -11803.589   -10875.897     516.8612     102002.7      46.7237      46.7237      46.7237 
  491000    90.908978   -11800.698    -10899.41    676.66523     102002.7      46.7237      46.7237      46.7237 
  492000    90.404556   -11783.062   -10886.776    819.10884     102002.7      46.7237      46.7237      46.7237 
  493000    92.837795   -11801.356   -10880.946    774.71377     102002.7      46.7237      46.7237      46.7237 
  494000     92.34336   -11805.952   -10890.444    1073.8029     102002.7      46.7237      46.7237      46.7237 
  495000    89.880486   -11792.709   -10901.618    760.12527     102002.7      46.7237      46.7237      46.7237 
  496000    90.616589   -11795.738    -10897.35    708.18266     102002.7      46.7237      46.7237      46.7237 
  497000    91.021408   -11775.433   -10873.031    394.14225     102002.7      46.7237      46.7237      46.7237 
  498000    91.731138   -11798.362   -10888.923    603.96001     102002.7      46.7237      46.7237      46.7237 
  499000    89.956714   -11779.941   -10888.094    639.82113     102002.7      46.7237      46.7237      46.7237 
  500000    90.349037   -11779.558   -10883.822    885.61874     102002.7      46.7237      46.7237      46.7237 
  500500    90.632763   -11771.814   -10873.265    953.02766     102002.7      46.7237      46.7237      46.7237 
Loop time of 2056.83 on 16 procs for 500000 steps with 3327 atoms

Performance: 21.003 ns/day, 1.143 hours/ns, 243.093 timesteps/s
99.8% CPU use with 16 MPI tasks x no OpenMP threads

MPI task timing breakdown:
Section |  min time  |  avg time  |  max time  |%varavg| %total
---------------------------------------------------------------
Pair    | 808.04     | 1221.9     | 1666       | 594.6 | 59.41
Bond    | 127.1      | 174.94     | 218.56     | 170.9 |  8.51
Neigh   | 15.423     | 15.47      | 15.5       |   0.7 |  0.75
Comm    | 139.5      | 626.93     | 1089.1     | 910.3 | 30.48
Output  | 0.021659   | 0.022418   | 0.025468   |   0.6 |  0.00
Modify  | 9.5896     | 10.431     | 11.694     |  20.0 |  0.51
Other   |            | 7.134      |            |       |  0.35

Nlocal:    207.938 ave 240 max 180 min
Histogram: 2 1 2 3 1 1 2 1 2 1
Nghost:    4168.62 ave 4201 max 4132 min
Histogram: 1 2 3 1 0 1 2 1 2 3
Neighs:    11471.8 ave 17881 max 6946 min
Histogram: 2 2 3 1 2 1 2 2 0 1

Total # of neighbors = 183548
Ave neighs/atom = 55.1692
Ave special neighs/atom = 3.46258
Neighbor list builds = 4083
Dangerous builds = 0
Neighbor list info ...
  update every 1 steps, delay 10 steps, check yes
  max neighbors/atom: 2000, page size: 100000
  master list distance cutoff = 16
  ghost atom cutoff = 16
  binsize = 8, bins = 6 6 6
  3 neighbor lists, perpetual/occasional/extra = 3 0 0
  (1) pair buck6d/coul/gauss/dsf, perpetual, skip from (3)
      attributes: half, newton on
      pair build: skip
      stencil: none
      bin: none
  (2) pair lj/cut, perpetual, skip from (3)
      attributes: half, newton on
      pair build: skip
      stencil: none
      bin: none
  (3) neighbor class addition, perpetual
      attributes: half, newton on
      pair build: half/bin/newton
      stencil: half/bin/3d/newton
      bin: standard
Setting up Verlet run ...
  Unit style    : real
  Current step  : 500500
  Time step     : 1
WARNING: Inconsistent image flags (../domain.cpp:786)
Per MPI rank memory allocation (min/avg/max) = 22.8 | 23.13 | 23.45 Mbytes
Step Time TotEng KinEng PotEng E_mol E_pair Temp Pxx Pyy Pzz Pxy Pxz Pyz Cella Cellb Cellc CellAlpha CellBeta CellGamma Volume Press 
  500500       500000   -10873.265      898.549   -11771.814    4129.2688   -15901.083    90.632763     881.1939    796.85278    1181.0363   -39.120198   -254.56479   -85.722124      46.7237      46.7237      46.7237           90           90           90     102002.7    953.02766 
  501000       500500   -10889.614    914.92118   -11804.535     4127.314   -15931.849    92.284154    601.60203    992.41071    517.58301    99.965999   -181.53473    78.283896      46.7237      46.7237      46.7237           90           90           90     102002.7    703.86525 
  502000       501500   -10860.071    920.30976   -11780.381    4120.8025   -15901.183    92.827677    672.33182    575.89246    790.01031    153.62842      40.3794   -65.237322      46.7237      46.7237      46.7237           90           90           90     102002.7    679.41153 
  503000       502500   -10892.819    897.41256   -11790.232    4132.5281    -15922.76    90.518135    1276.0966    853.48049    311.98521    194.62842   -66.250137    59.934298      46.7237      46.7237      46.7237           90           90           90     102002.7    813.85409 
  504000       503500   -10878.137    896.21778   -11774.355    4131.4023   -15905.757    90.397622    613.32928    1143.4462    709.49612   -117.70351    135.84268    20.273696      46.7237      46.7237      46.7237           90           90           90     102002.7    822.09053 
  505000       504500   -10853.056    916.01084   -11769.067    4140.9027    -15909.97    92.394063    798.12213    295.11265    506.83655    49.120369   -116.34926    129.46509      46.7237      46.7237      46.7237           90           90           90     102002.7    533.35711 
  506000       505500   -10897.526    884.44036   -11781.967     4144.165   -15926.132    89.209685     377.3865    635.82021    425.07662    148.93142    91.403747   -47.538743      46.7237      46.7237      46.7237           90           90           90     102002.7    479.42777 
  507000       506500   -10895.585    913.89248   -11809.478    4114.7989   -15924.277    92.180394    869.68145     505.4715    825.65797    323.15699   -4.4524592   -71.731077      46.7237      46.7237      46.7237           90           90           90     102002.7    733.60364 
  508000       507500   -10895.257    901.91312    -11797.17    4138.7156   -15935.886    90.972087    802.33228     529.9434    478.83437     66.57488    -135.3939    30.073173      46.7237      46.7237      46.7237           90           90           90     102002.7    603.70335 
  509000       508500   -10910.538    884.57546   -11795.114    4119.7857   -15914.899    89.223312    584.06783    614.45762    949.12916    213.47691   -19.835996   -38.419347      46.7237      46.7237      46.7237           90           90           90     102002.7    715.88487 
  510000       509500   -10894.966    906.32933   -11801.296    4133.7053   -15935.001    91.417531    907.88136    887.85186    778.77695   -38.968551   -53.369032    279.78983      46.7237      46.7237      46.7237           90           90           90     102002.7    858.17006 
  511000       510500   -10901.777    902.96234    -11804.74    4109.8572   -15914.597    91.077917    668.45235     651.8648    1129.2009   -60.622009    39.659659   -134.28975      46.7237      46.7237      46.7237           90           90           90     102002.7    816.50601 
  512000       511500   -10901.105    903.92803   -11805.033    4108.1172    -15913.15    91.175322    692.71001    818.27395    687.47342    198.45411   -8.4786149   -274.87162      46.7237      46.7237      46.7237           90           90           90     102002.7    732.81912 
  513000       512500   -10865.565     902.7691   -11768.334    4132.3224   -15900.656    91.058426    545.35824    1293.2972    1029.6472    235.25371   -53.390204   -12.354345      46.7237      46.7237      46.7237           90           90           90     102002.7    956.10088 
  514000       513500    -10893.34     908.2166   -11801.556    4111.8373   -15913.394    91.607892    602.88949    809.90917    975.19987   -61.905605    89.639118   -56.024219      46.7237      46.7237      46.7237           90           90           90     102002.7    795.99951 
  515000       514500   -10909.534    897.36093   -11806.895    4121.8135   -15928.709    90.512927    439.71853    745.55252    584.71291    61.757416   -60.958738    186.11009      46.7237      46.7237      46.7237           90           90           90     102002.7    589.99465 
  516000       515500    -10885.92    893.72183   -11779.642    4127.2471   -15906.889    90.145867    964.32057     741.0706    806.19924   -35.161963     50.09582    75.968393      46.7237      46.7237      46.7237           90           90           90     102002.7     837.1968 
  517000       516500   -10901.267    880.29167   -11781.559    4149.3869   -15930.946    88.791224    521.88542    726.77048    734.56092   -110.39777    42.966757   -242.66812      46.7237      46.7237      46.7237           90           90           90     102002.7    661.07227 
  518000       517500   -10884.324     909.2967   -11793.621    4122.8771   -15916.498    91.716837     1136.714     642.9585    1078.2677     5.090681    18.366199    262.56792      46.7237      46.7237      46.7237           90           90           90     102002.7    952.64674 
  519000       518500   -10912.258    889.55346   -11801.811    4136.3899   -15938.201    89.725421    1165.7356     1055.205      1192.48   -64.045554   -209.17537    55.669471      46.7237      46.7237      46.7237           90           90           90     102002.7    1137.8069 
  520000       519500   -10870.152    909.96571   -11780.118    4137.2975   -15917.416    91.784317    729.87333    1074.0708    889.49548    91.795899    228.48418   -66.336217      46.7237      46.7237      46.7237           90           90           90     102002.7    897.81321 
  521000       520500   -10877.726    909.89847   -11787.625    4133.0231   -15920.648    91.777535    608.19876    586.22222    475.90205     -165.782   -133.50671   -72.347726      46.7237      46.7237      46.7237           90           90           90     102002.7    556.77435 
  522000       521500    -10912.92    898.39511   -11811.315    4116.4564   -15927.771     90.61724    872.26779    438.57253    916.77491   -299.37263    108.68518    10.025973      46.7237      46.7237      46.7237           90           90           90     102002.7    742.53841 
  523000       522500    -10879.58    902.18893   -11781.769    4140.4643   -15922.233    90.999907    626.92492    844.04868     652.9946    86.020801    128.66124   -29.665085      46.7237      46.7237      46.7237           90           90           90     102002.7     707.9894 
  524000       523500   -10893.988     889.3231   -11783.311    4123.7426   -15907.054    89.702186    1012.3269    606.82399    691.08337   -172.77338   -43.952919    84.133171      46.7237      46.7237      46.7237           90           90           90     102002.7     770.0781 
  525000       524500   -10865.168    917.33536   -11782.503    4144.8063   -15927.309    92.527661    808.84679    540.25247    1050.2658   -79.685104    -58.05204    155.96961      46.7237      46.7237      46.7237           90           90           90     102002.7    799.78836 
  526000       525500   -10902.408    909.42714   -11811.835    4111.6587   -15923.494    91.729994    650.38221    352.67691    529.82387    162.56782   -156.46297   -97.535175      46.7237      46.7237      46.7237           90           90           90     102002.7      510.961 
  527000       526500   -10883.278    897.50564   -11780.784    4147.7327   -15928.517    90.527523    965.86304    670.75767    855.30579    253.62868   -7.1082281   -258.52183      46.7237      46.7237      46.7237           90           90           90     102002.7    830.64217 
  528000       527500   -10888.497    898.26288    -11786.76    4113.5236   -15900.284    90.603903    939.79309    513.87983    796.63637    241.08588   -26.004888    127.28908      46.7237      46.7237      46.7237           90           90           90     102002.7     750.1031 
  529000       528500   -10860.508    917.32591   -11777.834    4144.6131   -15922.447    92.526708    546.44606    899.88124    688.13738    68.859376   -121.63589    -152.8237      46.7237      46.7237      46.7237           90           90           90     102002.7    711.48823 
  530000       529500   -10858.787    913.32011   -11772.107    4133.2619   -15905.369    92.122661     572.7796    825.59776    614.26757   -227.26485    -30.24564    66.437893      46.7237      46.7237      46.7237           90           90           90     102002.7    670.88164 
  531000       530500   -10908.529    898.77664   -11807.306    4126.9365   -15934.243    90.655724     368.2694    677.31326    357.81833    155.44488    114.53472   -50.541815      46.7237      46.7237      46.7237           90           90           90     102002.7    467.80033 
  532000       531500   -10903.794    893.34865   -11797.143     4117.891   -15915.034    90.108225     790.0684    1012.2062    816.30545    30.831839    22.562564   -87.512514      46.7237      46.7237      46.7237           90           90           90     102002.7    872.86002 
  533000       532500    -10892.78    907.14485   -11799.925    4111.5349    -15911.46    91.499789    962.23086    850.29499    1280.0137    144.12718    -114.9377     123.4009      46.7237      46.7237      46.7237           90           90           90     102002.7    1030.8465 
  534000       533500   -10931.682    877.10043   -11808.783    4116.7669    -15925.55    88.469338    726.17166    931.59507    357.79428    1.4135851    12.805219   -84.604135      46.7237      46.7237      46.7237           90           90           90     102002.7    671.85367 
  535000       534500   -10855.182    937.10859   -11792.291    4129.3478   -15921.638    94.522103    836.39849    481.07922    811.94023   -150.06504    166.57877   -89.176442      46.7237      46.7237      46.7237           90           90           90     102002.7    709.80598 
  536000       535500   -10894.668    908.36306   -11803.031    4129.0395   -15932.071    91.622665    585.18322    554.87304    708.72109   -310.81664   -18.060709    35.051671      46.7237      46.7237      46.7237           90           90           90     102002.7    616.25912 
  537000       536500   -10894.138    902.02383   -11796.162    4122.7599   -15918.922    90.983254    807.56692    300.48463    365.84553    296.39698    218.59973    59.921252      46.7237      46.7237      46.7237           90           90           90     102002.7    491.29903 
  538000       537500   -10882.317    894.73377    -11777.05    4133.7989   -15910.849    90.247937    775.21497    273.29865    1036.4378    16.486106    5.9752954    134.87234      46.7237      46.7237      46.7237           90           90           90     102002.7    694.98381 
  539000       538500    -10913.55    890.88114   -11804.431    4122.0031   -15926.434    89.859338    539.10536    567.78016     416.3056   -181.15071   -118.83904     153.6917      46.7237      46.7237      46.7237           90           90           90     102002.7    507.73037 
  540000       539500   -10901.618    898.84173    -11800.46    4114.4919   -15914.951    90.662289    642.81475    521.66987    535.80087     125.9081   -184.46391   -113.07764      46.7237      46.7237      46.7237           90           90           90     102002.7    566.76183 
  541000       540500   -10879.759    899.65995   -11779.419    4131.6394   -15911.058     90.74482    385.63663    795.17981    771.32078   0.19851027   -76.008942   -66.419654      46.7237      46.7237      46.7237           90           90           90     102002.7    650.71241 
  542000       541500   -10919.263    890.87445   -11810.138    4122.7028   -15932.841    89.858664    1183.2073    410.23706     567.8962    284.07559    74.244753   -94.566744      46.7237      46.7237      46.7237           90           90           90     102002.7    720.44684 
  543000       542500   -10890.844    889.85239   -11780.697    4149.1316   -15929.828    89.755574     1009.731    889.52675    561.62106   -143.25621    141.61871   -144.23787      46.7237      46.7237      46.7237           90           90           90     102002.7    820.29293 
  544000       543500   -10895.691    901.13825   -11796.829    4127.7038   -15924.533    90.893929    273.87179    473.41572    825.51031    20.008362   -116.36021   -77.280903      46.7237      46.7237      46.7237           90           90           90     102002.7    524.26594 
  545000       544500    -10889.43    901.74547   -11791.176    4132.6696   -15923.845    90.955177    843.23115    500.36553    829.53608   -4.9859186    119.24528   -64.821088      46.7237      46.7237      46.7237           90           90           90     102002.7    724.37759 
  546000       545500    -10892.07    883.23277   -11775.303    4132.0227   -15907.326    89.087881    1258.8193    520.09646    1040.3414    35.490922   -118.86878     31.13137      46.7237      46.7237      46.7237           90           90           90     102002.7    939.75237 
  547000       546500   -10895.347    924.38533   -11819.733    4123.6331   -15943.366    93.238762    272.65461    402.40916    901.47189   -365.83066   -68.051201   -155.32457      46.7237      46.7237      46.7237           90           90           90     102002.7    525.51189 
  548000       547500   -10897.113    907.35553   -11804.468     4102.223   -15906.691    91.521039    923.02283    67.353273    485.68846   -41.398799    37.443184    155.89936      46.7237      46.7237      46.7237           90           90           90     102002.7    492.02152 
  549000       548500   -10903.657    878.76327   -11782.421    4147.3464   -15929.767    88.637062    705.25478    361.68339    784.31705    14.107834    51.915118   -147.25656      46.7237      46.7237      46.7237           90           90           90     102002.7    617.08507 
  550000       549500   -10881.516     916.8336   -11798.349    4131.1093   -15929.459    92.477051    778.81269     331.4105    381.75059   -86.250329   -176.62023   -24.668794      46.7237      46.7237      46.7237           90           90           90     102002.7     497.3246 
  551000       550500   -10879.817    899.61457   -11779.432    4146.6001   -15926.032    90.740242    920.95398    333.95469    910.87266   -238.90122    40.963672    133.38712      46.7237      46.7237      46.7237           90           90           90     102002.7    721.92711 
  552000       551500   -10908.159    885.20192   -11793.361    4132.2212   -15925.582    89.286501    353.33747    821.37592    910.04902    47.424914   -139.03121   -146.15538      46.7237      46.7237      46.7237           90           90           90     102002.7     694.9208 
  553000       552500   -10896.041    892.14545   -11788.187    4132.4426   -15920.629    89.986864    952.75894    704.06121    421.86944   -80.632195   -87.331739   -229.40208      46.7237      46.7237      46.7237           90           90           90     102002.7    692.89653 
  554000       553500   -10894.154    895.06001   -11789.214    4129.4992   -15918.713    90.280843    778.33084    817.13566    609.55347     63.37902    61.996753    -183.1264      46.7237      46.7237      46.7237           90           90           90     102002.7    735.00666 
  555000       554500   -10883.157    916.30494   -11799.462    4137.1167   -15936.578    92.423728    429.17505    747.40044    647.20855    26.188484    54.335674   -114.73526      46.7237      46.7237      46.7237           90           90           90     102002.7    607.92801 
[...]
  936000       935500   -10902.768    884.10363   -11786.872    4119.8703   -15906.742     89.17572    223.21167    690.61542    771.33261    38.571036    144.32461    101.56567      46.7237      46.7237      46.7237           90           90           90     102002.7     561.7199 
  937000       936500   -10862.721    903.80814   -11766.529    4141.2172   -15907.746     91.16323    944.61497    1211.3228     709.3382    103.38702    204.51987   -30.334278      46.7237      46.7237      46.7237           90           90           90     102002.7    955.09199 
  938000       937500   -10890.675    906.09228   -11796.768    4114.3737   -15911.141    91.393621    411.11427    648.28032    235.83065   -211.36892   -147.28617   -22.668137      46.7237      46.7237      46.7237           90           90           90     102002.7    431.74175 
  939000       938500   -10881.797    900.36938   -11782.166    4151.5176   -15933.684    90.816377    459.92046    684.74092    28.902958    101.86502   -1.0592583   -216.18386      46.7237      46.7237      46.7237           90           90           90     102002.7    391.18811 
  940000       939500   -10884.166    909.72301   -11793.889    4130.6066   -15924.495    91.759837     1340.864    1129.2599    893.84895    150.71218   -72.749926   -32.385296      46.7237      46.7237      46.7237           90           90           90     102002.7    1121.3243 
  941000       940500   -10887.197    911.98253   -11799.179    4120.8526   -15920.032    91.987745    892.68338    795.73787    758.92132   -86.039571    -102.4767    86.686174      46.7237      46.7237      46.7237           90           90           90     102002.7    815.78086 
  942000       941500   -10869.646    914.77612   -11784.422    4131.5898   -15916.012    92.269522    632.41899    489.53589    800.53749    -129.7075   -103.22222    85.469455      46.7237      46.7237      46.7237           90           90           90     102002.7    640.83079 
  943000       942500   -10890.697    907.51973   -11798.217    4123.4124   -15921.629    91.537602    593.81173    894.72256    1156.8511    -249.9307   -46.815803   -370.32472      46.7237      46.7237      46.7237           90           90           90     102002.7    881.79512 
  944000       943500   -10854.526    926.60295   -11781.129     4126.656   -15907.785    93.462444    714.14436    715.06203     1045.497    77.798688   -263.71079   -75.685992      46.7237      46.7237      46.7237           90           90           90     102002.7    824.90112 
  945000       944500     -10882.5    895.14903   -11777.649    4136.8441   -15914.493    90.289822    827.64321    979.86725    826.42568   -82.051906   -90.132168   -169.25052      46.7237      46.7237      46.7237           90           90           90     102002.7    877.97871 
  946000       945500   -10898.011    890.96875   -11788.979    4128.1859   -15917.165    89.868176    453.47487    751.10989    692.09224     331.0359   -109.20007    -17.07616      46.7237      46.7237      46.7237           90           90           90     102002.7    632.22567 
  947000       946500   -10900.117    908.47679   -11808.594    4118.2528   -15926.846    91.634136    291.27834      644.654    711.22255   -70.784031    326.95316    19.688038      46.7237      46.7237      46.7237           90           90           90     102002.7    549.05163 
  948000       947500   -10903.284    888.81445   -11792.099    4143.2652   -15935.364    89.650881    525.46132    466.44798    544.14435     243.6419   -154.64943    42.012108      46.7237      46.7237      46.7237           90           90           90     102002.7    512.01788 
  949000       948500   -10907.902    900.20274   -11808.105    4124.3374   -15932.442    90.799568    1005.4632    875.26691    509.58126    -113.1306   -101.82128    5.0718052      46.7237      46.7237      46.7237           90           90           90     102002.7    796.77047 
  950000       949500   -10861.871     914.0299   -11775.901    4132.6657   -15908.567    92.194254    808.79958    500.33724    282.01977    -11.99021    -163.5396   -72.032835      46.7237      46.7237      46.7237           90           90           90     102002.7    530.38553 
  951000       950500   -10915.084    890.15157   -11805.236    4135.2048   -15940.441     89.78575    731.60238    720.90457    875.42354   -4.2597339    93.045827   -314.90942      46.7237      46.7237      46.7237           90           90           90     102002.7    775.97683 
  952000       951500   -10887.716    913.97842   -11801.695    4130.6297   -15932.324    92.189062    413.41995    494.17162    775.86805   -321.93167   -84.564103    23.545524      46.7237      46.7237      46.7237           90           90           90     102002.7    561.15321 
  953000       952500   -10862.993    917.39066   -11780.383    4140.1474   -15920.531    92.533239    582.15184    865.81564    1032.8257   -47.492344    53.142446    28.055742      46.7237      46.7237      46.7237           90           90           90     102002.7    826.93105 
  954000       953500   -10881.454    913.92874   -11795.383    4119.5591   -15914.942    92.184051    645.10022    720.92438    563.60931   -4.2467699   -268.89981    87.364064      46.7237      46.7237      46.7237           90           90           90     102002.7     643.2113 
  955000       954500   -10875.489    911.97439   -11787.463    4133.2412   -15920.704    91.986924    551.78808    1015.5256    936.81343   -23.622176     123.4336    81.855361      46.7237      46.7237      46.7237           90           90           90     102002.7    834.70903 
  956000       955500   -10897.167    903.28166   -11800.448     4127.644   -15928.092    91.110126    535.61171    634.91745      565.937   -129.98849   -44.235306   -142.13003      46.7237      46.7237      46.7237           90           90           90     102002.7    578.82205 
  957000       956500   -10901.462    911.39189   -11812.854    4132.5871   -15945.441     91.92817    385.47255    568.55791    601.54104   -116.84556     169.0478     1.072723      46.7237      46.7237      46.7237           90           90           90     102002.7    518.52383 
  958000       957500   -10873.806    914.34578   -11788.151    4119.0482     -15907.2    92.226116    586.53412    739.17504    530.88104      96.6199    221.85731     85.19328      46.7237      46.7237      46.7237           90           90           90     102002.7     618.8634 
  959000       958500   -10890.956    916.51492   -11807.471    4124.6575   -15932.129    92.444908    909.11216    770.07522    869.13208    86.057043    53.026375   -13.684513      46.7237      46.7237      46.7237           90           90           90     102002.7    849.43982 
  960000       959500   -10914.341    898.02225   -11812.363    4124.3174   -15936.681    90.579632    673.99011    934.51683    541.76025    133.19852    196.21438   -32.036387      46.7237      46.7237      46.7237           90           90           90     102002.7    716.75573 
  961000       960500   -10878.199     905.3496   -11783.549    4129.0313    -15912.58     91.31871    969.52511    1030.9048    1056.6477   -132.97867    180.41707    34.242319      46.7237      46.7237      46.7237           90           90           90     102002.7    1019.0259 
  962000       961500   -10886.197    913.42628   -11799.623    4129.7343   -15929.358     92.13337    757.02049    936.83556    535.08674    132.69919   -58.852236   -128.97785      46.7237      46.7237      46.7237           90           90           90     102002.7    742.98093 
  963000       962500   -10928.846     887.4946    -11816.34    4106.4323   -15922.773    89.517753    614.12122    1167.3167    545.55944    147.56129   -232.24245    416.15379      46.7237      46.7237      46.7237           90           90           90     102002.7    775.66579 
  964000       963500   -10879.179    915.68483   -11794.864     4125.976    -15920.84     92.36118     484.9384    847.32293    918.45281    346.32044    137.78897    265.99256      46.7237      46.7237      46.7237           90           90           90     102002.7    750.23805 
  965000       964500   -10881.378    920.55331   -11801.931    4128.5678   -15930.499    92.852243    233.21212    524.35761    725.74379     -172.087    99.920017    414.63816      46.7237      46.7237      46.7237           90           90           90     102002.7    494.43784 
  966000       965500   -10891.039    896.86149     -11787.9    4134.5417   -15922.442     90.46255    542.31062    440.48936    882.28887    131.32092    157.75734    59.043553      46.7237      46.7237      46.7237           90           90           90     102002.7    621.69629 
  967000       966500   -10873.318    902.20831   -11775.526    4137.7857   -15913.312    91.001861    440.62134    696.49721    934.45221    131.75252    113.38763   -1.6308838      46.7237      46.7237      46.7237           90           90           90     102002.7    690.52359 
  968000       967500   -10901.841    893.39719   -11795.238    4133.6546   -15928.892    90.113122    855.49812    488.92011    857.57762    55.705816    37.682922    97.892098      46.7237      46.7237      46.7237           90           90           90     102002.7    733.99862 
  969000       968500    -10916.44    887.24903   -11803.689    4125.8303    -15929.52    89.492984    478.85265    561.90881    860.77018    -62.36166   -31.130459   -26.484553      46.7237      46.7237      46.7237           90           90           90     102002.7    633.84388 
  970000       969500   -10913.756    905.21034   -11818.967     4112.586   -15931.553    91.304664     482.1347    1120.5883    685.70552   -63.271239    45.882877    80.673974      46.7237      46.7237      46.7237           90           90           90     102002.7     762.8095 
  971000       970500   -10935.275    870.88833   -11806.164    4109.1056   -15915.269     87.84275    584.98997    788.66646    531.94686     34.40807    279.10711    286.27027      46.7237      46.7237      46.7237           90           90           90     102002.7    635.20109 
  972000       971500   -10922.563    897.34671    -11819.91    4119.4656   -15939.375    90.511493    586.04382     697.7137    288.68194   -40.076602   -22.763022   -25.929252      46.7237      46.7237      46.7237           90           90           90     102002.7    524.14649 
  973000       972500     -10902.6    906.84743   -11809.448    4127.3143   -15936.762     91.46979    928.05117    1208.4375    1047.7421   -60.469199    13.472893   -177.70766      46.7237      46.7237      46.7237           90           90           90     102002.7    1061.4103 
  974000       973500   -10875.936     913.3837    -11789.32    4129.4868   -15918.807    92.129075    606.57297    1381.2664    710.92438    25.596827   -134.00105   -62.675587      46.7237      46.7237      46.7237           90           90           90     102002.7    899.58792 
  975000       974500   -10891.574    894.99582    -11786.57    4134.4844   -15921.054    90.274369    262.85975    840.39061    688.07002   -15.310772    177.09904    14.444958      46.7237      46.7237      46.7237           90           90           90     102002.7    597.10679 
  976000       975500   -10890.725    904.84485    -11795.57    4117.9237   -15913.494    91.267798    998.19161    907.06774    819.94962   -50.696841    271.69222    247.47366      46.7237      46.7237      46.7237           90           90           90     102002.7    908.40299 
  977000       976500   -10882.908     909.8713   -11792.779    4139.5751   -15932.354    91.774795    714.93763    555.13756    754.35657   -170.76356    223.15059   -134.11893      46.7237      46.7237      46.7237           90           90           90     102002.7    674.81059 
  978000       977500   -10910.226    888.43094   -11798.657      4130.98   -15929.637    89.612198    484.54949    375.09857    115.18981    29.221479   -11.532756   -162.61659      46.7237      46.7237      46.7237           90           90           90     102002.7    324.94596 
  979000       978500   -10899.601    912.88899    -11812.49      4117.57    -15930.06    92.079176    788.88199    1083.4265     1035.683   -84.345468    14.406136    29.547509      46.7237      46.7237      46.7237           90           90           90     102002.7    969.33049 
  980000       979500   -10898.639    905.55875   -11804.198    4118.7445   -15922.942    91.339806    739.09792    646.73558    716.20401    119.07476   -78.762596   -19.067235      46.7237      46.7237      46.7237           90           90           90     102002.7    700.67917 
  981000       980500   -10868.579    924.43444   -11793.013    4119.2331   -15912.246    93.243716    880.98748    754.47951    358.67524    146.09505    79.332763    110.79857      46.7237      46.7237      46.7237           90           90           90     102002.7    664.71408 
  982000       981500   -10895.314    904.06871   -11799.383    4108.1418   -15907.525    91.189512    656.05475    476.55064    833.95398   -12.803885    -60.81016   -116.05418      46.7237      46.7237      46.7237           90           90           90     102002.7    655.51979 
  983000       982500     -10880.7    908.04169   -11788.742    4137.2663   -15926.008    91.590249     902.7148    928.91428    586.83913   -184.49591    20.459923   -101.60015      46.7237      46.7237      46.7237           90           90           90     102002.7    806.15607 
  984000       983500   -10883.121    915.55562   -11798.676    4113.7785   -15912.455    92.348147    490.91418    677.34281    723.31424    -205.7754    53.141141   -84.694839      46.7237      46.7237      46.7237           90           90           90     102002.7    630.52374 
  985000       984500   -10890.991    917.18695   -11808.178    4115.8817   -15924.059    92.512693    637.70185    657.77792    845.02148   -44.319304    -89.95693   -145.06535      46.7237      46.7237      46.7237           90           90           90     102002.7    713.50042 
  986000       985500   -10896.885    903.74229   -11800.628    4148.3492   -15948.977    91.156588     638.1449     467.6724    870.32873   -112.40471   -86.425374   -105.12976      46.7237      46.7237      46.7237           90           90           90     102002.7    658.71535 
  987000       986500   -10931.381    871.93526   -11803.316    4136.2507   -15939.567     87.94835    1150.7313    311.16416    1238.7714    77.490832   -77.442792    80.840652      46.7237      46.7237      46.7237           90           90           90     102002.7     900.2223 
  988000       987500    -10916.73    873.78926    -11790.52    4132.5401    -15923.06    88.135354    471.48795    89.442957    908.09426   -99.881576   -35.868835   -2.7101261      46.7237      46.7237      46.7237           90           90           90     102002.7    489.67505 
  989000       988500   -10889.933    922.82488   -11812.758    4134.1013   -15946.859    93.081366    487.50071    766.71307    673.86698    65.410614    43.465139    197.17818      46.7237      46.7237      46.7237           90           90           90     102002.7    642.69359 
  990000       989500   -10923.991    859.64832   -11783.639    4131.2843   -15914.923    86.709019    1188.7871    880.89524    1048.8405     21.77507   -47.055021    117.63515      46.7237      46.7237      46.7237           90           90           90     102002.7    1039.5076 
  991000       990500   -10883.714    901.82562   -11785.539     4106.515   -15892.054    90.963261    935.79894    1221.8659    513.40405  -0.27075449   0.45806874    -155.9132      46.7237      46.7237      46.7237           90           90           90     102002.7    890.35631 
  992000       991500    -10887.38    904.43779   -11791.818    4115.5695   -15907.388     91.22674    799.60146    989.68991    783.52324    -156.5434   -55.416538     13.00663      46.7237      46.7237      46.7237           90           90           90     102002.7    857.60487 
  993000       992500   -10915.717    897.81542   -11813.532    4113.8682   -15927.401    90.558769    974.45445     491.1033    683.26202   -98.675482   -12.798753   -1.9050639      46.7237      46.7237      46.7237           90           90           90     102002.7    716.27326 
  994000       993500   -10900.565    909.26773   -11809.833    4128.5711   -15938.404    91.713915    779.42863    575.30545    592.52292    20.854613    102.15529   -37.864211      46.7237      46.7237      46.7237           90           90           90     102002.7    649.08566 
  995000       994500   -10873.114    937.85715   -11810.971    4095.4598   -15906.431    94.597606     1126.845   -4.0838929    392.79782    193.88819     64.56339   -131.03661      46.7237      46.7237      46.7237           90           90           90     102002.7     505.1863 
  996000       995500   -10897.431     888.2805   -11785.711    4120.0438   -15905.755    89.597023    921.55503    966.28311    912.48234   -108.22631   -12.783646    200.89357      46.7237      46.7237      46.7237           90           90           90     102002.7    933.44016 
  997000       996500   -10889.998    912.21476   -11802.213    4114.4994   -15916.712    92.011169    777.41007    819.86888    978.22091     229.7542   -98.458626    138.35988      46.7237      46.7237      46.7237           90           90           90     102002.7    858.49995 
  998000       997500    -10901.25     896.7979   -11798.048    4136.2553   -15934.303    90.456137    572.41792    764.88725    247.21408    231.50562    7.8106151   -67.144041      46.7237      46.7237      46.7237           90           90           90     102002.7    528.17309 
  999000       998500   -10860.152    919.18081   -11779.333    4118.7008   -15898.033    92.713805    661.15768    1080.7413    1087.6682   -41.025138   -120.30045    47.000574      46.7237      46.7237      46.7237           90           90           90     102002.7    943.18904 
 1000000       999500   -10887.877    922.03768   -11809.914    4122.6266   -15932.541    93.001964    605.97626     303.4762       679.36    99.708507     161.9873   -76.780912      46.7237      46.7237      46.7237           90           90           90     102002.7    529.60415 
 1000500      1000000   -10892.538    905.64322   -11798.181    4128.7742   -15926.956    91.348327    605.24076    581.44733    607.40319   -16.068284     46.23539   -160.89262      46.7237      46.7237      46.7237           90           90           90     102002.7    598.03043 
Loop time of 2474.65 on 16 procs for 500000 steps with 3327 atoms

Performance: 17.457 ns/day, 1.375 hours/ns, 202.049 timesteps/s
99.8% CPU use with 16 MPI tasks x no OpenMP threads

MPI task timing breakdown:
Section |  min time  |  avg time  |  max time  |%varavg| %total
---------------------------------------------------------------
Pair    | 1037.1     | 1548.7     | 2059.1     | 636.6 | 62.58
Bond    | 125.91     | 184.37     | 231.88     | 206.3 |  7.45
Neigh   | 15.333     | 15.369     | 15.394     |   0.5 |  0.62
Comm    | 139.52     | 694.16     | 1264.7     |1043.1 | 28.05
Output  | 0.13561    | 0.14191    | 0.14256    |   0.4 |  0.01
Modify  | 24.002     | 24.869     | 25.769     |  11.7 |  1.00
Other   |            | 7.034      |            |       |  0.28

Nlocal:    207.938 ave 238 max 173 min
Histogram: 2 0 3 1 2 1 1 2 1 3
Nghost:    4165.38 ave 4197 max 4135 min
Histogram: 2 2 1 2 1 2 1 0 3 2
Neighs:    11466.6 ave 17492 max 6806 min
Histogram: 2 3 1 3 2 0 1 0 2 2

Total # of neighbors = 183466
Ave neighs/atom = 55.1446
Ave special neighs/atom = 3.46258
Neighbor list builds = 4063
Dangerous builds = 0
Total wall time: 1:15:36
