LAMMPS (30 Mar 2018)
Reading data file ...
  orthogonal box = (0 0 0) to (46.7237 46.7237 46.7237)
  2 by 3 by 4 MPI processor grid
  reading atoms ...
  2750 atoms
  scanning bonds ...
  5 = max bonds/atom
  scanning angles ...
  10 = max angles/atom
  scanning dihedrals ...
  32 = max dihedrals/atom
  scanning impropers ...
  3 = max impropers/atom
  reading bonds ...
  2064 bonds
  reading angles ...
  3696 angles
  reading dihedrals ...
  6240 dihedrals
  reading impropers ...
  1008 impropers
Finding 1-2 1-3 1-4 neighbors ...
  special bond factors lj:   0          0          0         
  special bond factors coul: 0          0          0         
  5 = max # of 1-2 neighbors
  8 = max # of 1-3 neighbors
  20 = max # of 1-4 neighbors
  19 = max # of special neighbors
Finding 1-2 1-3 1-4 neighbors ...
  special bond factors lj:   0          0          1         
  special bond factors coul: 1          1          1         
  5 = max # of 1-2 neighbors
  8 = max # of 1-3 neighbors
  19 = max # of special neighbors
WARNING: Using 'neigh_modify every 1 delay 0 check yes' setting during minimization (../min.cpp:168)
Neighbor list info ...
  update every 1 steps, delay 0 steps, check yes
  max neighbors/atom: 2000, page size: 100000
  master list distance cutoff = 16
  ghost atom cutoff = 16
  binsize = 8, bins = 6 6 6
  3 neighbor lists, perpetual/occasional/extra = 3 0 0
  (1) pair buck6d/coul/gauss/dsf, perpetual, skip from (3)
      attributes: half, newton on
      pair build: skip
      stencil: none
      bin: none
  (2) pair lj/cut, perpetual, skip from (3)
      attributes: half, newton on
      pair build: skip
      stencil: none
      bin: none
  (3) neighbor class addition, perpetual
      attributes: half, newton on
      pair build: half/bin/newton
      stencil: half/bin/3d/newton
      bin: standard
Setting up cg style minimization ...
  Unit style    : real
  Current step  : 0
WARNING: Inconsistent image flags (../domain.cpp:786)
Per MPI rank memory allocation (min/avg/max) = 22.94 | 23.35 | 24.49 Mbytes
Step Temp E_pair E_mol TotEng Press 
       0            0   -14141.848    6482.8914   -7658.9565    5748.4496 
     500            0   -14534.669    3734.1575   -10800.511   -1385.6132 
Loop time of 1.75557 on 24 procs for 500 steps with 2750 atoms

98.2% CPU use with 24 MPI tasks x no OpenMP threads

Minimization stats:
  Stopping criterion = max force evaluations
  Energy initial, next-to-last, final = 
        -7658.95645238     -10800.3051867      -10800.511338
  Force two-norm initial, final = 2574.9 19.5609
  Force max component initial, final = 152.078 2.77802
  Final line search alpha, max atom move = 0.00365473 0.0101529
  Iterations, force evaluations = 500 1000

MPI task timing breakdown:
Section |  min time  |  avg time  |  max time  |%varavg| %total
---------------------------------------------------------------
Pair    | 0.73719    | 0.9406     | 1.2105     |  13.0 | 53.58
Bond    | 0.12172    | 0.15798    | 0.19034    |   5.5 |  9.00
Neigh   | 0.01781    | 0.018391   | 0.018809   |   0.3 |  1.05
Comm    | 0.31275    | 0.60383    | 0.81475    |  17.2 | 34.40
Output  | 0          | 0          | 0          |   0.0 |  0.00
Modify  | 0          | 0          | 0          |   0.0 |  0.00
Other   |            | 0.03477    |            |       |  1.98

Nlocal:    114.583 ave 136 max 88 min
Histogram: 1 1 4 2 2 3 3 1 4 3
Nghost:    3098.29 ave 3281 max 2997 min
Histogram: 9 7 0 0 0 0 0 1 4 3
Neighs:    7652.54 ave 12806 max 4604 min
Histogram: 4 4 4 4 1 0 4 1 0 2

Total # of neighbors = 183661
Ave neighs/atom = 66.7858
Ave special neighs/atom = 4.18909
Neighbor list builds = 14
Dangerous builds = 0
Neighbor list info ...
  update every 1 steps, delay 10 steps, check yes
  max neighbors/atom: 2000, page size: 100000
  master list distance cutoff = 16
  ghost atom cutoff = 16
  binsize = 8, bins = 6 6 6
  3 neighbor lists, perpetual/occasional/extra = 3 0 0
  (1) pair buck6d/coul/gauss/dsf, perpetual, skip from (3)
      attributes: half, newton on
      pair build: skip
      stencil: none
      bin: none
  (2) pair lj/cut, perpetual, skip from (3)
      attributes: half, newton on
      pair build: skip
      stencil: none
      bin: none
  (3) neighbor class addition, perpetual
      attributes: half, newton on
      pair build: half/bin/newton
      stencil: half/bin/3d/newton
      bin: standard
Setting up Verlet run ...
  Unit style    : real
  Current step  : 500
  Time step     : 1
WARNING: Inconsistent image flags (../domain.cpp:786)
Per MPI rank memory allocation (min/avg/max) = 22.59 | 22.76 | 23.37 Mbytes
Step Temp PotEng TotEng Press Volume Lx Ly Lz 
     500          110   -10800.511   -9899.1442   -981.66757     102002.7      46.7237      46.7237      46.7237 
    1000    93.871305   -10042.236   -9273.0315    -744.5591     102002.7      46.7237      46.7237      46.7237 
    2000    113.03751   -9835.3356   -8909.0783   -996.90526     102002.7      46.7237      46.7237      46.7237 
    3000    110.74786   -9850.3585   -8942.8631   -1069.5337     102002.7      46.7237      46.7237      46.7237 
    4000    110.59482   -9824.2326   -8917.9913   -628.83007     102002.7      46.7237      46.7237      46.7237 
    5000    110.02387   -9802.0526   -8900.4898   -907.21076     102002.7      46.7237      46.7237      46.7237 
    6000    111.79764   -9812.6893   -8896.5919   -518.50537     102002.7      46.7237      46.7237      46.7237 
    7000    111.86762   -9839.1067   -8922.4358   -1068.5036     102002.7      46.7237      46.7237      46.7237 
    8000    109.93702   -9857.9387   -8957.0877   -1201.9756     102002.7      46.7237      46.7237      46.7237 
    9000    110.96427    -9828.297   -8919.0284   -866.71577     102002.7      46.7237      46.7237      46.7237 
   10000    109.35082   -9855.1443   -8959.0967   -831.02386     102002.7      46.7237      46.7237      46.7237 
   11000    111.95845   -9815.2826   -8897.8674   -886.19187     102002.7      46.7237      46.7237      46.7237 
   12000    110.94566   -9822.2074   -8913.0913   -867.27625     102002.7      46.7237      46.7237      46.7237 
   13000    106.32551   -9835.1376   -8963.8801   -792.41235     102002.7      46.7237      46.7237      46.7237 
   14000    109.83166   -9812.7907    -8912.803   -966.18085     102002.7      46.7237      46.7237      46.7237 
   15000    110.29424   -9808.6655   -8904.8873   -809.40255     102002.7      46.7237      46.7237      46.7237 
   16000    111.34651   -9841.2659   -8928.8651   -1010.5142     102002.7      46.7237      46.7237      46.7237 
   17000    111.78808   -9839.7177   -8923.6986   -969.13937     102002.7      46.7237      46.7237      46.7237 
   18000    106.27377   -9817.5087   -8946.6752   -965.29965     102002.7      46.7237      46.7237      46.7237 
   19000    111.10282   -9834.0746   -8923.6706   -1068.1079     102002.7      46.7237      46.7237      46.7237 
   20000    110.75518   -9829.8534   -8922.2982   -902.76714     102002.7      46.7237      46.7237      46.7237 
   21000    107.70882   -9849.8353   -8967.2426   -1076.8214     102002.7      46.7237      46.7237      46.7237 
   22000    111.81466   -9826.8175   -8910.5806    -1194.724     102002.7      46.7237      46.7237      46.7237 
   23000    108.58116   -9846.5451   -8956.8043   -967.85439     102002.7      46.7237      46.7237      46.7237 
   24000    109.31889   -9847.5912   -8951.8052   -1318.4669     102002.7      46.7237      46.7237      46.7237 
   25000     110.4148   -9841.3472   -8936.5811   -765.89316     102002.7      46.7237      46.7237      46.7237 
   26000    109.72951   -9796.5645   -8897.4138   -1039.0475     102002.7      46.7237      46.7237      46.7237 
   27000    110.35408   -9821.5571   -8917.2886   -972.39156     102002.7      46.7237      46.7237      46.7237 
   28000     111.5723   -9806.8148   -8892.5638   -1173.1449     102002.7      46.7237      46.7237      46.7237 
   29000    108.75305   -9792.4946   -8901.3453   -1150.2599     102002.7      46.7237      46.7237      46.7237 
   30000    110.13689   -9801.0326   -8898.5438   -1347.9761     102002.7      46.7237      46.7237      46.7237 
   31000    109.38469   -9817.3301   -8921.0049   -1140.3341     102002.7      46.7237      46.7237      46.7237 
   32000    112.05532   -9789.4282   -8871.2192   -774.70448     102002.7      46.7237      46.7237      46.7237 
   33000    109.64802    -9826.077   -8927.5941   -1058.3149     102002.7      46.7237      46.7237      46.7237 
   34000    108.05684   -9835.7267   -8950.2822   -1199.8045     102002.7      46.7237      46.7237      46.7237 
   35000    109.21577   -9836.3855   -8941.4445   -946.71484     102002.7      46.7237      46.7237      46.7237 
   36000    110.23087   -9799.7746   -8896.5156   -1007.5787     102002.7      46.7237      46.7237      46.7237 
   37000    109.23975   -9830.9328   -8935.7953   -997.79021     102002.7      46.7237      46.7237      46.7237 
   38000    112.03638   -9842.9891   -8924.9354    -993.6232     102002.7      46.7237      46.7237      46.7237 
   39000    111.97781   -9847.5105   -8929.9367   -1142.0412     102002.7      46.7237      46.7237      46.7237 
   40000    110.21523   -9808.9869   -8905.8561   -1120.5496     102002.7      46.7237      46.7237      46.7237 
   41000    111.95377   -9841.5507   -8924.1739   -1245.4519     102002.7      46.7237      46.7237      46.7237 
   42000    110.94209   -9862.3506   -8953.2638   -963.74582     102002.7      46.7237      46.7237      46.7237 
   43000    109.62157   -9844.8207   -8946.5545   -932.35715     102002.7      46.7237      46.7237      46.7237 
   44000    110.29704   -9842.7336   -8938.9325   -870.36374     102002.7      46.7237      46.7237      46.7237 
   45000    110.48246   -9825.7347   -8920.4142   -1175.0248     102002.7      46.7237      46.7237      46.7237 
   46000    110.55823   -9813.3766   -8907.4351   -965.33658     102002.7      46.7237      46.7237      46.7237 
   47000    113.82185   -9824.5369   -8891.8526   -835.23518     102002.7      46.7237      46.7237      46.7237 
   48000    111.13484   -9839.1311   -8928.4649   -1149.9913     102002.7      46.7237      46.7237      46.7237 
   49000    111.18435   -9835.4675   -8924.3955   -977.65536     102002.7      46.7237      46.7237      46.7237 
   50000    109.60162   -9828.1214   -8930.0186   -1004.2968     102002.7      46.7237      46.7237      46.7237 
   51000    110.59036    -9844.956   -8938.7513   -1038.0038     102002.7      46.7237      46.7237      46.7237 
   52000    110.45039   -9829.9817    -8924.924   -705.04467     102002.7      46.7237      46.7237      46.7237 
   53000    107.51005   -9842.9279   -8961.9639   -819.41509     102002.7      46.7237      46.7237      46.7237 
   54000    109.81821   -9817.8414   -8917.9638   -933.17383     102002.7      46.7237      46.7237      46.7237 
   55000    109.91736   -9826.1032   -8925.4132   -864.92345     102002.7      46.7237      46.7237      46.7237 
   56000    107.32654   -9824.2802   -8944.8201   -1117.9859     102002.7      46.7237      46.7237      46.7237 
   57000    111.47365     -9798.45   -8885.0074   -918.52857     102002.7      46.7237      46.7237      46.7237 
   58000    109.98572   -9786.1036   -8884.8535   -1093.2873     102002.7      46.7237      46.7237      46.7237 
   59000    108.96881   -9816.3533   -8923.4359   -921.57783     102002.7      46.7237      46.7237      46.7237 
   60000    110.58331    -9835.902    -8929.755    -718.0903     102002.7      46.7237      46.7237      46.7237 
   61000    113.79187   -9821.4558   -8889.0171   -1025.6901     102002.7      46.7237      46.7237      46.7237 
   62000     111.6706   -9811.6309   -8896.5745   -1160.1359     102002.7      46.7237      46.7237      46.7237 
   63000    110.82443   -9808.5768    -8900.454   -1502.5017     102002.7      46.7237      46.7237      46.7237 
   64000    108.19543   -9852.1769   -8965.5968   -1012.0514     102002.7      46.7237      46.7237      46.7237 
   65000    108.42954   -9802.5301   -8914.0317   -1059.0639     102002.7      46.7237      46.7237      46.7237 
   66000    109.56973   -9835.7897   -8937.9483   -1042.5056     102002.7      46.7237      46.7237      46.7237 
   67000    107.51478   -9819.9531   -8938.9505   -1325.1969     102002.7      46.7237      46.7237      46.7237 
   68000    111.32891   -9809.2886    -8897.032   -1272.9239     102002.7      46.7237      46.7237      46.7237 
   69000    111.88774   -9836.1886   -8919.3529   -1114.8855     102002.7      46.7237      46.7237      46.7237 
   70000    108.24744   -9826.8668   -8939.8605   -1012.2913     102002.7      46.7237      46.7237      46.7237 
   71000     107.8781   -9827.5877   -8943.6079   -933.39267     102002.7      46.7237      46.7237      46.7237 
   72000    109.70605   -9819.0125    -8920.054   -1131.2393     102002.7      46.7237      46.7237      46.7237 
   73000      108.944   -9821.3814   -8928.6674   -1208.0698     102002.7      46.7237      46.7237      46.7237 
   74000     109.3753   -9827.5211   -8931.2729   -1026.4094     102002.7      46.7237      46.7237      46.7237 
   75000     108.8772   -9814.7638   -8922.5971   -947.74137     102002.7      46.7237      46.7237      46.7237 
   76000    110.58243   -9856.1811   -8950.0413   -1027.4612     102002.7      46.7237      46.7237      46.7237 
   77000      110.978   -9847.9894   -8938.6083   -1044.8048     102002.7      46.7237      46.7237      46.7237 
   78000    109.14694   -9798.5812   -8904.2042   -871.93924     102002.7      46.7237      46.7237      46.7237 
   79000    109.08701   -9817.1057   -8923.2198   -976.98064     102002.7      46.7237      46.7237      46.7237 
   80000     113.3224   -9821.2219   -8892.6302   -982.27845     102002.7      46.7237      46.7237      46.7237 
   81000    109.61432   -9858.6954   -8960.4887   -842.11428     102002.7      46.7237      46.7237      46.7237 
   82000     111.5734   -9838.3717   -8924.1117   -928.17027     102002.7      46.7237      46.7237      46.7237 
   83000    110.30427   -9832.3253    -8928.465   -932.99386     102002.7      46.7237      46.7237      46.7237 
   84000    111.21991   -9837.9619   -8926.5985    -998.8068     102002.7      46.7237      46.7237      46.7237 
   85000    109.16373   -9839.9917   -8945.4772   -1146.2974     102002.7      46.7237      46.7237      46.7237 
   86000    112.01811   -9824.0946   -8906.1905   -878.39331     102002.7      46.7237      46.7237      46.7237 
   87000    110.38579    -9821.664   -8917.1356   -1009.4745     102002.7      46.7237      46.7237      46.7237 
   88000    109.09729   -9816.0755   -8922.1054    -1248.868     102002.7      46.7237      46.7237      46.7237 
   89000    111.45143   -9847.3757   -8934.1152   -843.80016     102002.7      46.7237      46.7237      46.7237 
   90000     107.5878    -9867.276    -8985.675   -1084.6386     102002.7      46.7237      46.7237      46.7237 
   91000    110.54102   -9826.9759   -8921.1754   -846.40309     102002.7      46.7237      46.7237      46.7237 
   92000    111.86084    -9826.476   -8909.8606   -770.88805     102002.7      46.7237      46.7237      46.7237 
   93000    109.63391   -9824.3427   -8925.9754   -1015.7877     102002.7      46.7237      46.7237      46.7237 
   94000    110.45654   -9825.8657   -8920.7576   -759.45712     102002.7      46.7237      46.7237      46.7237 
   95000    114.12305   -9814.2628   -8879.1104   -1061.3238     102002.7      46.7237      46.7237      46.7237 
   96000    113.45418   -9823.2127   -8893.5412   -1078.2111     102002.7      46.7237      46.7237      46.7237 
   97000      109.363   -9800.4633   -8904.3158   -1060.5797     102002.7      46.7237      46.7237      46.7237 
   98000    108.80438      -9827.9     -8936.33   -1095.3443     102002.7      46.7237      46.7237      46.7237 
   99000    110.97173   -9840.4972   -8931.1675   -820.69318     102002.7      46.7237      46.7237      46.7237 
  100000     108.7297   -9820.4668   -8929.5088   -997.26213     102002.7      46.7237      46.7237      46.7237 
  101000    110.79052   -9810.5816   -8902.7367   -1249.2703     102002.7      46.7237      46.7237      46.7237 
  102000    114.59722   -9823.0725   -8884.0346   -1128.4208     102002.7      46.7237      46.7237      46.7237 
  103000    107.16464    -9809.513   -8931.3794    -983.7615     102002.7      46.7237      46.7237      46.7237 
  104000    109.97497   -9809.4824   -8908.3204   -1061.1955     102002.7      46.7237      46.7237      46.7237 
  105000    111.21227   -9787.1749   -8875.8741    -1039.957     102002.7      46.7237      46.7237      46.7237 
  106000    110.75633   -9816.9402   -8909.3754   -980.50937     102002.7      46.7237      46.7237      46.7237 
  107000    113.80118   -9843.6822   -8911.1673    -1027.365     102002.7      46.7237      46.7237      46.7237 
  108000    107.53227   -9845.7561   -8964.6101   -855.04679     102002.7      46.7237      46.7237      46.7237 
  109000    109.77361   -9844.1814   -8944.6694   -1269.2241     102002.7      46.7237      46.7237      46.7237 
  110000    109.98304   -9875.3342    -8974.106   -937.26273     102002.7      46.7237      46.7237      46.7237 
  111000    113.86903   -9804.4255   -8871.3545   -1062.5939     102002.7      46.7237      46.7237      46.7237 
  112000    110.53789   -9827.9841   -8922.2094   -1117.6139     102002.7      46.7237      46.7237      46.7237 
  113000     110.3544   -9830.4531   -8926.1819   -876.49759     102002.7      46.7237      46.7237      46.7237 
  114000    110.09203   -9841.4722   -8939.3509   -984.70887     102002.7      46.7237      46.7237      46.7237 
  115000     110.9119   -9836.9662   -8928.1267   -926.33969     102002.7      46.7237      46.7237      46.7237 
  116000     110.9785   -9843.6065   -8934.2212   -981.98813     102002.7      46.7237      46.7237      46.7237 
  117000    110.72735   -9822.0872     -8914.76   -782.28001     102002.7      46.7237      46.7237      46.7237 
  118000    107.86396   -9817.2732   -8933.4093   -1188.4506     102002.7      46.7237      46.7237      46.7237 
  119000    107.94269   -9813.6332   -8929.1242   -1273.8472     102002.7      46.7237      46.7237      46.7237 
  120000     112.0028   -9818.2316    -8900.453    -996.7757     102002.7      46.7237      46.7237      46.7237 
  121000     109.7811    -9839.943   -8940.3696   -895.13788     102002.7      46.7237      46.7237      46.7237 
  122000    112.29759   -9823.6442   -8903.4501   -975.60605     102002.7      46.7237      46.7237      46.7237 
  123000    108.23335   -9810.6645   -8923.7737   -852.31323     102002.7      46.7237      46.7237      46.7237 
  124000    112.07596   -9851.1177   -8932.7396   -958.75111     102002.7      46.7237      46.7237      46.7237 
  125000    108.98796   -9818.0407   -8924.9665   -952.36196     102002.7      46.7237      46.7237      46.7237 
  126000    109.54325   -9851.5805   -8953.9561   -1046.4397     102002.7      46.7237      46.7237      46.7237 
  127000    113.45506   -9816.7159   -8887.0372   -917.55994     102002.7      46.7237      46.7237      46.7237 
  128000     110.1231   -9845.0144   -8942.6385   -1191.7481     102002.7      46.7237      46.7237      46.7237 
  129000     108.1314   -9823.4637   -8937.4083   -1013.8109     102002.7      46.7237      46.7237      46.7237 
  130000    107.65923   -9836.8799   -8954.6936   -1212.0753     102002.7      46.7237      46.7237      46.7237 
  131000    110.09359   -9800.3574   -8898.2234     -907.734     102002.7      46.7237      46.7237      46.7237 
  132000    111.94782   -9821.2281      -8903.9   -1080.5159     102002.7      46.7237      46.7237      46.7237 
  133000    109.24979   -9811.3825   -8916.1628   -1116.3139     102002.7      46.7237      46.7237      46.7237 
  134000    107.59455    -9819.696   -8938.0397   -888.37504     102002.7      46.7237      46.7237      46.7237 
  135000    111.97794   -9844.4728    -8926.898   -854.81396     102002.7      46.7237      46.7237      46.7237 
  136000    108.50748   -9835.7682   -8946.6311   -1209.2217     102002.7      46.7237      46.7237      46.7237 
  137000    108.15924   -9823.4124   -8937.1289   -1186.6952     102002.7      46.7237      46.7237      46.7237 
  138000    110.43601   -9810.7177   -8905.7778   -1154.3785     102002.7      46.7237      46.7237      46.7237 
  139000    110.04588   -9836.5874   -8934.8443   -969.16411     102002.7      46.7237      46.7237      46.7237 
  140000    108.37018   -9821.9257   -8933.9137   -1200.6996     102002.7      46.7237      46.7237      46.7237 
  141000    110.35981   -9824.8052   -8920.4896   -971.19871     102002.7      46.7237      46.7237      46.7237 
  142000     109.0939   -9820.9252   -8926.9828   -916.83421     102002.7      46.7237      46.7237      46.7237 
  143000    108.75973   -9824.1573   -8932.9532   -1253.3632     102002.7      46.7237      46.7237      46.7237 
  144000    110.69058   -9819.1516   -8912.1256   -1169.8142     102002.7      46.7237      46.7237      46.7237 
  145000    109.35055   -9808.2624    -8912.217   -1019.2356     102002.7      46.7237      46.7237      46.7237 
  146000    108.55873   -9858.7632   -8969.2062   -842.38346     102002.7      46.7237      46.7237      46.7237 
  147000    109.15674   -9831.6297   -8937.1724   -1216.2978     102002.7      46.7237      46.7237      46.7237 
  148000     111.3932   -9815.3423   -8902.5589   -1349.7695     102002.7      46.7237      46.7237      46.7237 
  149000    106.76977   -9813.2002   -8938.3024   -943.66515     102002.7      46.7237      46.7237      46.7237 
  150000    107.22205   -9821.9559   -8943.3519   -1183.3163     102002.7      46.7237      46.7237      46.7237 
  151000    110.38136   -9830.2288   -8925.7367   -1275.2714     102002.7      46.7237      46.7237      46.7237 
  152000    107.27576   -9846.1058   -8967.0618   -1014.6046     102002.7      46.7237      46.7237      46.7237 
  153000    109.60219   -9813.9615   -8915.8541   -1261.5154     102002.7      46.7237      46.7237      46.7237 
  154000    108.90723   -9835.6676   -8943.2548   -860.62122     102002.7      46.7237      46.7237      46.7237 
  155000    109.36803   -9816.8761   -8920.6874   -1203.0043     102002.7      46.7237      46.7237      46.7237 
  156000    111.00688   -9826.3963   -8916.7785   -1261.2633     102002.7      46.7237      46.7237      46.7237 
  157000    109.21178   -9797.9036   -8902.9953   -1110.7606     102002.7      46.7237      46.7237      46.7237 
  158000     110.4398    -9829.676   -8924.7049   -1091.2464     102002.7      46.7237      46.7237      46.7237 
  159000    110.70972   -9848.7991   -8941.6163   -1226.1669     102002.7      46.7237      46.7237      46.7237 
  160000    106.57346   -9800.6693   -8927.3801    -1024.495     102002.7      46.7237      46.7237      46.7237 
  161000    109.06656   -9801.7854    -8908.067   -936.81161     102002.7      46.7237      46.7237      46.7237 
  162000    110.26977   -9791.7156   -8888.1379   -1060.0913     102002.7      46.7237      46.7237      46.7237 
  163000    109.31155   -9814.1301   -8918.4043   -1339.8646     102002.7      46.7237      46.7237      46.7237 
  164000    108.87941   -9805.3549   -8913.1702   -974.83431     102002.7      46.7237      46.7237      46.7237 
  165000    110.95935   -9828.2569   -8919.0286   -926.66754     102002.7      46.7237      46.7237      46.7237 
  166000    109.66117   -9820.2232   -8921.6325   -1172.4266     102002.7      46.7237      46.7237      46.7237 
  167000    111.79609   -9823.5017   -8907.4169   -946.48871     102002.7      46.7237      46.7237      46.7237 
  168000    108.07921   -9828.9338   -8943.3061   -1050.9834     102002.7      46.7237      46.7237      46.7237 
  169000    108.32502   -9787.8532   -8900.2112   -1234.3952     102002.7      46.7237      46.7237      46.7237 
  170000    108.30692   -9851.2471   -8963.7535   -1329.0802     102002.7      46.7237      46.7237      46.7237 
  171000    109.78607   -9846.1454   -8946.5313   -1104.9822     102002.7      46.7237      46.7237      46.7237 
  172000    111.87866   -9814.3286   -8897.5672   -1169.5884     102002.7      46.7237      46.7237      46.7237 
  173000     110.9175   -9846.6484    -8937.763   -863.88572     102002.7      46.7237      46.7237      46.7237 
  174000    109.42813   -9847.8315   -8951.1504    -1024.978     102002.7      46.7237      46.7237      46.7237 
  175000    111.50574   -9823.1299   -8909.4244   -869.38822     102002.7      46.7237      46.7237      46.7237 
  176000    111.40866   -9833.1683   -8920.2583   -1095.6816     102002.7      46.7237      46.7237      46.7237 
  177000    108.30298   -9853.2862   -8965.8248   -861.81271     102002.7      46.7237      46.7237      46.7237 
  178000    109.88375   -9817.0868   -8916.6723   -826.54588     102002.7      46.7237      46.7237      46.7237 
  179000    112.48943   -9821.5281   -8899.7619   -1044.6376     102002.7      46.7237      46.7237      46.7237 
  180000    111.81561   -9848.6068   -8932.3621   -712.16319     102002.7      46.7237      46.7237      46.7237 
  181000     109.7397    -9829.293   -8930.0589   -839.95792     102002.7      46.7237      46.7237      46.7237 
  182000    108.60484    -9851.109   -8961.1742   -1027.1584     102002.7      46.7237      46.7237      46.7237 
  183000    108.81415   -9815.9096   -8924.2596   -1035.1255     102002.7      46.7237      46.7237      46.7237 
  184000    108.80731   -9813.7256   -8922.1317   -978.23566     102002.7      46.7237      46.7237      46.7237 
  185000    107.93168   -9833.6503   -8949.2315   -1026.4096     102002.7      46.7237      46.7237      46.7237 
  186000    109.38562   -9805.4243   -8909.0915   -1065.9156     102002.7      46.7237      46.7237      46.7237 
  187000    110.36767   -9837.5442   -8933.1643   -775.00471     102002.7      46.7237      46.7237      46.7237 
  188000    108.41892    -9826.244   -8937.8326   -1047.5244     102002.7      46.7237      46.7237      46.7237 
  189000    109.80045   -9832.2087   -8932.4767   -1073.3037     102002.7      46.7237      46.7237      46.7237 
  190000    110.67092   -9833.0338   -8926.1689   -1187.3922     102002.7      46.7237      46.7237      46.7237 
  191000    110.99332    -9813.855   -8904.3483   -911.29397     102002.7      46.7237      46.7237      46.7237 
  192000    112.80447   -9819.0785   -8894.7308   -850.43687     102002.7      46.7237      46.7237      46.7237 
  193000    109.36977   -9799.0369    -8902.834   -749.55212     102002.7      46.7237      46.7237      46.7237 
  194000      106.797   -9819.9587   -8944.8378   -1209.1685     102002.7      46.7237      46.7237      46.7237 
  195000    108.30389   -9809.6987   -8922.2298   -860.91239     102002.7      46.7237      46.7237      46.7237 
  196000    110.21188   -9839.2923   -8936.1889   -970.72382     102002.7      46.7237      46.7237      46.7237 
  197000    108.86621   -9810.4033   -8918.3267   -1016.0056     102002.7      46.7237      46.7237      46.7237 
  198000    108.94387   -9776.0056   -8883.2926    -944.8963     102002.7      46.7237      46.7237      46.7237 
  199000    109.50984   -9790.4155   -8893.0649    -1015.557     102002.7      46.7237      46.7237      46.7237 
  200000    108.83165   -9856.9788   -8965.1853   -1065.4902     102002.7      46.7237      46.7237      46.7237 
  201000    107.85206   -9824.2935   -8940.5271   -816.63326     102002.7      46.7237      46.7237      46.7237 
  202000    109.22277   -9828.1745   -8933.1761   -1087.0627     102002.7      46.7237      46.7237      46.7237 
  203000    112.83478   -9860.9556   -8936.3596   -675.19076     102002.7      46.7237      46.7237      46.7237 
  204000    111.38578   -9820.6045    -8907.882   -1171.5403     102002.7      46.7237      46.7237      46.7237 
  205000    109.35267   -9815.6586   -8919.5958   -1274.9637     102002.7      46.7237      46.7237      46.7237 
  206000    111.57575   -9818.1059   -8903.8267   -1130.5087     102002.7      46.7237      46.7237      46.7237 
  207000    110.81927   -9820.0686   -8911.9882   -1080.7821     102002.7      46.7237      46.7237      46.7237 
  208000    105.52288   -9831.6145   -8966.9339   -1118.6657     102002.7      46.7237      46.7237      46.7237 
  209000     109.0031   -9814.2737   -8921.0753   -801.96873     102002.7      46.7237      46.7237      46.7237 
  210000     109.7426   -9837.8705   -8938.6126    -865.2441     102002.7      46.7237      46.7237      46.7237 
  211000       107.28   -9816.2024   -8937.1237   -683.21646     102002.7      46.7237      46.7237      46.7237 
  212000    112.24275   -9835.7159   -8915.9711   -817.09447     102002.7      46.7237      46.7237      46.7237 
  213000    111.29868   -9825.5799    -8913.571   -1020.8132     102002.7      46.7237      46.7237      46.7237 
  214000    111.80578   -9798.9885   -8882.8243   -968.42137     102002.7      46.7237      46.7237      46.7237 
  215000    108.30537   -9831.5186   -8944.0377   -649.43489     102002.7      46.7237      46.7237      46.7237 
  216000    110.23884   -9836.4174   -8933.0932   -1074.4424     102002.7      46.7237      46.7237      46.7237 
  217000    110.02465    -9810.742   -8909.1729   -818.87147     102002.7      46.7237      46.7237      46.7237 
  218000    109.46046   -9836.3301    -8939.384   -948.72202     102002.7      46.7237      46.7237      46.7237 
  219000    109.57519   -9801.0747   -8903.1885   -1051.1316     102002.7      46.7237      46.7237      46.7237 
  220000    108.67407   -9835.1728   -8944.6706    -1205.559     102002.7      46.7237      46.7237      46.7237 
  221000    111.80003    -9827.951   -8911.8339   -1036.2903     102002.7      46.7237      46.7237      46.7237 
  222000    111.02003   -9815.0858   -8905.3603   -813.92516     102002.7      46.7237      46.7237      46.7237 
  223000    110.68238    -9845.472   -8938.5133   -993.52023     102002.7      46.7237      46.7237      46.7237 
  224000    109.94215   -9805.5558   -8904.6627   -1131.6283     102002.7      46.7237      46.7237      46.7237 
  225000    112.30157   -9792.8102   -8872.5834   -1259.9737     102002.7      46.7237      46.7237      46.7237 
  226000    108.60419   -9815.4455    -8925.516   -1385.8211     102002.7      46.7237      46.7237      46.7237 
  227000    109.18098   -9821.5172   -8926.8613   -1154.3699     102002.7      46.7237      46.7237      46.7237 
  228000    110.32321   -9817.0667   -8913.0511   -860.88572     102002.7      46.7237      46.7237      46.7237 
  229000    109.73984   -9811.2336   -8911.9983   -957.35591     102002.7      46.7237      46.7237      46.7237 
  230000    107.88724   -9807.3427   -8923.2881   -749.83035     102002.7      46.7237      46.7237      46.7237 
  231000    111.62992   -9820.7739   -8906.0507   -955.62019     102002.7      46.7237      46.7237      46.7237 
  232000    110.47942   -9839.3191   -8934.0235   -1126.8764     102002.7      46.7237      46.7237      46.7237 
  233000    109.69272   -9839.2865   -8940.4373   -824.50317     102002.7      46.7237      46.7237      46.7237 
  234000    109.12018   -9857.2764   -8963.1188   -873.27647     102002.7      46.7237      46.7237      46.7237 
  235000    110.48532   -9820.7082   -8915.3643    -869.1308     102002.7      46.7237      46.7237      46.7237 
  236000     111.3809   -9834.2065   -8921.5239   -758.79716     102002.7      46.7237      46.7237      46.7237 
  237000    110.87089    -9829.542   -8921.0386   -810.42513     102002.7      46.7237      46.7237      46.7237 
  238000    108.60991   -9817.9041   -8927.9277   -1012.8499     102002.7      46.7237      46.7237      46.7237 
  239000    109.80382   -9807.6282   -8907.8686   -1225.7571     102002.7      46.7237      46.7237      46.7237 
  240000    109.87924   -9815.6653   -8915.2877   -751.60374     102002.7      46.7237      46.7237      46.7237 
  241000    108.54098   -9815.8074   -8926.3958   -1046.9468     102002.7      46.7237      46.7237      46.7237 
  242000    111.78801   -9816.8293   -8900.8108   -1106.3956     102002.7      46.7237      46.7237      46.7237 
  243000    111.19933   -9821.1823   -8909.9875   -855.65833     102002.7      46.7237      46.7237      46.7237 
  244000    111.22856   -9819.7279   -8908.2937   -1066.0662     102002.7      46.7237      46.7237      46.7237 
  245000    111.36083    -9795.616   -8883.0979   -878.67156     102002.7      46.7237      46.7237      46.7237 
  246000     109.3947   -9812.5254   -8916.1183   -867.83654     102002.7      46.7237      46.7237      46.7237 
  247000    109.32032   -9788.7209   -8892.9232   -773.07225     102002.7      46.7237      46.7237      46.7237 
  248000    108.52573   -9802.8169   -8913.5303   -926.49304     102002.7      46.7237      46.7237      46.7237 
  249000    106.59886    -9812.915   -8939.4176   -1221.0245     102002.7      46.7237      46.7237      46.7237 
  250000    114.54849   -9800.6625   -8862.0239   -893.68095     102002.7      46.7237      46.7237      46.7237 
  251000    113.38083   -9822.1633   -8893.0928   -1092.1438     102002.7      46.7237      46.7237      46.7237 
  252000    108.09985   -9835.6526   -8949.8557   -922.75511     102002.7      46.7237      46.7237      46.7237 
  253000    112.39435   -9823.9188   -8902.9318    -1182.093     102002.7      46.7237      46.7237      46.7237 
  254000     110.6523    -9798.717   -8892.0047   -772.52903     102002.7      46.7237      46.7237      46.7237 
  255000    109.14266   -9833.2136   -8938.8717   -1182.8657     102002.7      46.7237      46.7237      46.7237 
  256000    109.44623   -9825.2825   -8928.4531   -851.89469     102002.7      46.7237      46.7237      46.7237 
  257000    113.08189   -9838.0468   -8911.4258   -1005.4246     102002.7      46.7237      46.7237      46.7237 
  258000    109.36122   -9829.7595   -8933.6266   -921.11336     102002.7      46.7237      46.7237      46.7237 
  259000    111.76301    -9813.171   -8897.3573   -1103.7234     102002.7      46.7237      46.7237      46.7237 
  260000    109.87603    -9823.576   -8923.2247   -1175.2145     102002.7      46.7237      46.7237      46.7237 
  261000    111.28279   -9812.6937   -8900.8151    -1176.861     102002.7      46.7237      46.7237      46.7237 
  262000    109.62478   -9804.7734   -8906.4809   -1136.3056     102002.7      46.7237      46.7237      46.7237 
  263000    112.59514   -9811.7973    -8889.165   -1068.2166     102002.7      46.7237      46.7237      46.7237 
  264000     109.0309   -9797.7647   -8904.3386   -1258.0035     102002.7      46.7237      46.7237      46.7237 
  265000     109.8068   -9814.5215   -8914.7375    -953.4488     102002.7      46.7237      46.7237      46.7237 
  266000     110.5541   -9823.7228   -8917.8151   -829.04391     102002.7      46.7237      46.7237      46.7237 
  267000    107.24407   -9811.9407   -8933.1564   -1068.5977     102002.7      46.7237      46.7237      46.7237 
  268000    108.37428   -9797.1858   -8909.1401   -831.19903     102002.7      46.7237      46.7237      46.7237 
  269000     110.3055   -9848.5781   -8944.7076    -1041.204     102002.7      46.7237      46.7237      46.7237 
  270000    109.90685   -9815.9594   -8915.3556   -1030.4078     102002.7      46.7237      46.7237      46.7237 
  271000     111.3771   -9823.5795   -8910.9281   -1019.6897     102002.7      46.7237      46.7237      46.7237 
  272000    112.44284   -9819.9205   -8898.5361   -1148.6853     102002.7      46.7237      46.7237      46.7237 
  273000    107.42848   -9852.1207   -8971.8252   -974.24294     102002.7      46.7237      46.7237      46.7237 
  274000    112.61193   -9817.2512   -8894.4813   -749.16903     102002.7      46.7237      46.7237      46.7237 
  275000    109.66402   -9818.6403   -8920.0262   -948.85223     102002.7      46.7237      46.7237      46.7237 
  276000    113.13103   -9817.9666    -8890.943   -832.04514     102002.7      46.7237      46.7237      46.7237 
  277000    109.31447   -9849.1045   -8953.3547   -827.58642     102002.7      46.7237      46.7237      46.7237 
  278000    110.75004   -9839.8427   -8932.3296   -890.30663     102002.7      46.7237      46.7237      46.7237 
  279000    107.32061   -9813.4238   -8934.0122   -1000.8385     102002.7      46.7237      46.7237      46.7237 
  280000    108.48639   -9834.8423    -8945.878     -902.677     102002.7      46.7237      46.7237      46.7237 
  281000    109.77372   -9821.8466   -8922.3337   -1361.0411     102002.7      46.7237      46.7237      46.7237 
  282000    108.18509   -9829.7927   -8943.2974   -911.23379     102002.7      46.7237      46.7237      46.7237 
  283000    110.67608   -9839.8878   -8932.9806   -834.56034     102002.7      46.7237      46.7237      46.7237 
  284000    110.99356   -9805.1476    -8895.639   -1172.3547     102002.7      46.7237      46.7237      46.7237 
  285000    106.82386   -9807.0054   -8931.6643   -1004.8464     102002.7      46.7237      46.7237      46.7237 
  286000    113.50779   -9841.9502   -8911.8393   -728.11873     102002.7      46.7237      46.7237      46.7237 
  287000    109.17775   -9820.7029   -8926.0734   -974.47405     102002.7      46.7237      46.7237      46.7237 
  288000    111.10212   -9831.5679   -8921.1698   -847.55175     102002.7      46.7237      46.7237      46.7237 
  289000    107.84109   -9827.0623   -8943.3858   -1109.1521     102002.7      46.7237      46.7237      46.7237 
  290000    109.83792   -9827.6901   -8927.6512   -1126.6808     102002.7      46.7237      46.7237      46.7237 
  291000    110.76549   -9817.4891   -8909.8493   -1151.9662     102002.7      46.7237      46.7237      46.7237 
  292000     110.9045   -9824.1446   -8915.3658   -1163.4103     102002.7      46.7237      46.7237      46.7237 
  293000    109.38076   -9840.2304   -8943.9374   -1117.7806     102002.7      46.7237      46.7237      46.7237 
  294000    109.36791   -9805.4812   -8909.2935    -1068.663     102002.7      46.7237      46.7237      46.7237 
  295000    112.68182   -9812.2667   -8888.9241   -1314.4928     102002.7      46.7237      46.7237      46.7237 
  296000    109.16268   -9816.9476   -8922.4417   -968.45541     102002.7      46.7237      46.7237      46.7237 
  297000    109.16664   -9816.4739   -8921.9355   -1161.2004     102002.7      46.7237      46.7237      46.7237 
  298000    110.87763   -9812.4505   -8903.8918   -936.00525     102002.7      46.7237      46.7237      46.7237 
  299000    108.87453   -9811.0998   -8918.9551   -1051.9585     102002.7      46.7237      46.7237      46.7237 
  300000    106.01714   -9826.1582   -8957.4276   -1185.3835     102002.7      46.7237      46.7237      46.7237 
  301000    112.10747   -9828.7784   -8910.1421   -996.70843     102002.7      46.7237      46.7237      46.7237 
  302000    110.67904    -9806.134   -8899.2026    -938.6743     102002.7      46.7237      46.7237      46.7237 
  303000    110.93379   -9815.0137   -8905.9949   -1027.1494     102002.7      46.7237      46.7237      46.7237 
  304000    111.26867   -9831.1992   -8919.4363   -1084.0897     102002.7      46.7237      46.7237      46.7237 
  305000    110.48668   -9827.4287   -8922.0736   -1150.8999     102002.7      46.7237      46.7237      46.7237 
  306000    110.40545   -9810.9569   -8906.2674   -1193.7885     102002.7      46.7237      46.7237      46.7237 
  307000      112.508   -9829.5908   -8907.6726   -986.24396     102002.7      46.7237      46.7237      46.7237 
  308000    107.80299   -9818.8034   -8935.4391   -1205.3045     102002.7      46.7237      46.7237      46.7237 
  309000    110.35668   -9804.3341   -8900.0442   -1291.6416     102002.7      46.7237      46.7237      46.7237 
  310000    111.58145   -9797.8257   -8883.4998    -1348.974     102002.7      46.7237      46.7237      46.7237 
  311000    112.78476   -9793.6034   -8869.4172   -1144.6754     102002.7      46.7237      46.7237      46.7237 
  312000     110.6409   -9812.4236   -8905.8047    -1044.596     102002.7      46.7237      46.7237      46.7237 
  313000    110.65564   -9767.3644   -8860.6248   -1199.2329     102002.7      46.7237      46.7237      46.7237 
  314000    110.00668   -9784.0806   -8882.6587   -1243.9719     102002.7      46.7237      46.7237      46.7237 
  315000    108.36795   -9807.6831   -8919.6893   -1100.0595     102002.7      46.7237      46.7237      46.7237 
  316000    110.36303   -9803.5519     -8899.21   -1043.1889     102002.7      46.7237      46.7237      46.7237 
  317000    107.53752   -9804.7108   -8923.5218   -463.64014     102002.7      46.7237      46.7237      46.7237 
  318000    110.39705   -9819.4177    -8914.797   -1025.4658     102002.7      46.7237      46.7237      46.7237 
  319000    110.75071   -9813.0308   -8905.5122    -1062.863     102002.7      46.7237      46.7237      46.7237 
  320000    110.44105   -9809.8134   -8904.8322   -661.18429     102002.7      46.7237      46.7237      46.7237 
  321000    108.09685   -9815.6921   -8929.9198   -1160.4169     102002.7      46.7237      46.7237      46.7237 
  322000    109.10405    -9840.913   -8946.8875   -801.67723     102002.7      46.7237      46.7237      46.7237 
  323000    110.29565   -9850.7484   -8946.9586   -800.69711     102002.7      46.7237      46.7237      46.7237 
  324000     106.8241   -9842.3576   -8967.0146    -677.4269     102002.7      46.7237      46.7237      46.7237 
  325000    111.91711   -9832.1058   -8915.0294   -707.61947     102002.7      46.7237      46.7237      46.7237 
  326000    108.30849   -9817.6767   -8930.1702   -1026.4871     102002.7      46.7237      46.7237      46.7237 
  327000    105.03158   -9800.9886   -8940.3339   -893.95853     102002.7      46.7237      46.7237      46.7237 
  328000    107.31052   -9838.8737   -8959.5449   -823.36198     102002.7      46.7237      46.7237      46.7237 
  329000    109.26108   -9796.0609   -8900.7487   -970.16277     102002.7      46.7237      46.7237      46.7237 
  330000    108.84341   -9831.6369   -8939.7471   -1044.4354     102002.7      46.7237      46.7237      46.7237 
  331000    108.37666   -9844.0456   -8955.9806   -973.90218     102002.7      46.7237      46.7237      46.7237 
  332000    109.14479   -9818.9862   -8924.6269   -786.30353     102002.7      46.7237      46.7237      46.7237 
  333000    112.42614   -9812.8067   -8891.5592   -867.14838     102002.7      46.7237      46.7237      46.7237 
  334000    110.06761   -9827.0431    -8925.122   -1118.0736     102002.7      46.7237      46.7237      46.7237 
  335000    107.24209    -9829.171   -8950.4029   -966.72861     102002.7      46.7237      46.7237      46.7237 
  336000    109.68144   -9800.2444   -8901.4876    -906.6993     102002.7      46.7237      46.7237      46.7237 
  337000    108.82406   -9816.0801   -8924.3489   -1136.1546     102002.7      46.7237      46.7237      46.7237 
  338000    111.00039   -9809.4935   -8899.9288   -802.23468     102002.7      46.7237      46.7237      46.7237 
  339000    112.93161   -9820.3929   -8895.0034   -1025.4912     102002.7      46.7237      46.7237      46.7237 
  340000    109.94965   -9827.1893   -8926.2347   -1007.6128     102002.7      46.7237      46.7237      46.7237 
  341000    111.27376   -9811.4963   -8899.6917   -886.89578     102002.7      46.7237      46.7237      46.7237 
  342000    108.17642   -9833.7326   -8947.3083   -1046.3565     102002.7      46.7237      46.7237      46.7237 
  343000    111.45777   -9831.7883   -8918.4759   -926.12634     102002.7      46.7237      46.7237      46.7237 
  344000    107.92247   -9827.7152   -8943.3718    -920.7401     102002.7      46.7237      46.7237      46.7237 
  345000     108.4593   -9795.2189   -8906.4766   -1234.4378     102002.7      46.7237      46.7237      46.7237 
  346000    111.30283   -9839.3116   -8927.2687   -986.55477     102002.7      46.7237      46.7237      46.7237 
  347000    109.35448   -9829.7125   -8933.6349   -1055.6085     102002.7      46.7237      46.7237      46.7237 
  348000    112.44602   -9823.5614   -8902.1509   -1089.3636     102002.7      46.7237      46.7237      46.7237 
  349000    110.43412   -9814.1494   -8909.2249   -858.34035     102002.7      46.7237      46.7237      46.7237 
  350000    108.82211   -9809.0833   -8917.3681    -1033.418     102002.7      46.7237      46.7237      46.7237 
  351000    108.84442   -9799.3373   -8907.4393   -838.82043     102002.7      46.7237      46.7237      46.7237 
  352000    108.79433   -9803.6385    -8912.151   -726.39026     102002.7      46.7237      46.7237      46.7237 
  353000    108.88523   -9792.9508   -8900.7183   -843.63543     102002.7      46.7237      46.7237      46.7237 
  354000    109.48988   -9822.3358   -8925.1487   -910.58934     102002.7      46.7237      46.7237      46.7237 
  355000    109.99267   -9826.2894   -8924.9823   -830.04776     102002.7      46.7237      46.7237      46.7237 
  356000    111.96797   -9826.8059   -8909.3127   -1060.4286     102002.7      46.7237      46.7237      46.7237 
  357000    110.13742   -9789.6217   -8887.1285   -1137.1343     102002.7      46.7237      46.7237      46.7237 
  358000    108.48502   -9825.0086   -8936.0556   -1171.3027     102002.7      46.7237      46.7237      46.7237 
  359000    110.75396   -9824.6961   -8917.1507   -1018.5876     102002.7      46.7237      46.7237      46.7237 
  360000    112.03382   -9836.6943   -8918.6615   -1094.6348     102002.7      46.7237      46.7237      46.7237 
  361000    107.31814   -9817.7732   -8938.3818   -1296.8569     102002.7      46.7237      46.7237      46.7237 
  362000    111.12786   -9822.8326   -8912.2235   -1130.5126     102002.7      46.7237      46.7237      46.7237 
  363000    109.92843    -9822.436   -8921.6553   -1111.3444     102002.7      46.7237      46.7237      46.7237 
  364000    110.54329   -9820.6357   -8914.8166   -959.00269     102002.7      46.7237      46.7237      46.7237 
  365000    109.50069   -9831.9285   -8934.6528   -1106.7122     102002.7      46.7237      46.7237      46.7237 
  366000    111.39619   -9812.2708   -8899.4629    -1071.027     102002.7      46.7237      46.7237      46.7237 
  367000    107.38165     -9838.66   -8958.7483    -1027.213     102002.7      46.7237      46.7237      46.7237 
  368000    109.32891   -9842.3794   -8946.5114   -1152.9089     102002.7      46.7237      46.7237      46.7237 
  369000    113.18635   -9847.9188   -8920.4419   -852.88701     102002.7      46.7237      46.7237      46.7237 
  370000    111.13405   -9829.1231   -8918.4633   -969.73254     102002.7      46.7237      46.7237      46.7237 
  371000    109.16785   -9840.5138   -8945.9655   -856.16471     102002.7      46.7237      46.7237      46.7237 
  372000    109.34802   -9819.0466   -8923.0218   -1124.2794     102002.7      46.7237      46.7237      46.7237 
  373000     109.3672   -9829.5894   -8933.4076   -1256.5109     102002.7      46.7237      46.7237      46.7237 
  374000    111.48976   -9831.4801   -8917.9055   -1054.3875     102002.7      46.7237      46.7237      46.7237 
  375000    110.69213   -9836.9984   -8929.9597   -1095.0665     102002.7      46.7237      46.7237      46.7237 
  376000    109.11156    -9823.981    -8929.894   -1110.0825     102002.7      46.7237      46.7237      46.7237 
  377000    107.46888   -9805.4682   -8924.8417   -1073.6104     102002.7      46.7237      46.7237      46.7237 
  378000    114.15731   -9834.8351   -8899.4019   -697.27601     102002.7      46.7237      46.7237      46.7237 
  379000    109.95344   -9822.2986   -8921.3129   -1149.1473     102002.7      46.7237      46.7237      46.7237 
  380000    106.47881   -9830.6835   -8958.1699   -1331.3756     102002.7      46.7237      46.7237      46.7237 
  381000    110.68631   -9816.3016   -8909.3107   -871.95456     102002.7      46.7237      46.7237      46.7237 
  382000    110.77133   -9831.3817   -8923.6941   -1429.0339     102002.7      46.7237      46.7237      46.7237 
  383000    106.53699   -9786.2747   -8913.2843   -1195.3415     102002.7      46.7237      46.7237      46.7237 
  384000    111.15642   -9795.6124   -8884.7693    -1017.792     102002.7      46.7237      46.7237      46.7237 
  385000    109.34325   -9808.3306    -8912.345   -1165.7325     102002.7      46.7237      46.7237      46.7237 
  386000    107.98823   -9813.2188   -8928.3365   -996.73322     102002.7      46.7237      46.7237      46.7237 
  387000     109.4395   -9832.3275   -8935.5532    -998.2633     102002.7      46.7237      46.7237      46.7237 
  388000     112.9677   -9828.2603   -8902.5751    -1068.074     102002.7      46.7237      46.7237      46.7237 
  389000    108.40915   -9846.4644   -8958.1331   -976.56194     102002.7      46.7237      46.7237      46.7237 
  390000    107.52885    -9831.978     -8950.86   -1043.4837     102002.7      46.7237      46.7237      46.7237 
  391000    110.77369   -9816.0756   -8908.3686    -823.6746     102002.7      46.7237      46.7237      46.7237 
  392000    111.86598   -9809.3304    -8892.673   -771.87685     102002.7      46.7237      46.7237      46.7237 
  393000    109.71836   -9842.7716   -8943.7122   -1123.5579     102002.7      46.7237      46.7237      46.7237 
  394000    112.10749   -9827.1305   -8908.4941   -1167.6991     102002.7      46.7237      46.7237      46.7237 
  395000    110.40643   -9816.5736   -8911.8761   -1241.9977     102002.7      46.7237      46.7237      46.7237 
  396000    109.78884   -9789.0822   -8889.4454   -1327.2225     102002.7      46.7237      46.7237      46.7237 
  397000    106.79208   -9797.0748   -8921.9942   -1205.2588     102002.7      46.7237      46.7237      46.7237 
  398000    108.92284   -9801.2725   -8908.7319   -1411.8223     102002.7      46.7237      46.7237      46.7237 
  399000    110.95449   -9776.4044   -8867.2159   -1339.1621     102002.7      46.7237      46.7237      46.7237 
  400000    110.61981   -9791.1098   -8884.6637   -1065.1181     102002.7      46.7237      46.7237      46.7237 
  401000    111.90442   -9829.9539   -8912.9814   -1018.9226     102002.7      46.7237      46.7237      46.7237 
  402000    110.51065    -9811.207   -8905.6555   -920.97169     102002.7      46.7237      46.7237      46.7237 
  403000     106.4483   -9822.7882   -8950.5246   -1385.3344     102002.7      46.7237      46.7237      46.7237 
  404000    109.26353    -9830.799   -8935.4667   -1089.5775     102002.7      46.7237      46.7237      46.7237 
  405000    108.98237   -9812.7384     -8919.71   -916.82412     102002.7      46.7237      46.7237      46.7237 
  406000    111.41667   -9776.0691   -8863.0934   -1013.3971     102002.7      46.7237      46.7237      46.7237 
  407000    107.67023   -9811.6155   -8929.3391   -815.19627     102002.7      46.7237      46.7237      46.7237 
  408000     109.9833   -9840.7105   -8939.4802   -1240.6171     102002.7      46.7237      46.7237      46.7237 
  409000    109.26396   -9834.7497   -8939.4139   -897.94163     102002.7      46.7237      46.7237      46.7237 
  410000    108.12081   -9831.0627   -8945.0941   -1236.9179     102002.7      46.7237      46.7237      46.7237 
  411000    110.98286   -9815.5465   -8906.1256   -1145.9001     102002.7      46.7237      46.7237      46.7237 
  412000    109.23544   -9800.0881   -8904.9859   -1013.2933     102002.7      46.7237      46.7237      46.7237 
  413000    111.92771   -9809.5449   -8892.3816   -934.46981     102002.7      46.7237      46.7237      46.7237 
  414000    109.85978   -9833.0776   -8932.8594    -975.0255     102002.7      46.7237      46.7237      46.7237 
  415000    110.81038   -9795.2247   -8887.2171   -957.51485     102002.7      46.7237      46.7237      46.7237 
  416000      112.485   -9832.2324   -8910.5025    -1044.357     102002.7      46.7237      46.7237      46.7237 
  417000    110.43805   -9812.1104   -8907.1538   -1157.3456     102002.7      46.7237      46.7237      46.7237 
  418000    108.21788   -9815.0517   -8928.2877   -1140.4992     102002.7      46.7237      46.7237      46.7237 
  419000    111.83648    -9827.378   -8910.9622   -1114.8502     102002.7      46.7237      46.7237      46.7237 
  420000    110.37418    -9818.132   -8913.6988   -1201.9899     102002.7      46.7237      46.7237      46.7237 
  421000    109.67976    -9809.173   -8910.4299   -864.59752     102002.7      46.7237      46.7237      46.7237 
  422000    110.38671    -9794.817   -8890.2811   -1145.6973     102002.7      46.7237      46.7237      46.7237 
  423000    109.84545   -9797.8176   -8897.7168   -859.90123     102002.7      46.7237      46.7237      46.7237 
  424000    106.97931   -9802.5151   -8925.9002   -1150.4621     102002.7      46.7237      46.7237      46.7237 
  425000    109.42211   -9801.9399   -8905.3081   -1082.6278     102002.7      46.7237      46.7237      46.7237 
  426000     111.3749   -9832.4761   -8919.8427   -738.05424     102002.7      46.7237      46.7237      46.7237 
  427000    111.13805   -9786.2789   -8875.5863   -958.11431     102002.7      46.7237      46.7237      46.7237 
  428000    110.84468   -9798.6239   -8890.3353   -1085.1831     102002.7      46.7237      46.7237      46.7237 
  429000    113.19994   -9813.2311   -8885.6428   -1214.5825     102002.7      46.7237      46.7237      46.7237 
  430000    112.07666   -9834.7023   -8916.3185   -987.28416     102002.7      46.7237      46.7237      46.7237 
  431000    110.81365   -9855.7433   -8947.7089   -943.06305     102002.7      46.7237      46.7237      46.7237 
  432000    109.15871   -9812.2587   -8917.7853   -1307.1304     102002.7      46.7237      46.7237      46.7237 
  433000    110.51428      -9818.7   -8913.1186   -782.01698     102002.7      46.7237      46.7237      46.7237 
  434000    108.44989   -9819.2366   -8930.5714   -1159.9053     102002.7      46.7237      46.7237      46.7237 
  435000    107.19212   -9803.0686   -8924.7099   -964.20076     102002.7      46.7237      46.7237      46.7237 
  436000     108.9029   -9799.8175   -8907.4402   -748.64834     102002.7      46.7237      46.7237      46.7237 
  437000    110.73336   -9784.0673   -8876.6908   -911.66712     102002.7      46.7237      46.7237      46.7237 
  438000    108.04462   -9812.1488   -8926.8044   -757.29535     102002.7      46.7237      46.7237      46.7237 
  439000    108.19568   -9812.2271    -8925.645   -840.85172     102002.7      46.7237      46.7237      46.7237 
  440000    107.72086   -9805.7425   -8923.0512    -936.9419     102002.7      46.7237      46.7237      46.7237 
  441000    110.99687    -9797.034   -8887.4982   -786.35745     102002.7      46.7237      46.7237      46.7237 
  442000    110.38741   -9799.7643   -8895.2226   -880.94821     102002.7      46.7237      46.7237      46.7237 
  443000    107.83115   -9808.8881   -8925.2931   -1141.9182     102002.7      46.7237      46.7237      46.7237 
  444000    109.57922   -9819.5491   -8921.6299    -998.9402     102002.7      46.7237      46.7237      46.7237 
  445000    110.99832   -9841.6434   -8932.0957   -1016.0957     102002.7      46.7237      46.7237      46.7237 
  446000    108.83266   -9831.3648   -8939.5631   -887.18404     102002.7      46.7237      46.7237      46.7237 
  447000    107.73832   -9815.0871   -8932.2527   -950.05959     102002.7      46.7237      46.7237      46.7237 
  448000    110.88976   -9806.5065   -8897.8485   -1074.7808     102002.7      46.7237      46.7237      46.7237 
  449000    108.01393   -9791.0616   -8905.9688   -966.37372     102002.7      46.7237      46.7237      46.7237 
  450000    108.39394   -9810.0461   -8921.8394   -1258.0309     102002.7      46.7237      46.7237      46.7237 
  451000    110.86802   -9787.2971   -8878.8172   -1348.7719     102002.7      46.7237      46.7237      46.7237 
  452000    110.11201   -9785.4051   -8883.1201   -885.81419     102002.7      46.7237      46.7237      46.7237 
  453000    109.82333   -9826.2894   -8926.3699   -1043.3234     102002.7      46.7237      46.7237      46.7237 
  454000    107.53797   -9805.7653   -8924.5726   -729.48011     102002.7      46.7237      46.7237      46.7237 
  455000     110.7777   -9808.8742   -8901.1344   -974.81156     102002.7      46.7237      46.7237      46.7237 
  456000    107.47067   -9813.0228   -8932.3815   -1148.9925     102002.7      46.7237      46.7237      46.7237 
  457000    111.35964   -9803.7189   -8891.2105   -1122.0685     102002.7      46.7237      46.7237      46.7237 
  458000    113.75227   -9807.0139   -8874.8997   -1290.1136     102002.7      46.7237      46.7237      46.7237 
  459000    112.62316   -9803.2368   -8880.3748   -872.90923     102002.7      46.7237      46.7237      46.7237 
  460000    109.46953    -9799.761   -8902.7406   -1229.5608     102002.7      46.7237      46.7237      46.7237 
  461000    108.50442   -9813.8125   -8924.7005   -1067.5283     102002.7      46.7237      46.7237      46.7237 
  462000    109.87809   -9818.7362   -8918.3679   -835.15863     102002.7      46.7237      46.7237      46.7237 
  463000    109.49439   -9796.4401   -8899.2161   -1389.8688     102002.7      46.7237      46.7237      46.7237 
  464000     109.9014   -9816.6914   -8916.1322   -1098.5327     102002.7      46.7237      46.7237      46.7237 
  465000     109.0718   -9839.5053   -8945.7441   -995.19443     102002.7      46.7237      46.7237      46.7237 
  466000    111.22613   -9828.3251   -8916.9108   -1085.9147     102002.7      46.7237      46.7237      46.7237 
  467000    110.92613   -9850.8096   -8941.8535   -631.18154     102002.7      46.7237      46.7237      46.7237 
  468000    111.85171   -9824.5619   -8908.0213   -1002.0995     102002.7      46.7237      46.7237      46.7237 
  469000    111.46423    -9831.672   -8918.3065   -1058.0602     102002.7      46.7237      46.7237      46.7237 
  470000    108.18232   -9829.6418   -8943.1692    -1208.249     102002.7      46.7237      46.7237      46.7237 
  471000    109.70735   -9813.8444   -8914.8753   -1107.4044     102002.7      46.7237      46.7237      46.7237 
  472000    112.09737   -9812.6144   -8894.0609    -1337.318     102002.7      46.7237      46.7237      46.7237 
  473000    109.17064   -9825.8409   -8931.2697   -777.80443     102002.7      46.7237      46.7237      46.7237 
  474000    111.45856   -9842.9158   -8929.5969   -950.09033     102002.7      46.7237      46.7237      46.7237 
  475000    110.58799   -9824.4479   -8918.2626   -896.86718     102002.7      46.7237      46.7237      46.7237 
  476000    112.27871    -9787.678   -8867.6385   -850.02544     102002.7      46.7237      46.7237      46.7237 
  477000    110.04137   -9805.4812    -8903.775    -823.6745     102002.7      46.7237      46.7237      46.7237 
  478000     108.6481   -9823.6136   -8933.3243   -984.02079     102002.7      46.7237      46.7237      46.7237 
  479000    110.24976   -9813.4729   -8910.0591   -1132.3329     102002.7      46.7237      46.7237      46.7237 
  480000    109.65142   -9823.8344   -8925.3236   -657.86712     102002.7      46.7237      46.7237      46.7237 
  481000    111.28953   -9821.7324   -8909.7985   -1038.6505     102002.7      46.7237      46.7237      46.7237 
  482000     109.8964   -9819.9864   -8919.4681   -1015.6017     102002.7      46.7237      46.7237      46.7237 
  483000    110.95203   -9818.1924    -8909.024   -1038.6202     102002.7      46.7237      46.7237      46.7237 
  484000    111.71125   -9839.7106    -8924.321   -1124.5143     102002.7      46.7237      46.7237      46.7237 
  485000    112.45371   -9800.3918   -8878.9183   -571.02657     102002.7      46.7237      46.7237      46.7237 
  486000    110.02101    -9837.749   -8936.2097   -910.51007     102002.7      46.7237      46.7237      46.7237 
  487000    111.25268   -9812.0528    -8900.421   -1102.8619     102002.7      46.7237      46.7237      46.7237 
  488000    108.38016   -9805.2053   -8917.1116   -810.17184     102002.7      46.7237      46.7237      46.7237 
  489000    108.69379   -9826.9284   -8936.2647   -1198.4507     102002.7      46.7237      46.7237      46.7237 
  490000     110.3443   -9829.3066   -8925.1181   -941.54369     102002.7      46.7237      46.7237      46.7237 
  491000    110.81549   -9824.2661   -8916.2166   -775.09999     102002.7      46.7237      46.7237      46.7237 
  492000      111.219   -9821.2725   -8909.9166   -1317.9732     102002.7      46.7237      46.7237      46.7237 
  493000    108.11945   -9833.6746   -8947.7171   -1008.9184     102002.7      46.7237      46.7237      46.7237 
  494000    111.08793   -9831.5278   -8921.2459   -886.71359     102002.7      46.7237      46.7237      46.7237 
  495000    109.15499   -9808.9207   -8914.4778   -1095.6262     102002.7      46.7237      46.7237      46.7237 
  496000    109.25419   -9834.7235   -8939.4677   -955.98296     102002.7      46.7237      46.7237      46.7237 
  497000    113.65592    -9820.143   -8888.8184   -919.90472     102002.7      46.7237      46.7237      46.7237 
  498000    108.11253   -9821.6066   -8935.7059   -847.79364     102002.7      46.7237      46.7237      46.7237 
  499000    105.52518   -9828.1727   -8963.4734   -1060.7877     102002.7      46.7237      46.7237      46.7237 
  500000    113.49886   -9850.6723   -8920.6346   -814.11059     102002.7      46.7237      46.7237      46.7237 
  500500    111.00607   -9835.2518   -8925.6407   -1180.0775     102002.7      46.7237      46.7237      46.7237 
Loop time of 758.458 on 24 procs for 500000 steps with 2750 atoms

Performance: 56.958 ns/day, 0.421 hours/ns, 659.232 timesteps/s
97.8% CPU use with 24 MPI tasks x no OpenMP threads

MPI task timing breakdown:
Section |  min time  |  avg time  |  max time  |%varavg| %total
---------------------------------------------------------------
Pair    | 332.24     | 399.8      | 473.63     | 194.4 | 52.71
Bond    | 64.681     | 78.654     | 95.509     |  99.9 | 10.37
Neigh   | 6.1495     | 6.1708     | 6.1875     |   0.5 |  0.81
Comm    | 191.54     | 259.44     | 322.88     | 233.3 | 34.21
Output  | 0.4247     | 0.42499    | 0.42894    |   0.1 |  0.06
Modify  | 4.3692     | 4.644      | 4.9371     |   6.5 |  0.61
Other   |            | 9.328      |            |       |  1.23

Nlocal:    114.583 ave 157 max 86 min
Histogram: 2 1 4 8 2 2 3 1 0 1
Nghost:    3084.33 ave 3127 max 3037 min
Histogram: 1 1 3 5 1 4 1 3 3 2
Neighs:    7641 ave 13446 max 2558 min
Histogram: 1 3 3 4 1 6 2 1 1 2

Total # of neighbors = 183384
Ave neighs/atom = 66.6851
Ave special neighs/atom = 4.18909
Neighbor list builds = 4696
Dangerous builds = 0
Neighbor list info ...
  update every 1 steps, delay 10 steps, check yes
  max neighbors/atom: 2000, page size: 100000
  master list distance cutoff = 16
  ghost atom cutoff = 16
  binsize = 8, bins = 6 6 6
  3 neighbor lists, perpetual/occasional/extra = 3 0 0
  (1) pair buck6d/coul/gauss/dsf, perpetual, skip from (3)
      attributes: half, newton on
      pair build: skip
      stencil: none
      bin: none
  (2) pair lj/cut, perpetual, skip from (3)
      attributes: half, newton on
      pair build: skip
      stencil: none
      bin: none
  (3) neighbor class addition, perpetual
      attributes: half, newton on
      pair build: half/bin/newton
      stencil: half/bin/3d/newton
      bin: standard
Setting up Verlet run ...
  Unit style    : real
  Current step  : 500500
  Time step     : 1
WARNING: Inconsistent image flags (../domain.cpp:786)
Per MPI rank memory allocation (min/avg/max) = 24.33 | 24.58 | 24.64 Mbytes
Step Time TotEng KinEng PotEng E_mol E_pair Temp Pxx Pyy Pzz Pxy Pxz Pyz Cella Cellb Cellc CellAlpha CellBeta CellGamma Volume Press 
  500500       500000   -8925.6407    909.61114   -9835.2518    4262.2469   -14097.499    111.00607   -1072.9943   -1386.8604    -1080.378     33.65814    -26.63216    207.49601      46.7237      46.7237      46.7237           90           90           90     102002.7   -1180.0775 
  501000       500500   -8941.0445    901.76567   -9842.8102    4273.7842   -14116.594    110.04863   -905.87892   -837.60973   -415.25643   -92.828795     58.80758    207.88608      46.7237      46.7237      46.7237           90           90           90     102002.7    -719.5817 
  502000       501500   -8952.3995    885.91871   -9838.3182    4262.8294   -14101.148    108.11472   -741.81905   -1257.9822   -1174.2536    160.93263    107.49191   -70.292392      46.7237      46.7237      46.7237           90           90           90     102002.7   -1058.0183 
  503000       502500   -8935.6599    893.84433   -9829.5042    4263.5737   -14093.078    109.08194   -1135.3896   -1170.4917   -967.82403    9.1299649    117.32668     128.8394      46.7237      46.7237      46.7237           90           90           90     102002.7   -1091.2351 
  504000       503500   -8945.2818    889.71123    -9834.993    4277.0094   -14112.002    108.57755    -763.5806   -978.25707   -855.07444   -276.33214    39.232896    91.504828      46.7237      46.7237      46.7237           90           90           90     102002.7   -865.63737 
  505000       504500   -8888.3436     931.7176   -9820.0612    4280.6024   -14100.664    113.70387   -736.52681   -744.60168   -796.46081    217.14372    59.234504   -23.604021      46.7237      46.7237      46.7237           90           90           90     102002.7   -759.19643 
  506000       505500   -8923.6226    901.45092   -9825.0736    4274.3116   -14099.385    110.01022   -1009.7353   -1010.0308   -723.73891    77.072458     198.9738    108.96409      46.7237      46.7237      46.7237           90           90           90     102002.7   -914.50166 
  507000       506500    -8897.579    897.42261   -9795.0016    4275.2688    -14070.27    109.51862   -872.49588   -761.74166   -1352.8221   -28.947391    -111.1418   -22.837383      46.7237      46.7237      46.7237           90           90           90     102002.7   -995.68655 
  508000       507500   -8836.7912    920.44504   -9757.2363    4319.4288   -14076.665    112.32821   -753.06142   -1290.4152   -1133.1819   -124.97263   -140.25879   -211.54732      46.7237      46.7237      46.7237           90           90           90     102002.7   -1058.8861 
  509000       508500   -8901.7485    907.65786   -9809.4063    4285.0153   -14094.422     110.7677   -1069.1615   -997.66356   -908.44358    101.79026    57.208547     50.26456      46.7237      46.7237      46.7237           90           90           90     102002.7    -991.7562 
  510000       509500   -8889.2171    898.39257   -9787.6097    4282.4507    -14070.06    109.63699   -884.19614   -1186.4237   -492.65539    106.92671   -72.909357   -126.39327      46.7237      46.7237      46.7237           90           90           90     102002.7   -854.42509 
  511000       510500   -8887.8794    926.68143   -9814.5609    4280.9175   -14095.478    113.08927   -590.52505   -638.46468   -893.34441   -106.14702    76.170219    132.30082      46.7237      46.7237      46.7237           90           90           90     102002.7   -707.44471 
  512000       511500   -8905.5396    901.24783   -9806.7874    4287.4722    -14094.26    109.98544    -1196.467   -985.90209   -1346.9626    288.63119   -25.180591   -92.806767      46.7237      46.7237      46.7237           90           90           90     102002.7   -1176.4439 
  513000       512500   -8887.5007    918.42369   -9805.9244    4274.5041   -14080.428    112.08153   -1140.6292   -638.87304   -1103.2033    146.87235   -247.50307   -159.56419      46.7237      46.7237      46.7237           90           90           90     102002.7   -960.90185 
  514000       513500   -8927.9751    885.76969   -9813.7448     4274.533   -14088.278    108.09654   -996.64643   -747.13584    -314.6378    -162.0239    333.57176   -14.369075      46.7237      46.7237      46.7237           90           90           90     102002.7   -686.14002 
  515000       514500   -8928.0159    893.87537   -9821.8912    4276.2216   -14098.113    109.08573   -858.47529   -1106.9973   -583.09369    148.74951   -22.566743    91.477212      46.7237      46.7237      46.7237           90           90           90     102002.7   -849.52209 
  516000       515500   -8925.0934    911.96254    -9837.056    4277.5044    -14114.56    111.29303   -600.84968   -1007.7165   -881.59522   -43.801971    78.504458    275.65482      46.7237      46.7237      46.7237           90           90           90     102002.7   -830.05381 
  517000       516500   -8916.8162    896.64291   -9813.4591    4282.1008    -14095.56    109.42347   -748.63731   -613.77919   -682.34863   -67.448503     31.23584    59.812276      46.7237      46.7237      46.7237           90           90           90     102002.7   -681.58838 
  518000       517500    -8904.804    914.24401    -9819.048    4274.2702   -14093.318    111.57145   -945.92453   -1009.6795   -1006.2044    127.18908    23.903041    282.65685      46.7237      46.7237      46.7237           90           90           90     102002.7   -987.26948 
  519000       518500   -8890.1883     922.1761   -9812.3644    4285.8694   -14098.234    112.53946   -814.94071   -837.20251   -1453.7629    62.609389    -86.29528    287.04472      46.7237      46.7237      46.7237           90           90           90     102002.7    -1035.302 
  520000       519500   -8895.3392    901.93688   -9797.2761    4297.2873   -14094.563    110.06953   -1146.0425   -1173.0723   -991.83698    79.098996    9.7521873   -6.5946598      46.7237      46.7237      46.7237           90           90           90     102002.7   -1103.6506 
  521000       520500    -8914.741    938.29875   -9853.0397    4248.2428   -14101.282    114.50702   -949.30676   -883.77732   -770.49843   -24.989742   -37.375957    164.45288      46.7237      46.7237      46.7237           90           90           90     102002.7   -867.86084 
  522000       521500   -8897.4735    905.85149    -9803.325    4287.0547    -14090.38    110.54725   -1246.7078   -575.04816   -851.42948   -63.243817    123.92336    38.821817      46.7237      46.7237      46.7237           90           90           90     102002.7   -891.06183 
  523000       522500   -8961.3185    877.59992   -9838.9184    4260.4705   -14099.389    107.09952   -986.12904   -1194.2707   -843.88441   -188.75255    184.91468    19.097581      46.7237      46.7237      46.7237           90           90           90     102002.7   -1008.0947 
  524000       523500   -8923.7041    888.07755   -9811.7816    4299.6229   -14111.405    108.37818   -1206.1599   -995.85795   -1439.3872    32.331862    88.963575   -84.046872      46.7237      46.7237      46.7237           90           90           90     102002.7   -1213.8017 
  525000       524500   -8923.9409    905.11283   -9829.0537    4281.9608   -14111.014    110.45711    -945.5134   -954.24486   -651.77194    37.453057   -143.68356    6.1828763      46.7237      46.7237      46.7237           90           90           90     102002.7   -850.51006 
  526000       525500   -8882.1839    905.38445   -9787.5684    4283.9469   -14071.515    110.49026   -1021.3271   -1426.8928   -949.91506   -242.76713    13.988542   -91.011099      46.7237      46.7237      46.7237           90           90           90     102002.7   -1132.7117 
  527000       526500   -8910.5544    895.61231   -9806.1667    4281.0724   -14087.239     109.2977   -1249.2962    -634.2414   -895.22097    60.932618    148.94399    120.55162      46.7237      46.7237      46.7237           90           90           90     102002.7   -926.25285 
  528000       527500   -8880.1981    919.52018   -9799.7183    4281.4766   -14081.195    112.21534   -1313.1061   -1599.9461   -835.49148    -24.57689   -78.288625    133.02174      46.7237      46.7237      46.7237           90           90           90     102002.7   -1249.5146 
  529000       528500   -8861.9734     913.7738   -9775.7472    4325.5955   -14101.343    111.51407   -1635.0105   -956.28155   -1217.9745   -219.78571    104.10508    -161.4961      46.7237      46.7237      46.7237           90           90           90     102002.7   -1269.7555 
  530000       529500   -8886.1716     915.4198   -9801.5914    4282.8655   -14084.457    111.71494   -1326.4836   -1300.7246   -565.75533   -59.978236   -52.899225   -259.58261      46.7237      46.7237      46.7237           90           90           90     102002.7   -1064.3212 
  531000       530500   -8886.7958    930.40947   -9817.2053    4270.8969   -14088.102    113.54423   -552.99815   -1136.5387   -845.45794   -38.192059    193.94293     32.05579      46.7237      46.7237      46.7237           90           90           90     102002.7   -844.99825 
  532000       531500   -8938.2757    885.31591   -9823.5916    4275.7273   -14099.319    108.04116   -923.29733   -737.76759   -1056.7302    -147.6815    44.125084    229.50163      46.7237      46.7237      46.7237           90           90           90     102002.7   -905.93172 
  533000       532500   -8920.7142    890.78683   -9811.5011    4268.2339   -14079.735    108.70881   -853.88504   -696.16046   -449.80508   -13.509206   -160.93759    117.24004      46.7237      46.7237      46.7237           90           90           90     102002.7   -666.61686 
  534000       533500   -8912.6349    888.13081   -9800.7657    4285.9858   -14086.751    108.38468   -1492.0725   -543.79711   -1055.3693    109.89025   -183.53345   -66.326821      46.7237      46.7237      46.7237           90           90           90     102002.7    -1030.413 
  535000       534500   -8939.2973    882.68145   -9821.9787    4276.2725   -14098.251    107.71966   -1516.3103   -1474.1882   -934.01453     95.32137    42.151451   -220.58033      46.7237      46.7237      46.7237           90           90           90     102002.7    -1308.171 
  536000       535500   -8894.7352    915.98033   -9810.7155    4301.8804   -14112.596    111.78335   -873.81527   -881.03643   -903.92428   -181.59576   -14.081556   -53.908116      46.7237      46.7237      46.7237           90           90           90     102002.7   -886.25866 
  537000       536500   -8910.0342    885.11265   -9795.1468    4280.6189   -14075.766    108.01635   -1408.8808    -1166.313   -1236.0049    82.650027    25.990038   -292.20974      46.7237      46.7237      46.7237           90           90           90     102002.7   -1270.3995 
  538000       537500   -8938.2124    883.96824   -9822.1806    4283.5881   -14105.769    107.87669   -1074.5936   -1378.2713    -844.5895   -54.049726   -69.154206     80.35053      46.7237      46.7237      46.7237           90           90           90     102002.7   -1099.1515 
  539000       538500   -8907.8703    888.37373    -9796.244    4299.1082   -14095.352    108.41432   -985.67854   -738.63156   -943.83994   -7.8727312    6.8491023   -221.07764      46.7237      46.7237      46.7237           90           90           90     102002.7   -889.38335 
  540000       539500   -8903.0713     910.3376   -9813.4089    4297.4003   -14110.809    111.09473   -1028.8581   -1213.7139   -960.42136   -81.229016    218.23397    207.33669      46.7237      46.7237      46.7237           90           90           90     102002.7   -1067.6644 
  541000       540500   -8919.1699     888.7608   -9807.9307    4298.5841   -14106.515    108.46156   -840.43398   -1120.0886   -1438.2978    231.09825    98.793824    40.479619      46.7237      46.7237      46.7237           90           90           90     102002.7   -1132.9401 
  542000       541500   -8906.8163    897.27444   -9804.0907    4295.6493    -14099.74    109.50054   -690.07602   -1248.4012   -1360.5339   -40.084986    -51.69295   0.51440139      46.7237      46.7237      46.7237           90           90           90     102002.7   -1099.6704 
  543000       542500   -8943.3772     896.7112   -9840.0885    4262.9165   -14103.005     109.4318   -991.42738   -1041.1685   -750.67003    173.05954   -93.460564    100.36439      46.7237      46.7237      46.7237           90           90           90     102002.7    -927.7553 
  544000       543500   -8915.1047    906.95987   -9822.0646    4278.4103   -14100.475    110.68252   -847.46946   -789.00215    -895.5559    247.82196    27.450366    192.42727      46.7237      46.7237      46.7237           90           90           90     102002.7   -844.00917 
  545000       544500   -8897.9093    913.80543   -9811.7147    4298.8635   -14110.578    111.51793   -1176.5463   -1152.5335   -915.25173    257.50173    269.17018    75.430659      46.7237      46.7237      46.7237           90           90           90     102002.7   -1081.4438 
  546000       545500   -8890.4419    904.03582   -9794.4777    4291.3422    -14085.82    110.32568   -524.84525   -753.57885   -1372.1717    -158.1914    36.305161   -104.57177      46.7237      46.7237      46.7237           90           90           90     102002.7   -883.53194 
  547000       546500   -8922.5429    888.91718   -9811.4601    4279.3788   -14090.839    108.48065   -910.05564   -808.38371    -597.5992   -179.68956    76.722329   -119.24123      46.7237      46.7237      46.7237           90           90           90     102002.7   -772.01285 
  548000       547500   -8914.4736    896.17128   -9810.6448    4279.1287   -14089.774    109.36591   -1341.5465   -849.80023   -1076.9991    102.89041    129.38264    287.05937      46.7237      46.7237      46.7237           90           90           90     102002.7   -1089.4486 
  549000       548500   -8891.0876    915.12734   -9806.2149     4280.765    -14086.98    111.67925   -999.30486   -813.24338   -897.35917   0.30537427    5.6495076   -39.940072      46.7237      46.7237      46.7237           90           90           90     102002.7   -903.30247 
  550000       549500   -8905.0974    889.87096   -9794.9683    4278.1268   -14073.095    108.59704   -1167.8484   -1433.5627   -782.63738    167.55672    434.94943    121.82417      46.7237      46.7237      46.7237           90           90           90     102002.7   -1128.0161 
  551000       550500   -8916.0297    895.52272   -9811.5524    4317.1419   -14128.694    109.28676   -1431.0529    -1183.143   -1141.8295    78.679288   -121.26796   -195.49056      46.7237      46.7237      46.7237           90           90           90     102002.7   -1252.0085 
  552000       551500   -8922.3474    909.62628   -9831.9737    4301.2641   -14133.238    111.00792   -1502.1807   -1045.4674   -1094.2254    307.88028    33.052366    159.37063      46.7237      46.7237      46.7237           90           90           90     102002.7   -1213.9578 
  553000       552500   -8925.4064    921.47894   -9846.8854    4270.2622   -14117.148    112.45438   -1519.8528   -1952.6199   -1335.2944   -48.133252   -170.31441   -221.51708      46.7237      46.7237      46.7237           90           90           90     102002.7    -1602.589 
  554000       553500   -8954.3175    888.55165   -9842.8691    4254.5124   -14097.382    108.43604   -906.01508    -939.7718   -940.29529   -107.52292   -141.32073   -108.33723      46.7237      46.7237      46.7237           90           90           90     102002.7   -928.69406 
  555000       554500   -8909.4391    901.01525   -9810.4543    4308.2642   -14118.718    109.95706   -1193.8159   -1006.6512   -1005.0131    207.19819     57.12343       275.86      46.7237      46.7237      46.7237           90           90           90     102002.7   -1068.4934 
[...]
  936000       935500    -8917.707    894.03733   -9811.7443    4283.2013   -14094.946    109.10549   -1077.4899   -918.15591   -615.32128    101.77527    3.7646137    90.879474      46.7237      46.7237      46.7237           90           90           90     102002.7   -870.32236 
  937000       936500   -8902.1791    907.10344   -9809.2825    4273.9215   -14083.204    110.70004   -945.94303   -1211.3674   -923.34613   -183.95095    118.35585    95.985744      46.7237      46.7237      46.7237           90           90           90     102002.7   -1026.8855 
  938000       937500   -8881.0951    917.23133   -9798.3264    4297.3423   -14095.669    111.93601   -536.92292   -974.14964   -1170.7229    79.622896    -233.7011    188.87566      46.7237      46.7237      46.7237           90           90           90     102002.7   -893.93183 
  939000       938500   -8911.8896    884.09788   -9795.9875    4278.4092   -14074.397    107.89251   -859.25655   -943.68958   -1112.6899   -118.14681   -177.93167    230.71836      46.7237      46.7237      46.7237           90           90           90     102002.7   -971.87866 
  940000       939500   -8915.8961    895.62893    -9811.525    4281.3207   -14092.846    109.29973   -992.06331   -536.89777   -845.12932   -44.236854    186.09165   -348.31938      46.7237      46.7237      46.7237           90           90           90     102002.7   -791.36347 
  941000       940500   -8932.2252    906.63315   -9838.8584    4260.6289   -14099.487    110.64265   -968.20175   -290.58256   -885.13328     15.51391    166.41706    175.41129      46.7237      46.7237      46.7237           90           90           90     102002.7    -714.6392 
  942000       941500   -8903.3141    888.92654   -9792.2406    4302.6686   -14094.909    108.48179   -953.89373   -761.30555    -530.8037    192.57203     45.23308    136.60789      46.7237      46.7237      46.7237           90           90           90     102002.7   -748.66766 
  943000       942500   -8869.9882    945.07708   -9815.0653    4277.9495   -14093.015    115.33422   -676.75819   -1415.5895   -993.97348    62.950312    13.473931   -7.7325027      46.7237      46.7237      46.7237           90           90           90     102002.7   -1028.7737 
  944000       943500   -8934.4772    900.44087    -9834.918    4265.9717    -14100.89    109.88696   -996.84251   -665.99566    -894.3416   -76.718572   -83.012187   -67.152529      46.7237      46.7237      46.7237           90           90           90     102002.7   -852.39326 
  945000       944500   -8930.7068    916.90499   -9847.6117    4279.1803   -14126.792    111.89619   -1076.7854   -347.44575   -1291.7982   -18.725164   -105.24606    -54.16025      46.7237      46.7237      46.7237           90           90           90     102002.7   -905.34311 
  946000       945500    -8940.735    895.86132   -9836.5963    4282.7402   -14119.337    109.32809   -784.45022   -1391.9811   -478.89584   -15.453424    -66.78107    261.98013      46.7237      46.7237      46.7237           90           90           90     102002.7   -885.10906 
  947000       946500   -8911.8253     906.9187    -9818.744    4290.5238   -14109.268    110.67749   -917.07753   -1014.6682    -1149.327   -116.00162   -79.870089    -142.4547      46.7237      46.7237      46.7237           90           90           90     102002.7   -1027.0242 
  948000       947500   -8908.7892    908.54879    -9817.338    4285.7271   -14103.065    110.87642   -687.53103   -1092.0825   -643.94093    43.304427    123.65775    44.991268      46.7237      46.7237      46.7237           90           90           90     102002.7   -807.85149 
  949000       948500    -8892.966    910.85312   -9803.8191    4297.7574   -14101.577    111.15764   -1225.5193   -896.13642   -850.78988    5.3685013    39.424806   -33.082241      46.7237      46.7237      46.7237           90           90           90     102002.7   -990.81521 
  950000       949500   -8923.1091    901.49619   -9824.6053    4273.1658   -14097.771    110.01575   -498.20764   -480.74273   -633.23519      105.837   -211.36196   -50.104633      46.7237      46.7237      46.7237           90           90           90     102002.7   -537.39519 
  951000       950500   -8914.4988     915.7875   -9830.2863    4262.5262   -14092.812    111.75981   -627.04139   -751.19152    -441.1205    323.47804   -162.75554   -4.6413596      46.7237      46.7237      46.7237           90           90           90     102002.7   -606.45114 
  952000       951500   -8876.6596    922.10161   -9798.7612    4310.7131   -14109.474    112.53037   -1030.5877    -1169.785   -989.16413    63.662548   -216.22794   -178.65656      46.7237      46.7237      46.7237           90           90           90     102002.7   -1063.1789 
  953000       952500   -8915.6209    901.77882   -9817.3997    4288.7484   -14106.148    110.05024   -1358.0943   -764.53433    -934.5513   -147.48458   -30.572414   -106.14668      46.7237      46.7237      46.7237           90           90           90     102002.7     -1019.06 
  954000       953500   -8877.2739    916.74764   -9794.0216    4308.7748   -14102.796    111.87699   -1046.6464   -1237.0971   -960.06301   -183.77662    92.770391     -37.8981      46.7237      46.7237      46.7237           90           90           90     102002.7   -1081.2688 
  955000       954500   -8919.2463    900.54091   -9819.7872    4295.4621   -14115.249    109.89917    -960.7909   -924.31242   -691.30614    -173.0562    24.026116   -88.779939      46.7237      46.7237      46.7237           90           90           90     102002.7   -858.80315 
  956000       955500   -8897.0913    912.19848   -9809.2898    4297.3078   -14106.598    111.32182    -1089.976   -1539.1835    -927.8089    216.48655    5.7704568    82.024235      46.7237      46.7237      46.7237           90           90           90     102002.7   -1185.6561 
  957000       956500   -8901.6249    914.95064   -9816.5755    4295.3504   -14111.926    111.65769   -1093.1867    -750.7066   -1223.9383    -62.88423    107.89939    71.205454      46.7237      46.7237      46.7237           90           90           90     102002.7   -1022.6105 
  958000       957500   -8937.1871    898.64688    -9835.834    4274.4886   -14110.323    109.66803   -1147.8453   -536.59635   -551.19856    127.08128  -0.72440323    60.182082      46.7237      46.7237      46.7237           90           90           90     102002.7    -745.2134 
  959000       958500   -8909.3534    894.48541   -9803.8388    4302.5663   -14106.405    109.16017   -1285.2493   -1678.0596   -1139.4873    151.55015    337.27431   -174.31174      46.7237      46.7237      46.7237           90           90           90     102002.7   -1367.5987 
  960000       959500   -8916.5757    880.62466   -9797.2004    4298.0295    -14095.23    107.46865   -1311.5533   -833.44747   -927.92353    61.929344   -52.610504   -25.891427      46.7237      46.7237      46.7237           90           90           90     102002.7   -1024.3081 
  961000       960500   -8933.9503    899.66945   -9833.6198    4272.6872   -14106.307    109.79282   -352.98345   -298.02095    -909.0875    45.250055   -237.92407   -62.952345      46.7237      46.7237      46.7237           90           90           90     102002.7   -520.03063 
  962000       961500   -8886.9558    916.42445   -9803.3803    4301.8137   -14105.194    111.83755   -804.06273    -1129.655    -729.0039    182.82421   -37.905824    382.28298      46.7237      46.7237      46.7237           90           90           90     102002.7   -887.57386 
  963000       962500   -8906.5844    903.90938   -9810.4937      4288.43   -14098.924    110.31025   -888.12373   -1170.7816   -1415.2282    177.78579   -95.219021    128.79788      46.7237      46.7237      46.7237           90           90           90     102002.7   -1158.0445 
  964000       963500   -8963.5798    883.94664   -9847.5264    4260.5504   -14108.077    107.87406   -1072.3702   -501.74905   -740.42218    272.17345    23.993393   -37.928741      46.7237      46.7237      46.7237           90           90           90     102002.7   -771.51381 
  965000       964500   -8914.4971     899.5763   -9814.0734    4280.4798   -14094.553    109.78145   -1111.8215   -1089.8146   -1061.0903   -160.10798    220.03458     29.78498      46.7237      46.7237      46.7237           90           90           90     102002.7   -1087.5755 
  966000       965500   -8886.3176    925.57731   -9811.8949    4291.6282   -14103.523    112.95453    -738.5769    -1045.281   -1010.7949    99.179412    104.66617   -108.59195      46.7237      46.7237      46.7237           90           90           90     102002.7   -931.55094 
  967000       966500   -8941.0268    910.13217   -9851.1589    4270.6239   -14121.783    111.06966   -1111.8783   -1061.0755   -975.84047   -189.91935    -21.20677    107.80115      46.7237      46.7237      46.7237           90           90           90     102002.7   -1049.5981 
  968000       967500   -8916.1485    899.26996   -9815.4185    4287.8223   -14103.241    109.74406   -993.29904   -1168.3457   -744.89212    180.97217   -206.79795   -58.593202      46.7237      46.7237      46.7237           90           90           90     102002.7   -968.84562 
  969000       968500   -8936.6144     892.2787   -9828.8931    4270.5745   -14099.468    108.89087   -1063.0382   -808.19081   -941.83599   -52.421088   -34.535992   -193.02445      46.7237      46.7237      46.7237           90           90           90     102002.7   -937.68832 
  970000       969500   -8926.3141    913.75724   -9840.0713    4278.1809   -14118.252    111.51205   -1179.2921   -907.33486   -958.99512    45.900626   -160.22135    220.77461      46.7237      46.7237      46.7237           90           90           90     102002.7   -1015.2074 
  971000       970500   -8947.1957     904.2383    -9851.434    4274.5763    -14126.01    110.35039   -1337.0984   -887.45543   -824.23319   -35.774687   -81.155402   -132.33721      46.7237      46.7237      46.7237           90           90           90     102002.7   -1016.2623 
  972000       971500   -8898.4685    911.05278   -9809.5212    4286.2209   -14095.742      111.182   -1170.4063   -660.55916   -883.75168   -239.00692    155.22386   -54.704822      46.7237      46.7237      46.7237           90           90           90     102002.7   -904.90572 
  973000       972500   -8928.3277    898.08829    -9826.416    4283.0362   -14109.452    109.59986   -1026.6188   -925.59095    -1151.657    168.16406   -100.55955    252.64775      46.7237      46.7237      46.7237           90           90           90     102002.7   -1034.6223 
  974000       973500   -8913.1395    910.63711   -9823.7767    4265.6611   -14089.438    111.13128   -985.81315   -806.28985   -640.71808    104.06325    173.92653    225.28366      46.7237      46.7237      46.7237           90           90           90     102002.7   -810.94036 
  975000       974500   -8907.6865    880.82908   -9788.5156    4301.2907   -14089.806     107.4936   -1597.9865   -1179.0209   -655.07319    261.01159    165.09001   -59.198362      46.7237      46.7237      46.7237           90           90           90     102002.7   -1144.0269 
  976000       975500    -8884.696    899.92428   -9784.6203    4289.7539   -14074.374    109.82392   -1403.1139   -967.34114   -1177.2063    12.259283    110.99575     -35.0579      46.7237      46.7237      46.7237           90           90           90     102002.7   -1182.5538 
  977000       976500   -8890.9427    906.98162   -9797.9244    4280.1949   -14078.119    110.68517   -1326.4729   -1300.5817   -990.63425    174.25238    158.25521    207.19788      46.7237      46.7237      46.7237           90           90           90     102002.7   -1205.8963 
  978000       977500   -8895.1669    901.20445   -9796.3714    4283.2758   -14079.647    109.98014   -1339.1149   -672.66343    -854.6542    100.07974   -80.697779    24.337456      46.7237      46.7237      46.7237           90           90           90     102002.7   -955.47751 
  979000       978500   -8917.9125    889.34657    -9807.259    4297.7623   -14105.021    108.53305   -877.44542   -622.88204   -775.08643   -31.947821   -172.70193   -430.91981      46.7237      46.7237      46.7237           90           90           90     102002.7   -758.47129 
  980000       979500   -8923.7022    912.38173    -9836.084    4253.6671   -14089.751    111.34418   -1225.1736   -1110.8774   -780.09478    -39.01677    36.904561    37.346059      46.7237      46.7237      46.7237           90           90           90     102002.7   -1038.7152 
  981000       980500   -8937.4712    898.88236   -9836.3536    4265.2217   -14101.575    109.69676   -757.97001   -536.79739   -610.47852   -3.0056607   -55.397499    101.92768      46.7237      46.7237      46.7237           90           90           90     102002.7   -635.08197 
  982000       981500    -8934.104    883.42611   -9817.5301    4286.1972   -14103.727    107.81053   -754.23053   -1060.1131   -833.66529    259.47054    33.252649   -217.23578      46.7237      46.7237      46.7237           90           90           90     102002.7   -882.66963 
  983000       982500   -8924.1866    913.39541    -9837.582    4260.7674   -14098.349    111.46789   -898.33447   -873.56657   -1012.0985   -53.548837    37.219608    -197.6123      46.7237      46.7237      46.7237           90           90           90     102002.7   -927.99985 
  984000       983500   -8947.4373    873.17978   -9820.6171    4269.3726    -14089.99     106.5601   -767.23991   -647.44563   -1015.4976   -141.91079    263.62228    107.44362      46.7237      46.7237      46.7237           90           90           90     102002.7   -810.06106 
  985000       984500   -8922.2867    903.81521   -9826.1019    4286.5068   -14112.609    110.29875   -1044.5003   -1030.6882   -928.29808   -136.40251   -182.21983    221.59703      46.7237      46.7237      46.7237           90           90           90     102002.7   -1001.1622 
  986000       985500   -8918.1193    912.24245   -9830.3617    4280.6934   -14111.055    111.32719    -908.0299   -974.36217    -924.2156     116.6337    53.728786   -25.705426      46.7237      46.7237      46.7237           90           90           90     102002.7   -935.53589 
  987000       986500   -8957.3183    895.24849   -9852.5668     4260.344   -14112.911     109.2533   -680.21483   -955.32952   -1446.9475   -42.987446   -20.239963   -99.408036      46.7237      46.7237      46.7237           90           90           90     102002.7   -1027.4973 
  988000       987500   -8935.1338    894.07251   -9829.2064    4288.1456   -14117.352    109.10978   -801.95592   -553.38424   -1146.3596    129.00576   -223.24881   -258.07636      46.7237      46.7237      46.7237           90           90           90     102002.7   -833.89992 
  989000       988500   -8926.5007    907.66031    -9834.161    4275.7992    -14109.96      110.768   -623.05398   -904.14683   -1096.3593    182.22631   -33.845569    11.584411      46.7237      46.7237      46.7237           90           90           90     102002.7   -874.52003 
  990000       989500   -8935.7711    920.25555   -9856.0266    4284.6593   -14140.686    112.30508   -850.18055   -849.42642    -949.1803    269.80475    97.156896    174.98088      46.7237      46.7237      46.7237           90           90           90     102002.7   -882.92909 
  991000       990500   -8923.5683    899.18299   -9822.7513    4276.8954   -14099.647    109.73345   -915.21767   -1035.2024   -125.35294    72.797795   -211.27808    7.8954113      46.7237      46.7237      46.7237           90           90           90     102002.7   -691.92432 
  992000       991500    -8931.656    896.04553   -9827.7016    4282.4905   -14110.192    109.35057   -1200.6704   -883.23219   -1006.4552     43.98287    76.508321   -122.84163      46.7237      46.7237      46.7237           90           90           90     102002.7   -1030.1193 
  993000       992500     -8905.39    920.12423   -9825.5142    4271.9211   -14097.435    112.28905   -723.77193   -1131.7777   -1058.3941   -149.68012   -160.35775    203.38477      46.7237      46.7237      46.7237           90           90           90     102002.7   -971.31458 
  994000       993500   -8910.7946    893.40743   -9804.2021    4295.9779    -14100.18    109.02862   -1096.0231   -1246.1143   -1062.9182   -136.95623   -16.488833    29.942442      46.7237      46.7237      46.7237           90           90           90     102002.7   -1135.0185 
  995000       994500   -8899.5733    910.97149   -9810.5448    4274.4979   -14085.043    111.17208   -1209.2976    -1021.497   -556.11127   -137.68041    134.21644    199.53666      46.7237      46.7237      46.7237           90           90           90     102002.7   -928.96862 
  996000       995500   -8907.9615    878.08183   -9786.0433    4302.9837   -14089.027    107.15833   -1310.0323   -857.88097   -1069.4325    86.402978   -68.958663    45.103227      46.7237      46.7237      46.7237           90           90           90     102002.7   -1079.1152 
  997000       996500   -8915.6551    905.67769   -9821.3328    4286.2803   -14107.613    110.52604   -1503.9849   -1220.8495   -1051.7121   -52.233068   -102.26979   -236.46378      46.7237      46.7237      46.7237           90           90           90     102002.7   -1258.8488 
  998000       997500   -8923.8186     897.9206   -9821.7392    4309.4063   -14131.145    109.57939   -1721.7141   -651.81084   -955.13967    253.24774   -137.76171   -53.523506      46.7237      46.7237      46.7237           90           90           90     102002.7   -1109.5549 
  999000       998500   -8923.1684    901.95061   -9825.1191    4269.3642   -14094.483     110.0712   -1199.5354   -939.00854   -966.66689   -88.082285   -107.78708   -67.955067      46.7237      46.7237      46.7237           90           90           90     102002.7   -1035.0703 
 1000000       999500   -8895.7082    900.24526   -9795.9534    4299.9514   -14095.905    109.86309   -1232.7519   -958.16884   -697.42889    43.427231   -90.912324   -49.381779      46.7237      46.7237      46.7237           90           90           90     102002.7    -962.7832 
 1000500      1000000   -8887.3493    894.14473    -9781.494    4293.9574   -14075.451     109.1186   -1326.3894   -907.20637   -853.67192   -69.556246     69.99939    116.20588      46.7237      46.7237      46.7237           90           90           90     102002.7   -1029.0892 
Loop time of 937.987 on 24 procs for 500000 steps with 2750 atoms

Performance: 46.056 ns/day, 0.521 hours/ns, 533.057 timesteps/s
98.3% CPU use with 24 MPI tasks x no OpenMP threads

MPI task timing breakdown:
Section |  min time  |  avg time  |  max time  |%varavg| %total
---------------------------------------------------------------
Pair    | 277.35     | 474.23     | 674.16     | 509.0 | 50.56
Bond    | 49.589     | 82.769     | 118        | 210.2 |  8.82
Neigh   | 6.4853     | 6.5028     | 6.5196     |   0.4 |  0.69
Comm    | 130.65     | 351.78     | 580.93     | 680.5 | 37.50
Output  | 0.46537    | 0.504      | 0.50579    |   1.1 |  0.05
Modify  | 12.36      | 12.911     | 13.414     |   9.1 |  1.38
Other   |            | 9.29       |            |       |  0.99

Nlocal:    114.583 ave 141 max 83 min
Histogram: 1 3 2 4 2 1 2 3 2 4
Nghost:    3092.96 ave 3171 max 3036 min
Histogram: 2 4 6 2 1 1 2 2 2 2
Neighs:    7643 ave 13506 max 3200 min
Histogram: 1 3 3 4 4 4 2 2 0 1

Total # of neighbors = 183432
Ave neighs/atom = 66.7025
Ave special neighs/atom = 4.18909
Neighbor list builds = 4700
Dangerous builds = 0
Total wall time: 0:28:18
