LAMMPS (30 Mar 2018)
Reading data file ...
  orthogonal box = (0 0 0) to (46.7237 46.7237 46.7237)
  2 by 2 by 4 MPI processor grid
  reading atoms ...
  3332 atoms
  scanning bonds ...
  5 = max bonds/atom
  scanning angles ...
  10 = max angles/atom
  scanning dihedrals ...
  32 = max dihedrals/atom
  scanning impropers ...
  3 = max impropers/atom
  reading bonds ...
  2064 bonds
  reading angles ...
  3696 angles
  reading dihedrals ...
  6240 dihedrals
  reading impropers ...
  1008 impropers
Finding 1-2 1-3 1-4 neighbors ...
  special bond factors lj:   0          0          0         
  special bond factors coul: 0          0          0         
  5 = max # of 1-2 neighbors
  8 = max # of 1-3 neighbors
  20 = max # of 1-4 neighbors
  19 = max # of special neighbors
Finding 1-2 1-3 1-4 neighbors ...
  special bond factors lj:   0          0          1         
  special bond factors coul: 1          1          1         
  5 = max # of 1-2 neighbors
  8 = max # of 1-3 neighbors
  19 = max # of special neighbors
WARNING: Using 'neigh_modify every 1 delay 0 check yes' setting during minimization (../min.cpp:168)
Neighbor list info ...
  update every 1 steps, delay 0 steps, check yes
  max neighbors/atom: 2000, page size: 100000
  master list distance cutoff = 16
  ghost atom cutoff = 16
  binsize = 8, bins = 6 6 6
  3 neighbor lists, perpetual/occasional/extra = 3 0 0
  (1) pair buck6d/coul/gauss/dsf, perpetual, skip from (3)
      attributes: half, newton on
      pair build: skip
      stencil: none
      bin: none
  (2) pair lj/cut, perpetual, skip from (3)
      attributes: half, newton on
      pair build: skip
      stencil: none
      bin: none
  (3) neighbor class addition, perpetual
      attributes: half, newton on
      pair build: half/bin/newton
      stencil: half/bin/3d/newton
      bin: standard
Setting up cg style minimization ...
  Unit style    : real
  Current step  : 0
WARNING: Inconsistent image flags (../domain.cpp:786)
Per MPI rank memory allocation (min/avg/max) = 23.03 | 23.48 | 23.93 Mbytes
Step Temp E_pair E_mol TotEng Press 
       0            0   -16015.934    6482.8914   -9533.0428    6782.0997 
     500            0   -16397.916    3788.9265   -12608.989     -1125.91 
Loop time of 4.86557 on 16 procs for 500 steps with 3332 atoms

99.9% CPU use with 16 MPI tasks x no OpenMP threads

Minimization stats:
  Stopping criterion = max force evaluations
  Energy initial, next-to-last, final = 
        -9533.04279899     -12608.9535206      -12608.989492
  Force two-norm initial, final = 2575.03 9.24076
  Force max component initial, final = 152.08 1.55346
  Final line search alpha, max atom move = 0.0158046 0.0245518
  Iterations, force evaluations = 500 1000

MPI task timing breakdown:
Section |  min time  |  avg time  |  max time  |%varavg| %total
---------------------------------------------------------------
Pair    | 2.6807     | 3.1437     | 4.041      |  19.1 | 64.61
Bond    | 0.27861    | 0.36015    | 0.44373    |   8.5 |  7.40
Neigh   | 0.029505   | 0.029605   | 0.029784   |   0.0 |  0.61
Comm    | 0.31293    | 1.2868     | 1.7216     |  31.6 | 26.45
Output  | 0          | 0          | 0          |   0.0 |  0.00
Modify  | 0          | 0          | 0          |   0.0 |  0.00
Other   |            | 0.04528    |            |       |  0.93

Nlocal:    208.25 ave 236 max 181 min
Histogram: 1 0 5 3 0 1 0 2 2 2
Nghost:    4161.44 ave 4191 max 4124 min
Histogram: 1 0 2 1 1 4 2 1 3 1
Neighs:    11503.6 ave 17878 max 8090 min
Histogram: 5 0 1 5 1 1 1 1 0 1

Total # of neighbors = 184057
Ave neighs/atom = 55.2392
Ave special neighs/atom = 3.45738
Neighbor list builds = 8
Dangerous builds = 0
Neighbor list info ...
  update every 1 steps, delay 10 steps, check yes
  max neighbors/atom: 2000, page size: 100000
  master list distance cutoff = 16
  ghost atom cutoff = 16
  binsize = 8, bins = 6 6 6
  3 neighbor lists, perpetual/occasional/extra = 3 0 0
  (1) pair buck6d/coul/gauss/dsf, perpetual, skip from (3)
      attributes: half, newton on
      pair build: skip
      stencil: none
      bin: none
  (2) pair lj/cut, perpetual, skip from (3)
      attributes: half, newton on
      pair build: skip
      stencil: none
      bin: none
  (3) neighbor class addition, perpetual
      attributes: half, newton on
      pair build: half/bin/newton
      stencil: half/bin/3d/newton
      bin: standard
Setting up Verlet run ...
  Unit style    : real
  Current step  : 500
  Time step     : 1
WARNING: Inconsistent image flags (../domain.cpp:786)
Per MPI rank memory allocation (min/avg/max) = 22.67 | 22.74 | 22.8 Mbytes
Step Temp PotEng TotEng Press Volume Lx Ly Lz 
     500           91   -12608.989   -11705.443   -720.98789     102002.7      46.7237      46.7237      46.7237 
    1000     75.65927   -11851.168   -11099.942    342.28196     102002.7      46.7237      46.7237      46.7237 
    2000    92.155119   -11695.781   -10780.766    599.49324     102002.7      46.7237      46.7237      46.7237 
    3000    89.809541   -11707.238   -10815.512    744.28237     102002.7      46.7237      46.7237      46.7237 
    4000    89.530242   -11704.266   -10815.313    834.41983     102002.7      46.7237      46.7237      46.7237 
    5000    91.583912   -11742.911   -10833.567    618.00051     102002.7      46.7237      46.7237      46.7237 
    6000    91.279333   -11752.189   -10845.869    610.64611     102002.7      46.7237      46.7237      46.7237 
    7000     92.30791   -11738.485   -10821.952    642.32328     102002.7      46.7237      46.7237      46.7237 
    8000    91.603332   -11747.355   -10837.818    495.63958     102002.7      46.7237      46.7237      46.7237 
    9000    91.238164    -11718.55   -10812.639    616.11751     102002.7      46.7237      46.7237      46.7237 
   10000    90.967815   -11756.501   -10853.274    822.68798     102002.7      46.7237      46.7237      46.7237 
   11000    89.984868   -11764.944   -10871.477    655.59364     102002.7      46.7237      46.7237      46.7237 
   12000    90.404413    -11733.13   -10835.497    901.63591     102002.7      46.7237      46.7237      46.7237 
   13000    90.136403   -11742.575   -10847.604    740.27464     102002.7      46.7237      46.7237      46.7237 
   14000    90.760982   -11734.487   -10833.314    891.45382     102002.7      46.7237      46.7237      46.7237 
   15000    89.449124   -11750.916   -10862.769    802.39377     102002.7      46.7237      46.7237      46.7237 
   16000    90.265801   -11746.672   -10850.416    716.03939     102002.7      46.7237      46.7237      46.7237 
   17000    90.411643   -11744.843   -10847.139    797.71251     102002.7      46.7237      46.7237      46.7237 
   18000    91.772465   -11748.519   -10837.303    754.19325     102002.7      46.7237      46.7237      46.7237 
   19000    89.568653   -11744.957   -10855.623    642.74137     102002.7      46.7237      46.7237      46.7237 
   20000     93.57134   -11764.471   -10835.394    615.73654     102002.7      46.7237      46.7237      46.7237 
   21000    90.491398   -11763.235   -10864.739    627.05596     102002.7      46.7237      46.7237      46.7237 
   22000    92.987342   -11758.812   -10835.534    713.12073     102002.7      46.7237      46.7237      46.7237 
   23000    91.592713   -11741.566   -10832.135    684.18289     102002.7      46.7237      46.7237      46.7237 
   24000    92.258948   -11766.304   -10850.258     884.3097     102002.7      46.7237      46.7237      46.7237 
   25000    90.852167   -11786.442   -10884.364    573.99281     102002.7      46.7237      46.7237      46.7237 
   26000    91.208376   -11753.134   -10847.519    675.63476     102002.7      46.7237      46.7237      46.7237 
   27000    89.976656   -11753.062   -10859.676    750.19577     102002.7      46.7237      46.7237      46.7237 
   28000    88.902075   -11744.199   -10861.483    601.10617     102002.7      46.7237      46.7237      46.7237 
   29000    91.632419   -11761.608   -10851.783    550.23971     102002.7      46.7237      46.7237      46.7237 
   30000    90.437669   -11783.933   -10885.971    641.72358     102002.7      46.7237      46.7237      46.7237 
   31000    91.886385   -11764.259   -10851.912    449.42271     102002.7      46.7237      46.7237      46.7237 
   32000    92.027886   -11768.698   -10854.946    474.27849     102002.7      46.7237      46.7237      46.7237 
   33000     91.27778   -11746.088   -10839.784     887.9427     102002.7      46.7237      46.7237      46.7237 
   34000    90.299488   -11771.008   -10874.417     634.1579     102002.7      46.7237      46.7237      46.7237 
   35000    89.414391    -11770.97   -10883.168    702.31662     102002.7      46.7237      46.7237      46.7237 
   36000    92.981965    -11767.39   -10844.165    903.32162     102002.7      46.7237      46.7237      46.7237 
   37000    89.628086   -11785.656   -10895.732    631.11501     102002.7      46.7237      46.7237      46.7237 
   38000    91.213198   -11785.038   -10879.375     605.2968     102002.7      46.7237      46.7237      46.7237 
   39000    90.245416   -11790.705   -10894.651     771.8387     102002.7      46.7237      46.7237      46.7237 
   40000    91.190269    -11757.85   -10852.415    683.32507     102002.7      46.7237      46.7237      46.7237 
   41000    93.067062   -11770.939   -10846.869    697.81595     102002.7      46.7237      46.7237      46.7237 
   42000    89.514287   -11762.746   -10873.951     729.1131     102002.7      46.7237      46.7237      46.7237 
   43000    91.122419   -11773.395   -10868.634    810.69832     102002.7      46.7237      46.7237      46.7237 
   44000    89.980556   -11768.453   -10875.029    817.33905     102002.7      46.7237      46.7237      46.7237 
   45000    91.221152   -11769.512    -10863.77    564.49465     102002.7      46.7237      46.7237      46.7237 
   46000    90.348718   -11743.058   -10845.979    868.78849     102002.7      46.7237      46.7237      46.7237 
   47000    88.979845   -11766.475   -10882.987    597.15267     102002.7      46.7237      46.7237      46.7237 
   48000     90.57104    -11776.15   -10876.863    551.71504     102002.7      46.7237      46.7237      46.7237 
   49000    88.576093   -11772.387   -10892.908    375.75675     102002.7      46.7237      46.7237      46.7237 
   50000    92.089035    -11759.48   -10845.121    559.71955     102002.7      46.7237      46.7237      46.7237 
   51000    90.770438   -11781.864   -10880.597    656.62481     102002.7      46.7237      46.7237      46.7237 
   52000    90.777991   -11785.455   -10884.114     474.7696     102002.7      46.7237      46.7237      46.7237 
   53000    91.558599   -11783.376   -10874.283    522.02239     102002.7      46.7237      46.7237      46.7237 
   54000    90.445134   -11772.433   -10874.396    430.76873     102002.7      46.7237      46.7237      46.7237 
   55000    91.200991   -11779.419   -10873.877    707.64962     102002.7      46.7237      46.7237      46.7237 
   56000    90.239392   -11754.612   -10858.618     1002.898     102002.7      46.7237      46.7237      46.7237 
   57000    89.045667   -11743.949   -10859.807    567.66249     102002.7      46.7237      46.7237      46.7237 
   58000    91.470196   -11735.316   -10827.101    1143.4965     102002.7      46.7237      46.7237      46.7237 
   59000    90.346299   -11755.701   -10858.646    960.81038     102002.7      46.7237      46.7237      46.7237 
   60000     90.73121   -11768.799   -10867.922    862.97642     102002.7      46.7237      46.7237      46.7237 
   61000    91.116078   -11747.307   -10842.609    885.22993     102002.7      46.7237      46.7237      46.7237 
   62000    92.385843   -11753.653   -10836.347    760.75671     102002.7      46.7237      46.7237      46.7237 
   63000    92.665534   -11768.826   -10848.742    548.75653     102002.7      46.7237      46.7237      46.7237 
   64000    88.305803   -11785.775    -10908.98     567.1671     102002.7      46.7237      46.7237      46.7237 
   65000    90.529169   -11768.041    -10869.17    656.50114     102002.7      46.7237      46.7237      46.7237 
   66000    91.028846   -11749.773    -10845.94    603.07689     102002.7      46.7237      46.7237      46.7237 
   67000     89.72316   -11757.316   -10866.448    518.77307     102002.7      46.7237      46.7237      46.7237 
   68000    90.454766     -11753.9   -10855.768    876.12678     102002.7      46.7237      46.7237      46.7237 
   69000    90.929088   -11797.903   -10895.061    779.21877     102002.7      46.7237      46.7237      46.7237 
   70000    92.534712   -11760.041   -10841.256    602.89452     102002.7      46.7237      46.7237      46.7237 
   71000    90.565859   -11766.412   -10867.177    595.41067     102002.7      46.7237      46.7237      46.7237 
   72000    90.235242   -11773.225   -10877.272    820.59505     102002.7      46.7237      46.7237      46.7237 
   73000    92.791177   -11783.603   -10862.272    577.50351     102002.7      46.7237      46.7237      46.7237 
   74000     90.55591   -11769.939   -10870.802    518.42962     102002.7      46.7237      46.7237      46.7237 
   75000    90.779206   -11749.296   -10847.942    722.51196     102002.7      46.7237      46.7237      46.7237 
   76000    89.760588   -11767.608   -10876.369    789.04816     102002.7      46.7237      46.7237      46.7237 
   77000    92.647251    -11766.87   -10846.968    874.92079     102002.7      46.7237      46.7237      46.7237 
   78000    92.722126   -11785.976   -10865.331     648.9489     102002.7      46.7237      46.7237      46.7237 
   79000    89.931829   -11785.982   -10893.041    829.56405     102002.7      46.7237      46.7237      46.7237 
   80000    90.280195   -11772.182   -10875.783    766.53499     102002.7      46.7237      46.7237      46.7237 
   81000    91.713326   -11756.786   -10846.157    834.68145     102002.7      46.7237      46.7237      46.7237 
   82000    92.010358   -11765.812   -10852.234    378.52254     102002.7      46.7237      46.7237      46.7237 
   83000    89.803612   -11774.515   -10882.848    479.46896     102002.7      46.7237      46.7237      46.7237 
   84000    90.258827   -11770.921   -10874.734    443.86494     102002.7      46.7237      46.7237      46.7237 
   85000    89.896071   -11762.926    -10870.34    711.89012     102002.7      46.7237      46.7237      46.7237 
   86000    91.271401   -11773.872   -10867.631    808.85258     102002.7      46.7237      46.7237      46.7237 
   87000    90.122406   -11777.496   -10882.664    585.14283     102002.7      46.7237      46.7237      46.7237 
   88000    90.768725   -11747.726   -10846.477    769.69245     102002.7      46.7237      46.7237      46.7237 
   89000    88.936217   -11777.027   -10893.972    853.32846     102002.7      46.7237      46.7237      46.7237 
   90000    93.650812   -11758.068   -10828.202    872.98433     102002.7      46.7237      46.7237      46.7237 
   91000    91.730791   -11749.783   -10838.981    767.01343     102002.7      46.7237      46.7237      46.7237 
   92000    89.537397   -11761.923   -10872.899    745.80207     102002.7      46.7237      46.7237      46.7237 
   93000    92.867417   -11786.758    -10864.67     369.1091     102002.7      46.7237      46.7237      46.7237 
   94000    92.407139   -11752.119   -10834.601    764.89682     102002.7      46.7237      46.7237      46.7237 
   95000    89.697785   -11770.045   -10879.429    612.21836     102002.7      46.7237      46.7237      46.7237 
   96000    89.797288   -11779.682   -10888.078     616.3452     102002.7      46.7237      46.7237      46.7237 
   97000    90.393173   -11759.963   -10862.442     760.5103     102002.7      46.7237      46.7237      46.7237 
   98000    91.922113   -11786.909   -10874.207    704.91594     102002.7      46.7237      46.7237      46.7237 
   99000    92.478042    -11760.67   -10842.449    557.26846     102002.7      46.7237      46.7237      46.7237 
  100000    92.192665   -11763.751   -10848.362    825.07168     102002.7      46.7237      46.7237      46.7237 
  101000    88.642653    -11754.36    -10874.22    734.98609     102002.7      46.7237      46.7237      46.7237 
  102000    90.974128   -11792.685   -10889.396    618.01346     102002.7      46.7237      46.7237      46.7237 
  103000    91.557376    -11796.85   -10887.769    853.24465     102002.7      46.7237      46.7237      46.7237 
  104000    90.666471   -11756.977   -10856.742    762.41792     102002.7      46.7237      46.7237      46.7237 
  105000    92.433952   -11754.562   -10836.778    957.45787     102002.7      46.7237      46.7237      46.7237 
  106000    90.431911   -11776.225    -10878.32    618.85699     102002.7      46.7237      46.7237      46.7237 
  107000    91.009862   -11781.792   -10878.148    542.82218     102002.7      46.7237      46.7237      46.7237 
  108000    91.220202   -11771.116   -10865.384      651.191     102002.7      46.7237      46.7237      46.7237 
  109000    90.593429     -11784.2   -10884.691    456.58819     102002.7      46.7237      46.7237      46.7237 
  110000    89.351743   -11776.778   -10889.598    675.99169     102002.7      46.7237      46.7237      46.7237 
  111000    93.959807    -11778.13   -10845.196    407.15381     102002.7      46.7237      46.7237      46.7237 
  112000    91.486691   -11774.926   -10866.547    690.71466     102002.7      46.7237      46.7237      46.7237 
  113000     90.35123   -11779.688   -10882.583    799.08739     102002.7      46.7237      46.7237      46.7237 
  114000    90.352234   -11785.689   -10888.575    683.34383     102002.7      46.7237      46.7237      46.7237 
  115000    90.258021   -11775.094   -10878.915    886.88742     102002.7      46.7237      46.7237      46.7237 
  116000    88.457691   -11770.389   -10892.085    628.93167     102002.7      46.7237      46.7237      46.7237 
  117000    88.950044   -11774.129   -10890.937    597.72842     102002.7      46.7237      46.7237      46.7237 
  118000    91.380204   -11761.052   -10853.731    608.35778     102002.7      46.7237      46.7237      46.7237 
  119000    90.065557   -11786.869   -10892.601    429.45664     102002.7      46.7237      46.7237      46.7237 
  120000    92.331347   -11769.014   -10852.249    736.86627     102002.7      46.7237      46.7237      46.7237 
  121000     92.38302   -11743.657   -10826.379    872.96466     102002.7      46.7237      46.7237      46.7237 
  122000    92.227746   -11770.093   -10854.357    858.51722     102002.7      46.7237      46.7237      46.7237 
  123000     90.28437    -11763.83    -10867.39    852.95648     102002.7      46.7237      46.7237      46.7237 
  124000    92.312809    -11775.71   -10859.129    862.41397     102002.7      46.7237      46.7237      46.7237 
  125000    89.018899   -11756.618   -10872.742    850.60233     102002.7      46.7237      46.7237      46.7237 
  126000    90.905404   -11759.407     -10856.8    641.44611     102002.7      46.7237      46.7237      46.7237 
  127000     90.67747   -11773.135   -10872.791    424.03633     102002.7      46.7237      46.7237      46.7237 
  128000    91.022607   -11763.056   -10859.286    793.77341     102002.7      46.7237      46.7237      46.7237 
  129000     90.75974   -11769.351    -10868.19    696.38492     102002.7      46.7237      46.7237      46.7237 
  130000    93.402621   -11756.611   -10829.209    508.74502     102002.7      46.7237      46.7237      46.7237 
  131000    90.300519   -11782.655   -10886.054    670.03356     102002.7      46.7237      46.7237      46.7237 
  132000    92.027349     -11792.9   -10879.153    547.27558     102002.7      46.7237      46.7237      46.7237 
  133000    90.601361   -11765.577   -10865.989    766.03978     102002.7      46.7237      46.7237      46.7237 
  134000    91.228036   -11762.733   -10856.923     1125.063     102002.7      46.7237      46.7237      46.7237 
  135000    91.960017   -11764.485   -10851.407    687.95134     102002.7      46.7237      46.7237      46.7237 
  136000    91.063503   -11756.657    -10852.48    819.84206     102002.7      46.7237      46.7237      46.7237 
  137000    91.503371    -11779.99   -10871.445    735.56098     102002.7      46.7237      46.7237      46.7237 
  138000    90.609616    -11765.34    -10865.67    709.11223     102002.7      46.7237      46.7237      46.7237 
  139000    92.276621   -11791.267   -10875.045    674.35203     102002.7      46.7237      46.7237      46.7237 
  140000    91.323331   -11778.619   -10871.862     742.1408     102002.7      46.7237      46.7237      46.7237 
  141000    92.090257   -11781.381   -10867.009    867.30039     102002.7      46.7237      46.7237      46.7237 
  142000    90.955455   -11782.558   -10879.454    831.31504     102002.7      46.7237      46.7237      46.7237 
  143000    90.409558   -11753.727   -10856.043    918.03361     102002.7      46.7237      46.7237      46.7237 
  144000     90.37783   -11780.804   -10883.436    694.76317     102002.7      46.7237      46.7237      46.7237 
  145000    88.937253   -11768.107   -10885.042    755.46781     102002.7      46.7237      46.7237      46.7237 
  146000    93.036788   -11762.912   -10839.143    626.90159     102002.7      46.7237      46.7237      46.7237 
  147000    92.048208   -11786.134    -10872.18    342.38203     102002.7      46.7237      46.7237      46.7237 
  148000    91.693565   -11782.508   -10872.075    679.59922     102002.7      46.7237      46.7237      46.7237 
  149000    93.318856   -11780.016   -10853.446    582.63689     102002.7      46.7237      46.7237      46.7237 
  150000     92.41412   -11792.518   -10874.931    864.44938     102002.7      46.7237      46.7237      46.7237 
  151000    91.282792   -11790.978   -10884.624     974.1503     102002.7      46.7237      46.7237      46.7237 
  152000    90.435458   -11792.888   -10894.947    651.20516     102002.7      46.7237      46.7237      46.7237 
  153000     91.56426   -11790.563   -10881.414    712.48284     102002.7      46.7237      46.7237      46.7237 
  154000    88.974186   -11757.944   -10874.512    692.04163     102002.7      46.7237      46.7237      46.7237 
  155000    90.484183     -11782.8   -10884.376    694.52947     102002.7      46.7237      46.7237      46.7237 
  156000    91.739459    -11790.43   -10879.542    591.30001     102002.7      46.7237      46.7237      46.7237 
  157000     93.89711   -11804.367   -10872.055    597.29577     102002.7      46.7237      46.7237      46.7237 
  158000    92.491984   -11781.091   -10862.731      737.875     102002.7      46.7237      46.7237      46.7237 
  159000    89.485385   -11773.583   -10885.075    824.02341     102002.7      46.7237      46.7237      46.7237 
  160000     91.48577   -11791.121   -10882.752    518.74461     102002.7      46.7237      46.7237      46.7237 
  161000    91.641999   -11763.524   -10853.603    637.40158     102002.7      46.7237      46.7237      46.7237 
  162000    88.964238   -11772.063    -10888.73    573.06088     102002.7      46.7237      46.7237      46.7237 
  163000    88.016271   -11777.142   -10903.222    564.93199     102002.7      46.7237      46.7237      46.7237 
  164000    91.599172   -11759.094   -10849.599    765.27752     102002.7      46.7237      46.7237      46.7237 
  165000     91.62929   -11793.285    -10883.49    580.68628     102002.7      46.7237      46.7237      46.7237 
  166000    91.967586   -11784.686   -10871.532    956.02602     102002.7      46.7237      46.7237      46.7237 
  167000    90.744195   -11811.203   -10910.197    600.05789     102002.7      46.7237      46.7237      46.7237 
  168000    90.724937   -11789.431   -10888.616     857.8972     102002.7      46.7237      46.7237      46.7237 
  169000    89.118128   -11771.712   -10886.851    898.98744     102002.7      46.7237      46.7237      46.7237 
  170000    89.053458   -11806.075   -10921.857    780.13765     102002.7      46.7237      46.7237      46.7237 
  171000    90.963266   -11786.218   -10883.037    718.56015     102002.7      46.7237      46.7237      46.7237 
  172000     89.62384   -11763.442    -10873.56    820.27557     102002.7      46.7237      46.7237      46.7237 
  173000     93.83897    -11785.05   -10853.315    688.80104     102002.7      46.7237      46.7237      46.7237 
  174000    91.692504   -11793.681   -10883.258    700.29318     102002.7      46.7237      46.7237      46.7237 
  175000    90.776235   -11789.714    -10888.39    713.18898     102002.7      46.7237      46.7237      46.7237 
  176000    89.989326   -11789.104   -10895.593    1051.9512     102002.7      46.7237      46.7237      46.7237 
  177000    91.005921   -11793.815    -10890.21    513.79474     102002.7      46.7237      46.7237      46.7237 
  178000    91.067825    -11777.38    -10873.16    810.02816     102002.7      46.7237      46.7237      46.7237 
  179000    93.267639     -11818.7   -10892.638    909.31254     102002.7      46.7237      46.7237      46.7237 
  180000    93.634403   -11769.815   -10840.111    777.03852     102002.7      46.7237      46.7237      46.7237 
  181000    91.257331   -11809.198   -10903.097    851.90553     102002.7      46.7237      46.7237      46.7237 
  182000    94.178448   -11782.533   -10847.428    916.36981     102002.7      46.7237      46.7237      46.7237 
  183000     90.63325   -11795.628   -10895.724    802.20377     102002.7      46.7237      46.7237      46.7237 
  184000    91.325622   -11799.298   -10892.519    1051.8935     102002.7      46.7237      46.7237      46.7237 
  185000    92.053401   -11786.556    -10872.55    760.69688     102002.7      46.7237      46.7237      46.7237 
  186000    92.095686     -11807.7   -10893.274    757.55828     102002.7      46.7237      46.7237      46.7237 
  187000    91.181681    -11799.77    -10894.42    876.84608     102002.7      46.7237      46.7237      46.7237 
  188000    91.192651   -11783.403   -10877.944    610.95767     102002.7      46.7237      46.7237      46.7237 
  189000     92.43866   -11803.862   -10886.031    687.51108     102002.7      46.7237      46.7237      46.7237 
  190000    94.380603   -11795.453   -10858.341     866.6453     102002.7      46.7237      46.7237      46.7237 
  191000    92.282247   -11787.225   -10870.947    716.73747     102002.7      46.7237      46.7237      46.7237 
  192000    90.523536    -11797.03   -10898.215    913.97793     102002.7      46.7237      46.7237      46.7237 
  193000    94.079066   -11786.383   -10852.265    799.04684     102002.7      46.7237      46.7237      46.7237 
  194000    89.435456   -11783.414   -10895.402    586.24322     102002.7      46.7237      46.7237      46.7237 
  195000    93.427172   -11789.292   -10861.646    648.01302     102002.7      46.7237      46.7237      46.7237 
  196000    89.845622   -11780.003   -10887.919    693.83865     102002.7      46.7237      46.7237      46.7237 
  197000    91.273932   -11803.078   -10896.812    843.19355     102002.7      46.7237      46.7237      46.7237 
  198000    90.049945   -11780.424   -10886.311    685.81607     102002.7      46.7237      46.7237      46.7237 
  199000    90.312828   -11795.141   -10898.418    720.24882     102002.7      46.7237      46.7237      46.7237 
  200000    90.881902   -11783.546   -10881.172    516.80951     102002.7      46.7237      46.7237      46.7237 
  201000    93.112206    -11783.68   -10859.161    615.61607     102002.7      46.7237      46.7237      46.7237 
  202000    89.467994   -11784.987   -10896.652    500.39205     102002.7      46.7237      46.7237      46.7237 
  203000    90.742896   -11802.823    -10901.83    633.56173     102002.7      46.7237      46.7237      46.7237 
  204000    91.419651   -11789.239   -10881.526    866.66517     102002.7      46.7237      46.7237      46.7237 
  205000    89.677432   -11814.069   -10923.655     813.8235     102002.7      46.7237      46.7237      46.7237 
  206000    92.416374   -11788.742   -10871.133    383.44369     102002.7      46.7237      46.7237      46.7237 
  207000    92.415797    -11807.41   -10889.806    626.96901     102002.7      46.7237      46.7237      46.7237 
  208000    93.808767   -11789.521   -10858.087    559.19591     102002.7      46.7237      46.7237      46.7237 
  209000    89.663102   -11797.992    -10907.72    585.41632     102002.7      46.7237      46.7237      46.7237 
  210000    92.895845   -11786.726   -10864.356    472.89699     102002.7      46.7237      46.7237      46.7237 
  211000     89.83977    -11783.88   -10891.854    728.62018     102002.7      46.7237      46.7237      46.7237 
  212000    90.172208   -11799.912   -10904.585    962.38047     102002.7      46.7237      46.7237      46.7237 
  213000    90.578628   -11774.177   -10874.814    857.08557     102002.7      46.7237      46.7237      46.7237 
  214000     88.98681   -11796.011   -10912.454    924.71538     102002.7      46.7237      46.7237      46.7237 
  215000    91.421945   -11793.138   -10885.402    873.98156     102002.7      46.7237      46.7237      46.7237 
  216000    91.645831   -11790.884   -10880.926    834.76961     102002.7      46.7237      46.7237      46.7237 
  217000    91.791389   -11798.618   -10887.215    729.18699     102002.7      46.7237      46.7237      46.7237 
  218000    90.899211   -11795.465    -10892.92    765.24681     102002.7      46.7237      46.7237      46.7237 
  219000    90.729316   -11772.551   -10871.692    899.99848     102002.7      46.7237      46.7237      46.7237 
  220000    88.921668    -11805.37   -10922.459    873.35417     102002.7      46.7237      46.7237      46.7237 
  221000    94.350018   -11799.854   -10863.045    656.11366     102002.7      46.7237      46.7237      46.7237 
  222000    88.103083   -11787.271   -10912.488    571.56532     102002.7      46.7237      46.7237      46.7237 
  223000    89.642815   -11800.898   -10910.827    618.20125     102002.7      46.7237      46.7237      46.7237 
  224000    90.378814   -11793.049   -10895.671    506.47804     102002.7      46.7237      46.7237      46.7237 
  225000    91.127389   -11794.088   -10889.277    660.69357     102002.7      46.7237      46.7237      46.7237 
  226000    90.779484   -11803.016   -10901.659    684.00328     102002.7      46.7237      46.7237      46.7237 
  227000    92.347615   -11788.045   -10871.118    711.37999     102002.7      46.7237      46.7237      46.7237 
  228000    90.010186   -11791.103   -10897.385    548.07505     102002.7      46.7237      46.7237      46.7237 
  229000    90.165985   -11802.568   -10907.303    812.65052     102002.7      46.7237      46.7237      46.7237 
  230000    90.843171   -11796.287   -10894.298    692.93272     102002.7      46.7237      46.7237      46.7237 
  231000    89.598233   -11811.199   -10921.571    847.36866     102002.7      46.7237      46.7237      46.7237 
  232000     90.28593   -11819.435   -10922.979    806.96063     102002.7      46.7237      46.7237      46.7237 
  233000    92.653878   -11805.358    -10885.39    364.01471     102002.7      46.7237      46.7237      46.7237 
  234000    90.094621   -11797.858   -10903.301    796.04655     102002.7      46.7237      46.7237      46.7237 
  235000    92.566618   -11788.696   -10869.595    831.26111     102002.7      46.7237      46.7237      46.7237 
  236000    89.906608   -11797.278   -10904.588    513.54465     102002.7      46.7237      46.7237      46.7237 
  237000    91.275356   -11788.296   -10882.015    725.27042     102002.7      46.7237      46.7237      46.7237 
  238000    90.927366   -11803.626   -10900.801    776.61878     102002.7      46.7237      46.7237      46.7237 
  239000    90.080801   -11778.993   -10884.573    998.59646     102002.7      46.7237      46.7237      46.7237 
  240000    92.935191   -11809.057   -10886.296    740.46543     102002.7      46.7237      46.7237      46.7237 
  241000    92.305444   -11796.595   -10880.087    504.22503     102002.7      46.7237      46.7237      46.7237 
  242000    93.638371   -11783.442   -10853.699    769.91499     102002.7      46.7237      46.7237      46.7237 
  243000    91.141686   -11777.807   -10872.854    637.78998     102002.7      46.7237      46.7237      46.7237 
  244000    90.657989   -11783.669   -10883.518    719.84536     102002.7      46.7237      46.7237      46.7237 
  245000    89.194443   -11779.969    -10894.35    683.15186     102002.7      46.7237      46.7237      46.7237 
  246000    91.832725   -11789.549   -10877.735    1023.1292     102002.7      46.7237      46.7237      46.7237 
  247000     92.47651   -11805.473   -10887.266     754.0635     102002.7      46.7237      46.7237      46.7237 
  248000    91.637208   -11769.163   -10859.289    752.66849     102002.7      46.7237      46.7237      46.7237 
  249000    93.365212   -11800.405   -10873.375    849.64008     102002.7      46.7237      46.7237      46.7237 
  250000    90.873701   -11779.899   -10877.607    640.85545     102002.7      46.7237      46.7237      46.7237 
  251000    91.695021   -11787.857    -10877.41    496.64984     102002.7      46.7237      46.7237      46.7237 
  252000    92.063775   -11805.525   -10891.417    766.42292     102002.7      46.7237      46.7237      46.7237 
  253000    89.625253   -11786.653   -10896.757    746.39063     102002.7      46.7237      46.7237      46.7237 
  254000    91.198673   -11802.549   -10897.031    883.51164     102002.7      46.7237      46.7237      46.7237 
  255000    89.345489     -11790.1   -10902.982    584.86437     102002.7      46.7237      46.7237      46.7237 
  256000    93.512529   -11773.879   -10845.386    651.15912     102002.7      46.7237      46.7237      46.7237 
  257000    90.014739   -11807.101   -10913.338    947.27287     102002.7      46.7237      46.7237      46.7237 
  258000    92.272534   -11807.302   -10891.121    956.03765     102002.7      46.7237      46.7237      46.7237 
  259000    90.412186   -11794.678   -10896.968    630.31715     102002.7      46.7237      46.7237      46.7237 
  260000    88.872963   -11804.396   -10921.969    814.25496     102002.7      46.7237      46.7237      46.7237 
  261000    89.812391   -11788.744    -10896.99    720.22144     102002.7      46.7237      46.7237      46.7237 
  262000    93.380337   -11773.786   -10846.605    593.58423     102002.7      46.7237      46.7237      46.7237 
  263000    90.946676   -11797.685   -10894.669    744.26884     102002.7      46.7237      46.7237      46.7237 
  264000    91.289664   -11794.243   -10887.821    545.77664     102002.7      46.7237      46.7237      46.7237 
  265000    91.298671   -11799.585   -10893.074    664.01857     102002.7      46.7237      46.7237      46.7237 
  266000    91.315031   -11793.838   -10887.164    669.85124     102002.7      46.7237      46.7237      46.7237 
  267000    88.868921   -11792.981   -10910.594    632.57995     102002.7      46.7237      46.7237      46.7237 
  268000    92.478806    -11809.03   -10890.801    784.31319     102002.7      46.7237      46.7237      46.7237 
  269000    91.249927   -11797.951   -10891.924    733.86567     102002.7      46.7237      46.7237      46.7237 
  270000    90.548983   -11819.263   -10920.195    544.11668     102002.7      46.7237      46.7237      46.7237 
  271000    90.299115    -11779.71   -10883.123    1082.7932     102002.7      46.7237      46.7237      46.7237 
  272000    89.515843   -11803.982   -10915.172    720.95138     102002.7      46.7237      46.7237      46.7237 
  273000    89.887615   -11792.302   -10899.801     444.5671     102002.7      46.7237      46.7237      46.7237 
  274000    92.457596   -11781.073   -10863.054    810.50684     102002.7      46.7237      46.7237      46.7237 
  275000    89.932771     -11771.5   -10878.551    639.40315     102002.7      46.7237      46.7237      46.7237 
  276000     89.55423   -11815.136   -10925.945    704.44513     102002.7      46.7237      46.7237      46.7237 
  277000    90.228405   -11807.935    -10912.05    962.63312     102002.7      46.7237      46.7237      46.7237 
  278000    93.990102   -11788.962   -10855.727    867.05892     102002.7      46.7237      46.7237      46.7237 
  279000     91.11174    -11793.61   -10888.954    805.68624     102002.7      46.7237      46.7237      46.7237 
  280000    91.860373   -11807.018   -10894.929    710.50103     102002.7      46.7237      46.7237      46.7237 
  281000    89.975614   -11788.766   -10895.391    673.24341     102002.7      46.7237      46.7237      46.7237 
  282000     91.11021   -11804.828   -10900.187    580.38033     102002.7      46.7237      46.7237      46.7237 
  283000    91.717184   -11803.554   -10892.887    689.30541     102002.7      46.7237      46.7237      46.7237 
  284000    92.533272   -11784.483   -10865.713    823.13464     102002.7      46.7237      46.7237      46.7237 
  285000    90.398014   -11807.105   -10909.536     589.8643     102002.7      46.7237      46.7237      46.7237 
  286000    89.391256   -11792.525   -10904.952    616.97779     102002.7      46.7237      46.7237      46.7237 
  287000    91.109424    -11777.04   -10872.407    726.64272     102002.7      46.7237      46.7237      46.7237 
  288000    90.274238   -11804.059   -10907.719    717.72658     102002.7      46.7237      46.7237      46.7237 
  289000    93.073398   -11786.817   -10862.684    1131.0856     102002.7      46.7237      46.7237      46.7237 
  290000    92.051752   -11798.161   -10884.172     781.8164     102002.7      46.7237      46.7237      46.7237 
  291000    91.639963   -11806.958   -10897.058    835.75582     102002.7      46.7237      46.7237      46.7237 
  292000    88.550723   -11799.877    -10920.65    580.68706     102002.7      46.7237      46.7237      46.7237 
  293000    89.625639   -11810.745   -10920.845    530.34342     102002.7      46.7237      46.7237      46.7237 
  294000    90.424876   -11787.494   -10889.658    793.48652     102002.7      46.7237      46.7237      46.7237 
  295000    91.671172   -11790.552   -10880.342    789.28257     102002.7      46.7237      46.7237      46.7237 
  296000    91.370785   -11783.324   -10876.096    712.63511     102002.7      46.7237      46.7237      46.7237 
  297000    90.121769   -11797.567   -10902.741    676.29532     102002.7      46.7237      46.7237      46.7237 
  298000    92.400031   -11784.626   -10867.179    592.98035     102002.7      46.7237      46.7237      46.7237 
  299000    90.345253   -11815.115    -10918.07    557.87545     102002.7      46.7237      46.7237      46.7237 
  300000    90.522247   -11787.647   -10888.845    733.79543     102002.7      46.7237      46.7237      46.7237 
  301000    90.164506   -11814.554   -10919.304    825.33337     102002.7      46.7237      46.7237      46.7237 
  302000    90.788795   -11801.887   -10900.438    842.34316     102002.7      46.7237      46.7237      46.7237 
  303000    92.020218   -11797.892   -10884.216    740.79646     102002.7      46.7237      46.7237      46.7237 
  304000    87.930279   -11791.558   -10918.491    799.75236     102002.7      46.7237      46.7237      46.7237 
  305000    90.948123   -11817.065   -10914.034    689.33179     102002.7      46.7237      46.7237      46.7237 
  306000    91.679882   -11773.558   -10863.261    533.08999     102002.7      46.7237      46.7237      46.7237 
  307000    90.978083   -11795.782   -10892.454    736.39353     102002.7      46.7237      46.7237      46.7237 
  308000     90.41747   -11812.314   -10914.552    848.43273     102002.7      46.7237      46.7237      46.7237 
  309000    90.726323   -11812.462   -10911.633      637.279     102002.7      46.7237      46.7237      46.7237 
  310000     90.62497   -11806.348   -10906.526    614.97264     102002.7      46.7237      46.7237      46.7237 
  311000    89.987119   -11798.138   -10904.649    722.79338     102002.7      46.7237      46.7237      46.7237 
  312000    90.090689   -11795.596   -10901.079    530.13272     102002.7      46.7237      46.7237      46.7237 
  313000    89.705235   -11799.203   -10908.513    473.69881     102002.7      46.7237      46.7237      46.7237 
  314000    91.004015   -11804.736    -10901.15    746.01618     102002.7      46.7237      46.7237      46.7237 
  315000    91.588931   -11791.004   -10881.611    805.98498     102002.7      46.7237      46.7237      46.7237 
  316000    92.361258   -11791.259   -10874.197    670.38174     102002.7      46.7237      46.7237      46.7237 
  317000    90.323558    -11799.74    -10902.91    528.68109     102002.7      46.7237      46.7237      46.7237 
  318000    90.090207   -11769.273   -10874.761    515.56161     102002.7      46.7237      46.7237      46.7237 
  319000    92.709841   -11809.997   -10889.474    634.64731     102002.7      46.7237      46.7237      46.7237 
  320000    92.229102   -11776.106   -10860.356    860.15903     102002.7      46.7237      46.7237      46.7237 
  321000    89.883788   -11786.473    -10894.01    778.11281     102002.7      46.7237      46.7237      46.7237 
  322000    92.237618   -11790.474    -10874.64    892.78378     102002.7      46.7237      46.7237      46.7237 
  323000    89.976348   -11791.698   -10898.315    788.20338     102002.7      46.7237      46.7237      46.7237 
  324000    91.068061   -11791.724   -10887.503    762.58049     102002.7      46.7237      46.7237      46.7237 
  325000     89.81074   -11798.204   -10906.466    589.05263     102002.7      46.7237      46.7237      46.7237 
  326000    89.925728   -11806.626   -10913.747    730.46169     102002.7      46.7237      46.7237      46.7237 
  327000    93.245692   -11791.557   -10865.713    524.41971     102002.7      46.7237      46.7237      46.7237 
  328000    91.328358   -11781.483   -10874.677    615.03785     102002.7      46.7237      46.7237      46.7237 
  329000    90.711693   -11783.767   -10883.083    739.81653     102002.7      46.7237      46.7237      46.7237 
  330000    91.504159   -11799.818   -10891.266    571.60926     102002.7      46.7237      46.7237      46.7237 
  331000    90.683113     -11810.4   -10910.001    668.32408     102002.7      46.7237      46.7237      46.7237 
  332000    90.739699     -11789.8   -10888.839    732.15158     102002.7      46.7237      46.7237      46.7237 
  333000    92.674865   -11784.703   -10864.527     593.9242     102002.7      46.7237      46.7237      46.7237 
  334000    93.754938   -11828.864   -10897.964    751.03081     102002.7      46.7237      46.7237      46.7237 
  335000    88.699088   -11796.809   -10916.108    406.01945     102002.7      46.7237      46.7237      46.7237 
  336000    89.853877   -11806.558   -10914.391    703.25463     102002.7      46.7237      46.7237      46.7237 
  337000    89.846351   -11791.885   -10899.793    527.95209     102002.7      46.7237      46.7237      46.7237 
  338000    92.455064   -11792.703    -10874.71     933.2661     102002.7      46.7237      46.7237      46.7237 
  339000    91.243596   -11804.813   -10898.848    738.79979     102002.7      46.7237      46.7237      46.7237 
  340000    92.356391   -11803.296   -10886.282    558.20065     102002.7      46.7237      46.7237      46.7237 
  341000    89.576646   -11786.881   -10897.468    663.86943     102002.7      46.7237      46.7237      46.7237 
  342000    88.556512   -11783.326   -10904.041    656.12458     102002.7      46.7237      46.7237      46.7237 
  343000    91.004879   -11801.904    -10898.31     731.4859     102002.7      46.7237      46.7237      46.7237 
  344000    90.603275   -11807.934   -10908.327     947.5771     102002.7      46.7237      46.7237      46.7237 
  345000    91.415014   -11788.242   -10880.575    584.35867     102002.7      46.7237      46.7237      46.7237 
  346000    92.795769   -11777.363   -10855.987    826.42213     102002.7      46.7237      46.7237      46.7237 
  347000    89.397908   -11786.408   -10898.769    688.53486     102002.7      46.7237      46.7237      46.7237 
  348000     90.86729   -11788.427   -10886.199    503.63316     102002.7      46.7237      46.7237      46.7237 
  349000      91.5949   -11803.086   -10893.633    651.17983     102002.7      46.7237      46.7237      46.7237 
  350000    92.271915   -11793.278   -10877.103    672.99582     102002.7      46.7237      46.7237      46.7237 
  351000    92.567553   -11790.781    -10871.67    769.37759     102002.7      46.7237      46.7237      46.7237 
  352000    92.009657   -11812.228   -10898.657    906.32093     102002.7      46.7237      46.7237      46.7237 
  353000     89.75174   -11813.315   -10922.163    992.39616     102002.7      46.7237      46.7237      46.7237 
  354000    93.719702   -11804.001   -10873.451    825.37834     102002.7      46.7237      46.7237      46.7237 
  355000     92.43264   -11785.105   -10867.334    918.20768     102002.7      46.7237      46.7237      46.7237 
  356000    90.541052    -11811.48   -10912.491    879.44506     102002.7      46.7237      46.7237      46.7237 
  357000    93.393549   -11796.799   -10869.487    533.12565     102002.7      46.7237      46.7237      46.7237 
  358000    90.547433   -11800.071   -10901.019    816.98192     102002.7      46.7237      46.7237      46.7237 
  359000     92.47033   -11820.816   -10902.671    685.91161     102002.7      46.7237      46.7237      46.7237 
  360000    90.133833   -11796.686    -10901.74    589.98936     102002.7      46.7237      46.7237      46.7237 
  361000    92.005432   -11800.471   -10886.942    741.85557     102002.7      46.7237      46.7237      46.7237 
  362000    91.632205   -11799.349   -10889.525    754.23772     102002.7      46.7237      46.7237      46.7237 
  363000    90.549911   -11784.184   -10885.106    663.61554     102002.7      46.7237      46.7237      46.7237 
  364000     92.69734   -11785.138   -10864.739    707.23105     102002.7      46.7237      46.7237      46.7237 
  365000    90.859455    -11805.04    -10902.89     706.4732     102002.7      46.7237      46.7237      46.7237 
  366000    90.750108   -11804.147   -10903.082    781.28531     102002.7      46.7237      46.7237      46.7237 
  367000    90.066579   -11791.868    -10897.59    623.69762     102002.7      46.7237      46.7237      46.7237 
  368000    91.172244   -11800.883   -10895.626    498.56552     102002.7      46.7237      46.7237      46.7237 
  369000    89.134791   -11822.007   -10936.981    748.69659     102002.7      46.7237      46.7237      46.7237 
  370000      91.0037   -11794.894   -10891.311    684.88992     102002.7      46.7237      46.7237      46.7237 
  371000     91.51406   -11804.304   -10895.653     930.1896     102002.7      46.7237      46.7237      46.7237 
  372000    91.236532    -11810.15   -10904.256    532.65913     102002.7      46.7237      46.7237      46.7237 
  373000     88.51789   -11809.333   -10930.432    669.41652     102002.7      46.7237      46.7237      46.7237 
  374000    91.333703   -11789.016   -10882.157    728.10814     102002.7      46.7237      46.7237      46.7237 
  375000    87.945801   -11818.456   -10945.235    829.52117     102002.7      46.7237      46.7237      46.7237 
  376000    91.220387   -11798.875    -10893.14    733.97893     102002.7      46.7237      46.7237      46.7237 
  377000    90.642677   -11794.173   -10894.175    700.36613     102002.7      46.7237      46.7237      46.7237 
  378000    90.535017   -11788.942   -10890.013    921.09009     102002.7      46.7237      46.7237      46.7237 
  379000     90.42051   -11799.099   -10901.306    719.62202     102002.7      46.7237      46.7237      46.7237 
  380000    88.398897   -11798.876   -10921.157    546.80609     102002.7      46.7237      46.7237      46.7237 
  381000    92.615217   -11801.125   -10881.542    787.28619     102002.7      46.7237      46.7237      46.7237 
  382000    91.021474   -11798.885   -10895.126    523.08483     102002.7      46.7237      46.7237      46.7237 
  383000    91.225457   -11826.879   -10921.095    760.05822     102002.7      46.7237      46.7237      46.7237 
  384000    91.812116   -11797.802   -10886.192     911.2362     102002.7      46.7237      46.7237      46.7237 
  385000    90.165457    -11812.78    -10917.52    745.17197     102002.7      46.7237      46.7237      46.7237 
  386000    89.610542   -11803.274   -10913.524    842.89376     102002.7      46.7237      46.7237      46.7237 
  387000    89.141345   -11818.394   -10933.302    975.12715     102002.7      46.7237      46.7237      46.7237 
  388000    91.225821   -11802.296   -10896.508    552.31118     102002.7      46.7237      46.7237      46.7237 
  389000    91.212237   -11806.462   -10900.808       936.61     102002.7      46.7237      46.7237      46.7237 
  390000     90.85284   -11812.016   -10909.931    831.07169     102002.7      46.7237      46.7237      46.7237 
  391000    89.079097   -11789.979   -10905.506    528.08492     102002.7      46.7237      46.7237      46.7237 
  392000    89.778876   -11802.339   -10910.917    546.61976     102002.7      46.7237      46.7237      46.7237 
  393000    90.621588   -11806.337   -10906.548    860.84821     102002.7      46.7237      46.7237      46.7237 
  394000    88.674588   -11794.713   -10914.256    753.06752     102002.7      46.7237      46.7237      46.7237 
  395000    87.773679   -11778.739   -10907.227     965.0665     102002.7      46.7237      46.7237      46.7237 
  396000    90.544528   -11794.469   -10895.445    876.03268     102002.7      46.7237      46.7237      46.7237 
  397000    91.756013   -11813.805   -10902.752    814.21005     102002.7      46.7237      46.7237      46.7237 
  398000    88.945488   -11814.903   -10931.756    614.02551     102002.7      46.7237      46.7237      46.7237 
  399000    92.074777   -11807.882   -10893.665    775.54836     102002.7      46.7237      46.7237      46.7237 
  400000    90.165955    -11812.77   -10917.506    690.85615     102002.7      46.7237      46.7237      46.7237 
  401000    91.751966   -11803.127   -10892.115    535.23262     102002.7      46.7237      46.7237      46.7237 
  402000    91.649059   -11789.278   -10879.288    752.61892     102002.7      46.7237      46.7237      46.7237 
  403000    89.802879   -11793.022   -10901.362    574.20746     102002.7      46.7237      46.7237      46.7237 
  404000    93.356271    -11795.15   -10868.208    609.81333     102002.7      46.7237      46.7237      46.7237 
  405000    90.789482   -11792.173   -10890.717    695.25302     102002.7      46.7237      46.7237      46.7237 
  406000    89.804613   -11805.759   -10914.082    598.16431     102002.7      46.7237      46.7237      46.7237 
  407000    89.786808   -11800.458   -10908.958     764.5965     102002.7      46.7237      46.7237      46.7237 
  408000     91.69984   -11814.361   -10903.866    634.56346     102002.7      46.7237      46.7237      46.7237 
  409000    92.435587   -11819.692   -10901.892     319.4898     102002.7      46.7237      46.7237      46.7237 
  410000    92.044674     -11798.5   -10884.581    457.49468     102002.7      46.7237      46.7237      46.7237 
  411000    91.687687   -11791.937   -10881.563    864.79059     102002.7      46.7237      46.7237      46.7237 
  412000    91.252033   -11799.548   -10893.499    720.71685     102002.7      46.7237      46.7237      46.7237 
  413000    91.428758    -11812.62   -10904.816    699.00288     102002.7      46.7237      46.7237      46.7237 
  414000    91.591449   -11782.885   -10873.467    867.73567     102002.7      46.7237      46.7237      46.7237 
  415000    90.836109   -11813.724   -10911.805    751.63575     102002.7      46.7237      46.7237      46.7237 
  416000    91.284502   -11786.413   -10880.042    1128.5575     102002.7      46.7237      46.7237      46.7237 
  417000    90.775959   -11809.053   -10907.732    811.86833     102002.7      46.7237      46.7237      46.7237 
  418000    91.701795   -11794.737   -10884.222    944.35833     102002.7      46.7237      46.7237      46.7237 
  419000    89.234327    -11823.03   -10937.015    904.58996     102002.7      46.7237      46.7237      46.7237 
  420000    91.793994   -11826.802   -10915.372    645.09769     102002.7      46.7237      46.7237      46.7237 
  421000    91.383333   -11821.685   -10914.333     722.4158     102002.7      46.7237      46.7237      46.7237 
  422000    91.401208   -11807.002   -10899.472    1008.4332     102002.7      46.7237      46.7237      46.7237 
  423000    92.016258    -11815.49   -10901.853    770.46543     102002.7      46.7237      46.7237      46.7237 
  424000    90.563533   -11789.654   -10890.442    642.77886     102002.7      46.7237      46.7237      46.7237 
  425000    89.184166   -11793.198   -10907.681    658.06066     102002.7      46.7237      46.7237      46.7237 
  426000    90.108695   -11827.769   -10933.072    619.87331     102002.7      46.7237      46.7237      46.7237 
  427000    92.837592   -11787.511    -10865.72    812.32665     102002.7      46.7237      46.7237      46.7237 
  428000    93.428923   -11804.128   -10876.465    905.02157     102002.7      46.7237      46.7237      46.7237 
  429000    90.879281   -11803.511   -10901.164    737.38049     102002.7      46.7237      46.7237      46.7237 
  430000    94.399822   -11825.907   -10888.604    771.78442     102002.7      46.7237      46.7237      46.7237 
  431000    90.329522   -11817.003   -10920.114    534.31546     102002.7      46.7237      46.7237      46.7237 
  432000    91.286717   -11817.211   -10910.818    711.98282     102002.7      46.7237      46.7237      46.7237 
  433000    90.538953   -11775.472   -10876.504    1009.7168     102002.7      46.7237      46.7237      46.7237 
  434000    91.294424   -11805.871   -10899.401    751.09477     102002.7      46.7237      46.7237      46.7237 
  435000     91.71592   -11780.249   -10869.595    829.76562     102002.7      46.7237      46.7237      46.7237 
  436000    92.302026   -11804.841   -10888.367    1022.0179     102002.7      46.7237      46.7237      46.7237 
  437000    90.409596   -11795.247   -10897.563     725.4475     102002.7      46.7237      46.7237      46.7237 
  438000    91.886008   -11805.147   -10892.804    555.54237     102002.7      46.7237      46.7237      46.7237 
  439000    90.838533   -11820.372   -10918.429    658.62893     102002.7      46.7237      46.7237      46.7237 
  440000    89.456503   -11787.304   -10899.083    703.54802     102002.7      46.7237      46.7237      46.7237 
  441000    91.706873   -11786.194    -10875.63    622.15002     102002.7      46.7237      46.7237      46.7237 
  442000    91.850552   -11808.927   -10896.936    630.03109     102002.7      46.7237      46.7237      46.7237 
  443000    93.293254   -11781.967   -10855.651    636.95519     102002.7      46.7237      46.7237      46.7237 
  444000    90.682543   -11789.503   -10889.109    604.69816     102002.7      46.7237      46.7237      46.7237 
  445000    90.617808   -11801.706   -10901.954    820.08565     102002.7      46.7237      46.7237      46.7237 
  446000    89.546784   -11765.678   -10876.561    720.93115     102002.7      46.7237      46.7237      46.7237 
  447000    90.862395   -11806.156   -10903.976    724.47575     102002.7      46.7237      46.7237      46.7237 
  448000    90.962601   -11799.445    -10896.27    773.09608     102002.7      46.7237      46.7237      46.7237 
  449000    93.129067   -11800.369   -10875.683    830.70717     102002.7      46.7237      46.7237      46.7237 
  450000    91.105583   -11820.333   -10915.739    1058.4685     102002.7      46.7237      46.7237      46.7237 
  451000    90.223407   -11804.877   -10909.041     796.0858     102002.7      46.7237      46.7237      46.7237 
  452000    90.877084   -11794.201   -10891.875    837.39553     102002.7      46.7237      46.7237      46.7237 
  453000    91.778793   -11825.949   -10914.671      808.717     102002.7      46.7237      46.7237      46.7237 
  454000    90.423222    -11811.22   -10913.401    580.55206     102002.7      46.7237      46.7237      46.7237 
  455000    91.036723   -11783.866   -10879.955    947.70531     102002.7      46.7237      46.7237      46.7237 
  456000    90.533524   -11811.542   -10912.627    560.77662     102002.7      46.7237      46.7237      46.7237 
  457000    89.859393   -11817.837   -10925.616    543.80506     102002.7      46.7237      46.7237      46.7237 
  458000    90.705636   -11815.419   -10914.796    434.50126     102002.7      46.7237      46.7237      46.7237 
  459000    89.732909   -11813.702   -10922.736    548.91836     102002.7      46.7237      46.7237      46.7237 
  460000     89.75547   -11799.252   -10908.063    322.09752     102002.7      46.7237      46.7237      46.7237 
  461000    90.447682   -11787.311   -10889.249    590.84864     102002.7      46.7237      46.7237      46.7237 
  462000    87.832495   -11823.584   -10951.488    565.41017     102002.7      46.7237      46.7237      46.7237 
  463000    91.272878   -11800.056   -10893.801    733.20996     102002.7      46.7237      46.7237      46.7237 
  464000    88.983112   -11805.526   -10922.006    782.72001     102002.7      46.7237      46.7237      46.7237 
  465000    93.433356   -11795.213   -10867.506    724.85725     102002.7      46.7237      46.7237      46.7237 
  466000    92.576734   -11815.746   -10896.544    906.70983     102002.7      46.7237      46.7237      46.7237 
  467000    90.344162   -11796.788   -10899.754    785.67419     102002.7      46.7237      46.7237      46.7237 
  468000    88.638031   -11842.504    -10962.41    522.86324     102002.7      46.7237      46.7237      46.7237 
  469000    92.717338   -11819.103   -10898.505    572.14532     102002.7      46.7237      46.7237      46.7237 
  470000    89.726275   -11807.461   -10916.561    625.30215     102002.7      46.7237      46.7237      46.7237 
  471000     89.18728   -11801.006   -10915.459    795.28043     102002.7      46.7237      46.7237      46.7237 
  472000    91.170405   -11789.776   -10884.538    1011.3682     102002.7      46.7237      46.7237      46.7237 
  473000    90.562753   -11787.425   -10888.221    886.38216     102002.7      46.7237      46.7237      46.7237 
  474000    90.147722   -11810.396   -10915.313    344.32785     102002.7      46.7237      46.7237      46.7237 
  475000    92.102348    -11756.64   -10842.149    799.29588     102002.7      46.7237      46.7237      46.7237 
  476000    90.323215    -11812.82   -10915.994    740.89155     102002.7      46.7237      46.7237      46.7237 
  477000    88.623441   -11823.729    -10943.78     427.5018     102002.7      46.7237      46.7237      46.7237 
  478000    90.768358   -11788.826   -10887.579    841.18541     102002.7      46.7237      46.7237      46.7237 
  479000    92.729819   -11806.679   -10885.957     608.3088     102002.7      46.7237      46.7237      46.7237 
  480000    92.262518   -11807.387   -10891.305    585.58614     102002.7      46.7237      46.7237      46.7237 
  481000    93.499392   -11776.563     -10848.2    851.65612     102002.7      46.7237      46.7237      46.7237 
  482000    92.219255   -11801.043    -10885.39    848.82709     102002.7      46.7237      46.7237      46.7237 
  483000    92.938149   -11799.384   -10876.594    575.88484     102002.7      46.7237      46.7237      46.7237 
  484000    92.535849   -11791.925   -10873.129    696.49512     102002.7      46.7237      46.7237      46.7237 
  485000      90.0736    -11812.89   -10918.542    468.06319     102002.7      46.7237      46.7237      46.7237 
  486000    89.407352    -11817.58   -10929.847    373.68775     102002.7      46.7237      46.7237      46.7237 
  487000    91.025641   -11799.438   -10895.637    807.97496     102002.7      46.7237      46.7237      46.7237 
  488000    88.810684   -11795.658    -10913.85    500.52622     102002.7      46.7237      46.7237      46.7237 
  489000    91.358174   -11828.731   -10921.628    547.20666     102002.7      46.7237      46.7237      46.7237 
  490000    90.104798   -11788.281   -10893.623    771.61359     102002.7      46.7237      46.7237      46.7237 
  491000    89.245557   -11820.482   -10934.356    529.26319     102002.7      46.7237      46.7237      46.7237 
  492000     89.89079   -11792.984   -10900.451    808.98838     102002.7      46.7237      46.7237      46.7237 
  493000     92.42793   -11799.846   -10882.121    1038.0487     102002.7      46.7237      46.7237      46.7237 
  494000    90.787455   -11812.495   -10911.059    619.52474     102002.7      46.7237      46.7237      46.7237 
  495000    92.388383   -11805.106   -10887.774    504.50649     102002.7      46.7237      46.7237      46.7237 
  496000    90.741488   -11789.535   -10888.556    576.83582     102002.7      46.7237      46.7237      46.7237 
  497000    88.044791   -11793.166   -10918.963    720.76374     102002.7      46.7237      46.7237      46.7237 
  498000    92.943034   -11802.249   -10879.411     810.9692     102002.7      46.7237      46.7237      46.7237 
  499000    89.936032   -11820.854   -10927.872    568.10511     102002.7      46.7237      46.7237      46.7237 
  500000    88.879844   -11813.305    -10930.81    697.35728     102002.7      46.7237      46.7237      46.7237 
  500500     90.65151   -11799.581   -10899.495    521.27495     102002.7      46.7237      46.7237      46.7237 
Loop time of 1963.68 on 16 procs for 500000 steps with 3332 atoms

Performance: 22.000 ns/day, 1.091 hours/ns, 254.624 timesteps/s
99.8% CPU use with 16 MPI tasks x no OpenMP threads

MPI task timing breakdown:
Section |  min time  |  avg time  |  max time  |%varavg| %total
---------------------------------------------------------------
Pair    | 943.98     | 1220.6     | 1516.5     | 490.1 | 62.16
Bond    | 112.23     | 174.93     | 208.32     | 179.6 |  8.91
Neigh   | 15.005     | 15.042     | 15.126     |   1.1 |  0.77
Comm    | 216.26     | 535.19     | 873.15     | 808.1 | 27.25
Output  | 0.021799   | 0.022634   | 0.026072   |   0.7 |  0.00
Modify  | 9.4187     | 10.897     | 12.695     |  33.2 |  0.55
Other   |            | 7.001      |            |       |  0.36

Nlocal:    208.25 ave 253 max 177 min
Histogram: 4 0 3 1 1 3 2 0 0 2
Nghost:    4186.5 ave 4235 max 4126 min
Histogram: 2 0 1 3 0 2 2 2 3 1
Neighs:    11472.9 ave 20284 max 5558 min
Histogram: 3 2 1 4 0 1 3 0 1 1

Total # of neighbors = 183567
Ave neighs/atom = 55.0921
Ave special neighs/atom = 3.45738
Neighbor list builds = 4059
Dangerous builds = 0
Neighbor list info ...
  update every 1 steps, delay 10 steps, check yes
  max neighbors/atom: 2000, page size: 100000
  master list distance cutoff = 16
  ghost atom cutoff = 16
  binsize = 8, bins = 6 6 6
  3 neighbor lists, perpetual/occasional/extra = 3 0 0
  (1) pair buck6d/coul/gauss/dsf, perpetual, skip from (3)
      attributes: half, newton on
      pair build: skip
      stencil: none
      bin: none
  (2) pair lj/cut, perpetual, skip from (3)
      attributes: half, newton on
      pair build: skip
      stencil: none
      bin: none
  (3) neighbor class addition, perpetual
      attributes: half, newton on
      pair build: half/bin/newton
      stencil: half/bin/3d/newton
      bin: standard
Setting up Verlet run ...
  Unit style    : real
  Current step  : 500500
  Time step     : 1
WARNING: Inconsistent image flags (../domain.cpp:786)
Per MPI rank memory allocation (min/avg/max) = 22.8 | 23.27 | 23.45 Mbytes
Step Time TotEng KinEng PotEng E_mol E_pair Temp Pxx Pyy Pzz Pxy Pxz Pyz Cella Cellb Cellc CellAlpha CellBeta CellGamma Volume Press 
  500500       500000   -10899.495    900.08594   -11799.581     4152.514   -15952.095     90.65151    644.63112    202.27135    716.92238    160.27912   -45.298741   -18.682919      46.7237      46.7237      46.7237           90           90           90     102002.7    521.27495 
  501000       500500   -10895.908    912.95691   -11808.865     4151.028   -15959.893      91.9478    915.90901    524.77698    812.39041   -62.708709   -380.90553   -8.8331445      46.7237      46.7237      46.7237           90           90           90     102002.7    751.02547 
  502000       501500   -10879.133    915.77153   -11794.905    4172.4382   -15967.343    92.231273    1155.0242    330.13198    657.06128    22.547222    117.79595    134.10383      46.7237      46.7237      46.7237           90           90           90     102002.7    714.07247 
  503000       502500   -10884.696    907.59674   -11792.293    4157.1576   -15949.451    91.407955    551.41471    563.32683    623.65226    107.47829    17.206141    48.444613      46.7237      46.7237      46.7237           90           90           90     102002.7     579.4646 
  504000       503500   -10905.082     902.3102   -11807.392    4142.3433   -15949.736    90.875525    575.61484    751.15047     807.0166    418.45461   -151.19584   -83.755671      46.7237      46.7237      46.7237           90           90           90     102002.7    711.26064 
  505000       504500   -10903.805    898.49316   -11802.298    4148.8411   -15951.139    90.491094    1275.7389    274.79444    714.41166    96.529606    197.18631   -83.865879      46.7237      46.7237      46.7237           90           90           90     102002.7    754.98167 
  506000       505500   -10904.048    882.28754   -11786.335    4167.0841   -15953.419    88.858957    707.86224    565.69847    1061.4269    140.37876   -215.20998    -73.24852      46.7237      46.7237      46.7237           90           90           90     102002.7    778.32921 
  507000       506500   -10887.125    910.24196   -11797.366    4154.6783   -15952.045    91.674366    542.43797    494.01532    492.98233   -91.585052    174.37196   -54.685719      46.7237      46.7237      46.7237           90           90           90     102002.7    509.81187 
  508000       507500   -10884.648     907.7101   -11792.358    4172.1639   -15964.522    91.419372    749.33993    593.97396    505.51026    153.91415    94.345799    47.283983      46.7237      46.7237      46.7237           90           90           90     102002.7    616.27472 
  509000       508500   -10899.836    902.01518   -11801.852    4155.2831   -15957.135    90.845812     523.5673    500.76997    747.29374    69.355978    59.768503   -248.82925      46.7237      46.7237      46.7237           90           90           90     102002.7    590.54367 
  510000       509500   -10914.788    909.78377   -11824.572    4150.0518   -15974.624     91.62822    800.83184    931.24338    350.89324    196.53137   -293.79486   -168.85649      46.7237      46.7237      46.7237           90           90           90     102002.7    694.32282 
  511000       510500   -10884.586    907.75105   -11792.337    4173.5636   -15965.901    91.423496    683.45457    684.97245    779.07838    100.33178    109.23254   -59.077104      46.7237      46.7237      46.7237           90           90           90     102002.7    715.83513 
  512000       511500   -10934.684    884.63508   -11819.319    4159.4644   -15978.784    89.095388    700.97998    494.85959    12.251711    57.528603    11.846788   -195.07482      46.7237      46.7237      46.7237           90           90           90     102002.7     402.6971 
  513000       512500   -10911.489    897.02744   -11808.516    4134.2415   -15942.758    90.343475    737.07095    199.00963    937.72894   -36.112235   -23.810759    114.59776      46.7237      46.7237      46.7237           90           90           90     102002.7    624.60317 
  514000       513500   -10904.887    876.20707   -11781.094    4165.4555   -15946.549    88.246567    1004.3677    801.36601    852.70618    107.30583    78.726579   -85.527311      46.7237      46.7237      46.7237           90           90           90     102002.7    886.14663 
  515000       514500   -10921.027    893.19713   -11814.224    4152.6294   -15966.854    89.957708    416.47615    452.07058    402.67798    132.12289   -23.727024   -34.448127      46.7237      46.7237      46.7237           90           90           90     102002.7    423.74157 
  516000       515500   -10912.426    902.91251   -11815.338    4148.6524   -15963.991    90.936186    579.70922    766.48675    879.60087    66.818795    35.606353   -118.00443      46.7237      46.7237      46.7237           90           90           90     102002.7    741.93228 
  517000       516500   -10903.582    885.97465   -11789.557    4169.3005   -15958.857    89.230302     585.4782    439.72394    815.51553    176.35406   -44.004775    35.463209      46.7237      46.7237      46.7237           90           90           90     102002.7    613.57256 
  518000       517500   -10907.163    884.44843   -11791.611    4153.1323   -15944.744     89.07659    753.35674    612.54395    892.47882   -185.75414    36.839223   -222.15531      46.7237      46.7237      46.7237           90           90           90     102002.7    752.79317 
  519000       518500    -10876.28    906.76059   -11783.041    4147.3322   -15930.373    91.323743    587.50282    708.84204     730.1489   -57.318866      59.0586   -15.992944      46.7237      46.7237      46.7237           90           90           90     102002.7    675.49792 
  520000       519500   -10891.639    914.15371   -11805.793    4157.3759   -15963.169    92.068336    56.506745    526.90122    766.81701   -209.92552    60.807052    -216.5481      46.7237      46.7237      46.7237           90           90           90     102002.7    450.07499 
  521000       520500   -10942.701    877.66595   -11820.366    4144.9406   -15965.307    88.393497    982.45236     443.5963    562.34161   -190.09972    135.43712    41.408718      46.7237      46.7237      46.7237           90           90           90     102002.7    662.79676 
  522000       521500   -10862.593    916.02053   -11778.613    4166.2279   -15944.841    92.256351    1211.7197    1153.9078    1105.0163     77.65577    -121.8318   -140.63215      46.7237      46.7237      46.7237           90           90           90     102002.7    1156.8813 
  523000       522500   -10919.246    872.45316   -11791.699    4157.3929   -15949.092    87.868495    473.45746    573.94631    670.61222   -44.296582    40.363636   -268.63844      46.7237      46.7237      46.7237           90           90           90     102002.7      572.672 
  524000       523500   -10911.689    908.91892   -11820.608    4156.9263   -15977.535    91.541118     770.7784    554.14786    366.19875   -70.954508    94.460573   -271.53561      46.7237      46.7237      46.7237           90           90           90     102002.7    563.70834 
  525000       524500    -10897.71    894.14661   -11791.857    4166.8225   -15958.679    90.053335    811.14703    695.09757    760.50649   -190.82013    81.619307    88.205337      46.7237      46.7237      46.7237           90           90           90     102002.7     755.5837 
  526000       525500   -10904.941    885.33842   -11790.279    4162.9943   -15953.273    89.166225    1355.1552    706.36921    813.52772   -5.0461818   -20.190847   -82.701519      46.7237      46.7237      46.7237           90           90           90     102002.7    958.35071 
  527000       526500   -10918.208    895.08168    -11813.29    4132.2279   -15945.518     90.14751    1107.4359    911.78513     1009.519     204.4151   -241.98891   -68.870156      46.7237      46.7237      46.7237           90           90           90     102002.7      1009.58 
  528000       527500   -10863.052     914.0713   -11777.123    4163.6582   -15940.781    92.060036    570.83625    530.49007    927.27913   -148.48773   -120.88638   -15.072668      46.7237      46.7237      46.7237           90           90           90     102002.7    676.20181 
  529000       528500   -10890.706     918.3988   -11809.104    4148.5021   -15957.607    92.495877    291.11187    541.72816     626.1032    37.670583   -11.219221   -131.03536      46.7237      46.7237      46.7237           90           90           90     102002.7    486.31441 
  530000       529500   -10891.055    887.12639   -11778.181    4154.7194     -15932.9    89.346299    484.48661    931.38835    1280.1756   -46.909315     -50.0456   -300.53418      46.7237      46.7237      46.7237           90           90           90     102002.7    898.68353 
  531000       530500    -10894.54     913.1478   -11807.688    4128.7785   -15936.466    91.967026    1145.9362    429.94795    908.64432    16.834722    72.712046    92.116794      46.7237      46.7237      46.7237           90           90           90     102002.7    828.17617 
  532000       531500    -10908.98    907.71629   -11816.696    4141.8778   -15958.574    91.419995    846.66741    889.44306    569.42695    95.549695   -23.069057    92.044285      46.7237      46.7237      46.7237           90           90           90     102002.7    768.51247 
  533000       532500   -10918.264    914.47832   -11832.742    4136.3198   -15969.062    92.101028    961.49056    804.76187    955.24418    64.123509   -92.004147   -5.7165726      46.7237      46.7237      46.7237           90           90           90     102002.7    907.16553 
  534000       533500    -10881.07    921.46554   -11802.536    4126.5629   -15929.099    92.804741    626.96901    909.55865    311.14291    135.08933   -41.524763   -293.66152      46.7237      46.7237      46.7237           90           90           90     102002.7    615.89019 
  535000       534500   -10897.123    896.62535   -11793.748      4139.49   -15933.238    90.302979     397.9389    446.47773    811.04158    107.38361    54.828686    44.292123      46.7237      46.7237      46.7237           90           90           90     102002.7     551.8194 
  536000       535500   -10918.041    896.53176   -11814.573    4141.2991   -15955.872    90.293553    556.02002    652.50122    620.34735    229.48785   -23.437106    -44.29699      46.7237      46.7237      46.7237           90           90           90     102002.7    609.62286 
  537000       536500   -10859.588    928.16802   -11787.756    4147.4505   -15935.206    93.479777    779.13843    710.82579    859.79392   -94.824639   -188.85899   -221.42885      46.7237      46.7237      46.7237           90           90           90     102002.7    783.25271 
  538000       537500   -10891.515    903.02802   -11794.543     4175.854   -15970.397    90.947819    518.88112    188.71895    510.59516    10.577485    20.407447    68.017711      46.7237      46.7237      46.7237           90           90           90     102002.7    406.06508 
  539000       538500   -10896.412     898.8999   -11795.312    4151.5017   -15946.814    90.532059     999.0337    505.02233    901.36792   -92.684073   -135.70159    176.72699      46.7237      46.7237      46.7237           90           90           90     102002.7    801.80798 
  540000       539500   -10878.301    906.03078   -11784.332     4162.433   -15946.765     91.25024    386.24569    948.24023    734.39841   -103.72078    60.503608    120.10092      46.7237      46.7237      46.7237           90           90           90     102002.7    689.62811 
  541000       540500   -10886.924    921.25959   -11808.184    4122.1933   -15930.377    92.783999     675.1839    583.06519    843.66089    3.4500446    131.90584    12.133529      46.7237      46.7237      46.7237           90           90           90     102002.7    700.63666 
  542000       541500   -10849.925    923.24761   -11773.172    4153.6219   -15926.794    92.984221    609.05673    661.32753    977.96555    17.053275    -107.0976   -10.470235      46.7237      46.7237      46.7237           90           90           90     102002.7    749.44994 
  543000       542500   -10923.263    885.03129   -11808.294     4149.371   -15957.665    89.135291    614.01961    443.27333    709.96803   -83.035894   -54.843314   -7.9270429      46.7237      46.7237      46.7237           90           90           90     102002.7    589.08699 
  544000       543500   -10908.203    906.64625   -11814.849    4148.7651   -15963.614    91.312227    419.24898    392.44507     724.0893    89.555681   -141.89753   -153.85322      46.7237      46.7237      46.7237           90           90           90     102002.7    511.92778 
  545000       544500   -10862.532    923.50813    -11786.04    4147.6465   -15933.687    93.010459    657.28298    806.57744    601.71425    87.007426   -1.2610896       57.398      46.7237      46.7237      46.7237           90           90           90     102002.7    688.52489 
  546000       545500   -10924.724    909.12767   -11833.852    4123.4741   -15957.326    91.562142    1020.0185    484.40565    939.59711   -76.368939    82.267398   -334.08797      46.7237      46.7237      46.7237           90           90           90     102002.7    814.67375 
  547000       546500   -10892.468    910.32172    -11802.79    4151.6452   -15954.435      91.6824    380.72798    476.57473    210.61972   -82.129077   -138.79131    55.100241      46.7237      46.7237      46.7237           90           90           90     102002.7    355.97414 
  548000       547500   -10876.656    908.01495   -11784.671    4142.9032   -15927.574    91.450074    796.72934    1009.3221    577.56603   -90.641101    3.2530871   -79.659847      46.7237      46.7237      46.7237           90           90           90     102002.7    794.53915 
  549000       548500   -10919.722     906.3596   -11826.082    4126.7708   -15952.852    91.283357    570.30644    460.04643    499.92885   -184.63929    122.15881    98.523566      46.7237      46.7237      46.7237           90           90           90     102002.7    510.09391 
  550000       549500   -10879.871    921.17688   -11801.047    4152.2107   -15953.258    92.775669    428.31503    577.10984    773.05703   -135.51605   -210.64001    198.80391      46.7237      46.7237      46.7237           90           90           90     102002.7     592.8273 
  551000       550500   -10874.137    923.11633   -11797.254    4159.9288   -15957.182       92.971    424.65098    542.87701    703.50438    160.36997   -13.015806   -17.910764      46.7237      46.7237      46.7237           90           90           90     102002.7    557.01079 
  552000       551500   -10915.328    893.69136    -11809.02    4143.6992   -15952.719    90.007484     853.2561    881.20764     927.3545    159.17884    70.418998    -91.29432      46.7237      46.7237      46.7237           90           90           90     102002.7    887.27275 
  553000       552500   -10894.244     906.6057    -11800.85    4139.3664   -15940.216    91.308143    510.93442    791.48766    846.73759    90.186673    86.852433   -14.559974      46.7237      46.7237      46.7237           90           90           90     102002.7    716.38656 
  554000       553500   -10904.141    908.38571   -11812.527    4151.8977   -15964.425    91.487415    746.55056    1119.1547    855.21709    144.81986   -279.71798   -172.56061      46.7237      46.7237      46.7237           90           90           90     102002.7    906.97411 
  555000       554500   -10869.327    920.83341    -11790.16    4141.9885   -15932.149    92.741077    1188.5183    1062.0978    1171.7346   -48.462223   -284.14764   -124.49293      46.7237      46.7237      46.7237           90           90           90     102002.7    1140.7836 
[...]
  936000       935500   -10908.427    907.39329    -11815.82    4144.3837   -15960.204    91.387464    838.97242    1053.8205    780.96646   -23.265847    8.2009108   -204.66548      46.7237      46.7237      46.7237           90           90           90     102002.7    891.25311 
  937000       936500   -10868.879    909.65654   -11778.536    4174.0953   -15952.631    91.615406    434.11957    448.53599    853.09257   -38.465526    67.985754   -56.891254      46.7237      46.7237      46.7237           90           90           90     102002.7    578.58271 
  938000       937500   -10940.281    885.37417   -11825.655    4123.6024   -15949.258    89.169825    1024.5552    602.61489    903.70195   -52.726833   -238.09507   -12.377656      46.7237      46.7237      46.7237           90           90           90     102002.7    843.62403 
  939000       938500    -10895.44    913.97863   -11809.419    4135.0161   -15944.435    92.050703    1093.4814    907.87843    827.13576    16.539492   -61.938273    49.922871      46.7237      46.7237      46.7237           90           90           90     102002.7    942.83185 
  940000       939500   -10907.801    912.21183   -11820.013    4146.4131   -15966.426    91.872761    1047.7517    593.25574    1103.4773    124.16843   -83.392677    66.567339      46.7237      46.7237      46.7237           90           90           90     102002.7    914.82825 
  941000       940500   -10898.394    910.26447   -11808.659    4143.2282   -15951.887    91.676634    587.43907    880.71828    773.06624    96.717623     7.519955    66.238925      46.7237      46.7237      46.7237           90           90           90     102002.7    747.07453 
  942000       941500   -10904.371    896.73102   -11801.102    4152.9437   -15954.046    90.313622    839.90366    439.43827    753.67372   -215.61411   -27.518254   -136.67005      46.7237      46.7237      46.7237           90           90           90     102002.7    677.67189 
  943000       942500    -10906.52    909.07771   -11815.597    4155.2782   -15970.875     91.55711    146.74218    465.70399    568.79027    -227.1298    5.6857981   -148.27287      46.7237      46.7237      46.7237           90           90           90     102002.7    393.74548 
  944000       943500   -10906.457    907.71952   -11814.177    4146.2695   -15960.446     91.42032    592.33582     685.2534    693.44202    -32.54548    1.5623156    -138.1791      46.7237      46.7237      46.7237           90           90           90     102002.7    657.01041 
  945000       944500   -10891.234    903.80135   -11795.035    4153.0702   -15948.106    91.025705    555.74112    657.79135    346.45277   -41.285534   -5.6979275    312.32632      46.7237      46.7237      46.7237           90           90           90     102002.7    519.99508 
  946000       945500   -10881.908    902.81967   -11784.728    4167.7375   -15952.465    90.926836    474.07545    330.50295    902.69979     328.1661   -225.68364    96.532471      46.7237      46.7237      46.7237           90           90           90     102002.7    569.09273 
  947000       946500    -10910.54    901.74393   -11812.284    4152.3294   -15964.614    90.818494    1030.2404    361.41478    631.79042   -5.3141552   -45.659706   -319.04937      46.7237      46.7237      46.7237           90           90           90     102002.7    674.48187 
  948000       947500   -10882.176    914.21873   -11796.394    4160.1186   -15956.513    92.074884    967.77196    926.23754    816.65464     50.80844    -141.2102   -59.423612      46.7237      46.7237      46.7237           90           90           90     102002.7    903.55471 
  949000       948500   -10902.687    891.06249   -11793.749    4164.5994   -15958.348     89.74272    297.87827    714.82168    942.21367   -36.362988   -72.082724   -33.663072      46.7237      46.7237      46.7237           90           90           90     102002.7    651.63787 
  950000       949500   -10884.494    912.58815   -11797.082     4153.112   -15950.194    91.910661     1124.139    682.90042    800.13189    63.389507    202.69573    237.75315      46.7237      46.7237      46.7237           90           90           90     102002.7    869.05709 
  951000       950500   -10887.491    890.71334   -11778.205    4160.8987   -15939.103    89.707555    621.56093    122.71289    701.28278    192.76482   -55.509269   -6.3022743      46.7237      46.7237      46.7237           90           90           90     102002.7     481.8522 
  952000       951500   -10919.208    885.08935   -11804.297    4155.4794   -15959.776    89.141139    544.86936    301.49853    735.25655    106.84553    26.703719   -164.21699      46.7237      46.7237      46.7237           90           90           90     102002.7    527.20815 
  953000       952500    -10871.29    917.50383   -11788.794    4171.0057     -15959.8    92.405741    658.25164    596.20886    748.54586   -64.956693   -58.901554   -308.31479      46.7237      46.7237      46.7237           90           90           90     102002.7    667.66879 
  954000       953500    -10910.83    895.16529   -11805.996    4141.5197   -15947.515    90.155931    1478.8531    580.47998    964.04462   -121.68534   -252.83411    -110.9982      46.7237      46.7237      46.7237           90           90           90     102002.7    1007.7926 
  955000       954500    -10916.97    906.62325   -11823.593    4125.7957   -15949.389    91.309911    495.30448    1074.9966    804.82173     -156.571    116.51641   -52.717544      46.7237      46.7237      46.7237           90           90           90     102002.7     791.7076 
  956000       955500   -10915.795    902.12537    -11817.92    4149.4417   -15967.362    90.856909    886.05611     430.6702    603.98084    16.663667    154.54908   -152.15149      46.7237      46.7237      46.7237           90           90           90     102002.7    640.23572 
  957000       956500   -10872.855    914.46309   -11787.319    4162.0434   -15949.362    92.099495     737.6321    560.12906    748.72895     8.716806     88.35692   -226.89024      46.7237      46.7237      46.7237           90           90           90     102002.7    682.16337 
  958000       957500   -10905.868     907.9304   -11813.799     4153.064   -15966.863    91.441559    1200.0051    419.06315    1072.7509   -213.34037    257.61827   -48.573119      46.7237      46.7237      46.7237           90           90           90     102002.7    897.27306 
  959000       958500   -10895.341    912.17814   -11807.519    4166.4444   -15973.963    91.869367    490.33189    28.433099     1130.148    90.762723   -81.595522     8.259698      46.7237      46.7237      46.7237           90           90           90     102002.7    549.63765 
  960000       959500   -10890.436    911.00979   -11801.446    4146.3151   -15947.761    91.751698     481.0271     543.8224    685.46376    72.223882   -32.738766    175.35875      46.7237      46.7237      46.7237           90           90           90     102002.7    570.10442 
  961000       960500    -10925.93    884.93278   -11810.863    4156.1034   -15966.966     89.12537    1009.0265    763.85043    735.19992   -125.81878    46.652336    114.94993      46.7237      46.7237      46.7237           90           90           90     102002.7    836.02563 
  962000       961500   -10912.006    890.53973   -11802.546    4146.0981   -15948.644     89.69007    1186.8272    262.92169    824.87951    90.367086     -141.212   -25.293374      46.7237      46.7237      46.7237           90           90           90     102002.7    758.20945 
  963000       962500   -10883.235    906.83574   -11790.071    4176.1405   -15966.211    91.331312    840.61552    305.04129     192.0393   -198.71506   -64.377518   -80.773846      46.7237      46.7237      46.7237           90           90           90     102002.7     445.8987 
  964000       963500   -10900.222    898.54435   -11798.767    4160.0243   -15958.791     90.49625    523.17948    320.41668    247.82453    115.30009    3.7844169   -122.98862      46.7237      46.7237      46.7237           90           90           90     102002.7     363.8069 
  965000       964500   -10886.877    910.28877   -11797.166    4175.5871   -15972.753    91.679081    445.18147   -92.991754    676.91007    166.16606    161.17344   -229.26601      46.7237      46.7237      46.7237           90           90           90     102002.7    343.03326 
  966000       965500   -10931.436    877.85988   -11809.296    4141.2794   -15950.576    88.413028     603.7359    428.80489    1231.4144   -73.743292   -29.080543   -222.25091      46.7237      46.7237      46.7237           90           90           90     102002.7    754.65172 
  967000       966500   -10892.834    905.44126   -11798.275    4142.0173   -15940.292    91.190867    497.86576    623.38329    520.39992   -184.82722   -12.713967   -180.78855      46.7237      46.7237      46.7237           90           90           90     102002.7    547.21632 
  968000       967500   -10899.971    919.90564   -11819.876    4149.6621   -15969.539    92.647637     730.0644    399.99457    726.38077   -43.455339   -63.070621   -110.43634      46.7237      46.7237      46.7237           90           90           90     102002.7    618.81324 
  969000       968500   -10912.884    891.28977   -11804.173    4162.1351   -15966.308     89.76561     905.8472    886.22134    753.47034    72.933561    25.279119   -162.24324      46.7237      46.7237      46.7237           90           90           90     102002.7    848.51296 
  970000       969500   -10918.342    900.02957   -11818.371    4144.6477   -15963.019    90.645833    961.23265    643.77378    672.65104    55.372511    58.073661    -88.92806      46.7237      46.7237      46.7237           90           90           90     102002.7    759.21916 
  971000       970500   -10888.908    902.98755   -11791.896    4157.0809   -15948.977    90.943744    900.96387    554.80256     364.1995    68.743028    268.51293   -231.76105      46.7237      46.7237      46.7237           90           90           90     102002.7    606.65531 
  972000       971500    -10893.15    905.16564   -11798.315     4158.748   -15957.063    91.163109    708.73794    700.19788    568.42061    46.317302    20.367702   -348.38456      46.7237      46.7237      46.7237           90           90           90     102002.7    659.11881 
  973000       972500   -10919.154    900.56469   -11819.718    4143.7384   -15963.457    90.699727    547.36739    562.05738    268.96296   -40.820695    169.42992    80.181616      46.7237      46.7237      46.7237           90           90           90     102002.7    459.46258 
  974000       973500   -10865.232    911.61264   -11776.845    4157.5441   -15934.389    91.812413    506.53272    689.73397    1140.9039    381.28354   -55.694596    191.76387      46.7237      46.7237      46.7237           90           90           90     102002.7    779.05685 
  975000       974500   -10908.077    890.63469   -11798.712    4162.3861   -15961.098    89.699635    431.74845    465.50436    696.81369    63.366893    88.825214   -142.18294      46.7237      46.7237      46.7237           90           90           90     102002.7     531.3555 
  976000       975500   -10912.309    901.92814   -11814.237    4136.7563   -15950.993    90.837046    493.81991    638.00118    675.68551     188.7196   -79.473893    150.03014      46.7237      46.7237      46.7237           90           90           90     102002.7     602.5022 
  977000       976500   -10868.307    925.60866   -11793.916    4149.4939    -15943.41    93.222013    666.64831    635.94612     981.9671    189.29116    247.33688    -239.3941      46.7237      46.7237      46.7237           90           90           90     102002.7    761.52051 
  978000       977500   -10909.152    897.44949   -11806.602    4152.9685    -15959.57    90.385982    591.98851    333.21763    405.06256    -282.7832    38.546411   -167.59535      46.7237      46.7237      46.7237           90           90           90     102002.7     443.4229 
  979000       978500   -10887.095    918.56936   -11805.664    4148.0136   -15953.678    92.513054    767.71876    510.99148    713.78907    108.33481   -58.390287    98.326868      46.7237      46.7237      46.7237           90           90           90     102002.7    664.16644 
  980000       979500   -10872.324    923.46755   -11795.792    4154.8418   -15950.633    93.006372    716.22791    656.94984    785.91808    263.50219    96.561528   -124.55271      46.7237      46.7237      46.7237           90           90           90     102002.7    719.69861 
  981000       980500   -10874.678    906.17767   -11780.856    4168.2052   -15949.061    91.265035    587.29015    893.13682    956.24699    72.161676   -117.22657   -90.690581      46.7237      46.7237      46.7237           90           90           90     102002.7    812.22466 
  982000       981500   -10904.239    889.75705   -11793.997    4149.4538    -15943.45    89.611244       583.12    889.46826    529.40628    87.315417   -44.822284   -62.614218      46.7237      46.7237      46.7237           90           90           90     102002.7    667.33151 
  983000       982500   -10887.054    911.32604    -11798.38     4158.336   -15956.716    91.783549    959.14103    545.11763     851.3339   -43.332526    38.833337   -136.21821      46.7237      46.7237      46.7237           90           90           90     102002.7    785.19752 
  984000       983500   -10882.058    914.97086   -11797.029    4155.1523   -15952.181    92.150634    493.00754     433.9505    261.84135     67.80705   -93.874927    -85.77206      46.7237      46.7237      46.7237           90           90           90     102002.7    396.26646 
  985000       984500     -10880.9    908.80774   -11789.708    4174.0514   -15963.759     91.52992    574.88255    293.68014    752.30345   -94.229938   -139.30661   -13.653132      46.7237      46.7237      46.7237           90           90           90     102002.7    540.28871 
  986000       985500   -10926.712    880.54489   -11807.257    4144.7138   -15951.971    88.683447    1106.2986    736.63891    818.78013   -23.580148    118.48968    129.62506      46.7237      46.7237      46.7237           90           90           90     102002.7    887.23921 
  987000       986500   -10905.703    903.67344   -11809.376    4138.4271   -15947.803    91.012822    643.55105    833.43641    691.92911    94.764465   -52.345119   -182.23697      46.7237      46.7237      46.7237           90           90           90     102002.7    722.97219 
  988000       987500   -10911.953     912.8932   -11824.846    4131.5495   -15956.395    91.941384    1262.8779    164.08371    927.42999    125.90654   -34.501455   -134.16225      46.7237      46.7237      46.7237           90           90           90     102002.7    784.79719 
  989000       988500   -10888.243    914.11058   -11802.353    4136.5748   -15938.928    92.063992    678.27996    572.42147    587.72901    167.83503    39.010663    190.47885      46.7237      46.7237      46.7237           90           90           90     102002.7    612.81015 
  990000       989500    -10928.89    888.85624   -11817.747    4165.3318   -15983.078    89.520519    940.09615    216.07065    592.10148     280.9386   -180.46148   -138.42787      46.7237      46.7237      46.7237           90           90           90     102002.7     582.7561 
  991000       990500   -10909.296    885.67832   -11794.974    4160.6633   -15955.637    89.200457    551.69657    12.913519    503.28026   -3.8317645    20.040573    150.65763      46.7237      46.7237      46.7237           90           90           90     102002.7    355.96345 
  992000       991500   -10889.532    915.27869   -11804.811    4151.9445   -15956.755    92.181637    400.49624    605.12467    463.90636    52.497574     152.2081   -42.431235      46.7237      46.7237      46.7237           90           90           90     102002.7    489.84242 
  993000       992500   -10911.041    888.66899    -11799.71     4143.795   -15943.505     89.50166    613.49701    841.04714    782.00415    118.67881     107.6322    29.737327      46.7237      46.7237      46.7237           90           90           90     102002.7     745.5161 
  994000       993500   -10869.356    915.24061   -11784.596     4154.939   -15939.535    92.177802     711.4079    1057.6272    254.87252    43.985432    213.53071   -274.01757      46.7237      46.7237      46.7237           90           90           90     102002.7    674.63587 
  995000       994500   -10927.031     894.6011   -11821.632    4136.4829   -15958.115    90.099109    685.35412     708.4755    733.76026   -283.28127    176.83152   -20.724421      46.7237      46.7237      46.7237           90           90           90     102002.7    709.19663 
  996000       995500   -10890.513    915.55223   -11806.065    4171.5482   -15977.613    92.209187    714.64158    1120.2105    587.92195   -126.66853    33.825979   -161.57902      46.7237      46.7237      46.7237           90           90           90     102002.7    807.59135 
  997000       996500   -10910.524     901.7597   -11812.284    4153.7058    -15965.99    90.820081    897.98527    245.16275    735.71159    62.997984   -116.60015    138.09645      46.7237      46.7237      46.7237           90           90           90     102002.7    626.28654 
  998000       997500   -10914.673    905.48136   -11820.155    4136.9422   -15957.097    91.194906    832.24404    605.70856    1024.6654   -229.02599   -145.82136   -51.597361      46.7237      46.7237      46.7237           90           90           90     102002.7    820.87268 
  999000       998500   -10918.279    882.17336   -11800.452    4169.4953   -15969.947    88.847458    669.33748    614.29668     547.5157    129.75493    79.898119    117.22662      46.7237      46.7237      46.7237           90           90           90     102002.7    610.38329 
 1000000       999500   -10908.085     871.6429   -11779.728    4159.3471   -15939.075    87.786889     831.8208    412.73675    558.76921   -25.888489    -213.6646    50.271247      46.7237      46.7237      46.7237           90           90           90     102002.7    601.10892 
 1000500      1000000   -10913.588    905.04633   -11818.635     4136.297   -15954.932    91.151092    297.92859   -50.731882    597.95742    68.716576   -276.16438   -94.506583      46.7237      46.7237      46.7237           90           90           90     102002.7    281.71804 
Loop time of 2592.33 on 16 procs for 500000 steps with 3332 atoms

Performance: 16.665 ns/day, 1.440 hours/ns, 192.877 timesteps/s
99.8% CPU use with 16 MPI tasks x no OpenMP threads

MPI task timing breakdown:
Section |  min time  |  avg time  |  max time  |%varavg| %total
---------------------------------------------------------------
Pair    | 1090.1     | 1549.5     | 2162.1     | 798.0 | 59.77
Bond    | 88.725     | 184.24     | 260.28     | 344.0 |  7.11
Neigh   | 15.735     | 15.785     | 15.879     |   1.2 |  0.61
Comm    | 122.98     | 809.33     | 1361.7     |1251.7 | 31.22
Output  | 0.13782    | 0.14597    | 0.1467     |   0.6 |  0.01
Modify  | 23.705     | 26.229     | 29.166     |  35.5 |  1.01
Other   |            | 7.08       |            |       |  0.27

Nlocal:    208.25 ave 257 max 167 min
Histogram: 1 3 1 3 0 3 2 1 0 2
Nghost:    4189 ave 4229 max 4149 min
Histogram: 2 1 1 2 3 1 1 1 3 1
Neighs:    11471.6 ave 19372 max 5731 min
Histogram: 3 3 0 2 1 2 2 0 0 3

Total # of neighbors = 183546
Ave neighs/atom = 55.0858
Ave special neighs/atom = 3.45738
Neighbor list builds = 4062
Dangerous builds = 0
Total wall time: 1:16:01
