LAMMPS (30 Mar 2018)
Reading data file ...
  orthogonal box = (0 0 0) to (46.7237 46.7237 46.7237)
  2 by 3 by 4 MPI processor grid
  reading atoms ...
  1740 atoms
  scanning bonds ...
  5 = max bonds/atom
  scanning angles ...
  10 = max angles/atom
  scanning dihedrals ...
  32 = max dihedrals/atom
  scanning impropers ...
  3 = max impropers/atom
  reading bonds ...
  2064 bonds
  reading angles ...
  3696 angles
  reading dihedrals ...
  6240 dihedrals
  reading impropers ...
  1008 impropers
Finding 1-2 1-3 1-4 neighbors ...
  special bond factors lj:   0          0          0         
  special bond factors coul: 0          0          0         
  5 = max # of 1-2 neighbors
  8 = max # of 1-3 neighbors
  20 = max # of 1-4 neighbors
  19 = max # of special neighbors
Finding 1-2 1-3 1-4 neighbors ...
  special bond factors lj:   0          0          1         
  special bond factors coul: 1          1          1         
  5 = max # of 1-2 neighbors
  8 = max # of 1-3 neighbors
  19 = max # of special neighbors
WARNING: Using 'neigh_modify every 1 delay 0 check yes' setting during minimization (../min.cpp:168)
Neighbor list info ...
  update every 1 steps, delay 0 steps, check yes
  max neighbors/atom: 2000, page size: 100000
  master list distance cutoff = 16
  ghost atom cutoff = 16
  binsize = 8, bins = 6 6 6
  3 neighbor lists, perpetual/occasional/extra = 3 0 0
  (1) pair buck6d/coul/gauss/dsf, perpetual, skip from (3)
      attributes: half, newton on
      pair build: skip
      stencil: none
      bin: none
  (2) pair lj/cut, perpetual, skip from (3)
      attributes: half, newton on
      pair build: skip
      stencil: none
      bin: none
  (3) neighbor class addition, perpetual
      attributes: half, newton on
      pair build: half/bin/newton
      stencil: half/bin/3d/newton
      bin: standard
Setting up cg style minimization ...
  Unit style    : real
  Current step  : 0
WARNING: Inconsistent image flags (../domain.cpp:786)
Per MPI rank memory allocation (min/avg/max) = 22.87 | 23.28 | 24.42 Mbytes
Step Temp E_pair E_mol TotEng Press 
       0            0   -11548.929    6482.8914   -5066.0375     6272.435 
     503            0   -11580.542    3743.0181   -7837.5243   -533.32145 
Loop time of 1.19214 on 24 procs for 503 steps with 1740 atoms

99.9% CPU use with 24 MPI tasks x no OpenMP threads

Minimization stats:
  Stopping criterion = max force evaluations
  Energy initial, next-to-last, final = 
        -5066.03753252     -7837.51622196     -7837.52426509
  Force two-norm initial, final = 2576.89 3.91627
  Force max component initial, final = 151.968 0.634829
  Final line search alpha, max atom move = 0.0303258 0.0192517
  Iterations, force evaluations = 503 1000

MPI task timing breakdown:
Section |  min time  |  avg time  |  max time  |%varavg| %total
---------------------------------------------------------------
Pair    | 0.44564    | 0.60613    | 0.75321    |  10.8 | 50.84
Bond    | 0.12501    | 0.1572     | 0.1865     |   3.9 | 13.19
Neigh   | 0.0051435  | 0.0052543  | 0.0053535  |   0.1 |  0.44
Comm    | 0.24859    | 0.40276    | 0.55497    |  12.9 | 33.78
Output  | 0          | 0          | 0          |   0.0 |  0.00
Modify  | 0          | 0          | 0          |   0.0 |  0.00
Other   |            | 0.0208     |            |       |  1.74

Nlocal:    72.5 ave 87 max 61 min
Histogram: 1 6 0 5 1 3 5 1 1 1
Nghost:    1980.21 ave 2153 max 1885 min
Histogram: 16 0 0 0 0 0 0 0 0 8
Neighs:    7635.88 ave 11384 max 4461 min
Histogram: 2 2 5 2 2 3 4 1 1 2

Total # of neighbors = 183261
Ave neighs/atom = 105.322
Ave special neighs/atom = 6.62069
Neighbor list builds = 10
Dangerous builds = 0
Neighbor list info ...
  update every 1 steps, delay 10 steps, check yes
  max neighbors/atom: 2000, page size: 100000
  master list distance cutoff = 16
  ghost atom cutoff = 16
  binsize = 8, bins = 6 6 6
  3 neighbor lists, perpetual/occasional/extra = 3 0 0
  (1) pair buck6d/coul/gauss/dsf, perpetual, skip from (3)
      attributes: half, newton on
      pair build: skip
      stencil: none
      bin: none
  (2) pair lj/cut, perpetual, skip from (3)
      attributes: half, newton on
      pair build: skip
      stencil: none
      bin: none
  (3) neighbor class addition, perpetual
      attributes: half, newton on
      pair build: half/bin/newton
      stencil: half/bin/3d/newton
      bin: standard
Setting up Verlet run ...
  Unit style    : real
  Current step  : 503
  Time step     : 1
WARNING: Inconsistent image flags (../domain.cpp:786)
Per MPI rank memory allocation (min/avg/max) = 22.52 | 22.66 | 23.29 Mbytes
Step Temp PotEng TotEng Press Volume Lx Ly Lz 
     503          110   -7837.5243   -7267.3251   -277.78801     102002.7      46.7237      46.7237      46.7237 
    1000    98.705096   -7338.9939   -6827.3433    -707.5476     102002.7      46.7237      46.7237      46.7237 
    2000    112.19079   -7252.0888   -6670.5335   -584.67418     102002.7      46.7237      46.7237      46.7237 
    3000    104.18455   -7227.6242   -6687.5702   -1085.3189     102002.7      46.7237      46.7237      46.7237 
    4000    108.39612   -7262.1122    -6700.227   -641.85946     102002.7      46.7237      46.7237      46.7237 
    5000    111.50534   -7248.4239   -6670.4216   -850.49049     102002.7      46.7237      46.7237      46.7237 
    6000    107.83423   -7268.9837    -6710.011   -647.05271     102002.7      46.7237      46.7237      46.7237 
    7000     110.8728   -7260.4072   -6685.6838   -614.44379     102002.7      46.7237      46.7237      46.7237 
    8000    105.94008   -7266.4873   -6717.3333   -533.23802     102002.7      46.7237      46.7237      46.7237 
    9000    111.96398   -7264.0555   -6683.6758   -542.65463     102002.7      46.7237      46.7237      46.7237 
   10000     112.2809   -7245.5897   -6663.5672   -629.21354     102002.7      46.7237      46.7237      46.7237 
   11000    110.23317    -7264.733   -6693.3252   -890.67735     102002.7      46.7237      46.7237      46.7237 
   12000    110.15228   -7247.9733   -6676.9847   -711.10934     102002.7      46.7237      46.7237      46.7237 
   13000    107.45018   -7279.6629   -6722.6811   -868.92539     102002.7      46.7237      46.7237      46.7237 
   14000    112.86153   -7248.1979   -6663.1656   -933.43797     102002.7      46.7237      46.7237      46.7237 
   15000    106.80118   -7255.6023   -6701.9846   -746.40481     102002.7      46.7237      46.7237      46.7237 
   16000    111.65828   -7234.1628   -6655.3677   -904.69678     102002.7      46.7237      46.7237      46.7237 
   17000    109.47859   -7269.9149   -6702.4186   -896.64129     102002.7      46.7237      46.7237      46.7237 
   18000    111.19613   -7248.5869   -6672.1874   -834.58025     102002.7      46.7237      46.7237      46.7237 
   19000    107.20441   -7263.5909    -6707.883   -632.24367     102002.7      46.7237      46.7237      46.7237 
   20000    111.02878   -7241.9591   -6666.4271   -647.60581     102002.7      46.7237      46.7237      46.7237 
   21000    111.79053   -7273.1538   -6693.6732   -777.41842     102002.7      46.7237      46.7237      46.7237 
   22000    112.46925   -7253.4488   -6670.4499   -643.61992     102002.7      46.7237      46.7237      46.7237 
   23000    109.40957   -7247.4496    -6680.311   -794.40656     102002.7      46.7237      46.7237      46.7237 
   24000     112.3897   -7270.0541   -6687.4677   -746.74922     102002.7      46.7237      46.7237      46.7237 
   25000    113.83577   -7243.8439   -6653.7615   -499.84773     102002.7      46.7237      46.7237      46.7237 
   26000    109.61412   -7252.9586   -6684.7598   -871.20456     102002.7      46.7237      46.7237      46.7237 
   27000    107.96942   -7220.7094    -6661.036   -595.32895     102002.7      46.7237      46.7237      46.7237 
   28000    111.53738   -7250.4106   -6672.2423   -516.41456     102002.7      46.7237      46.7237      46.7237 
   29000    108.61688   -7254.7163   -6691.6868   -601.36815     102002.7      46.7237      46.7237      46.7237 
   30000    112.08117    -7259.476   -6678.4888   -991.57493     102002.7      46.7237      46.7237      46.7237 
   31000    107.27311   -7243.2346   -6687.1706   -498.87275     102002.7      46.7237      46.7237      46.7237 
   32000    111.86711   -7252.1475     -6672.27   -771.98448     102002.7      46.7237      46.7237      46.7237 
   33000    109.48076   -7263.4283   -6695.9207    -730.2999     102002.7      46.7237      46.7237      46.7237 
   34000    109.66384     -7253.27   -6684.8134   -1026.1178     102002.7      46.7237      46.7237      46.7237 
   35000    107.36067   -7272.2427   -6715.7248   -789.73302     102002.7      46.7237      46.7237      46.7237 
   36000    110.81061   -7234.5927   -6660.1917   -737.09595     102002.7      46.7237      46.7237      46.7237 
   37000    110.71594      -7275.3   -6701.3897   -431.22365     102002.7      46.7237      46.7237      46.7237 
   38000    108.85026   -7264.7743    -6700.535   -570.98218     102002.7      46.7237      46.7237      46.7237 
   39000    114.01356   -7267.0047   -6676.0007   -788.73184     102002.7      46.7237      46.7237      46.7237 
   40000    105.93821   -7256.6901   -6707.5457   -600.20522     102002.7      46.7237      46.7237      46.7237 
   41000    110.26348    -7251.015     -6679.45   -601.18792     102002.7      46.7237      46.7237      46.7237 
   42000    111.07074   -7261.2516   -6685.5022   -881.02813     102002.7      46.7237      46.7237      46.7237 
   43000    112.36248   -7266.6471   -6684.2018   -786.79956     102002.7      46.7237      46.7237      46.7237 
   44000    111.01437    -7267.436   -6691.9788   -640.58342     102002.7      46.7237      46.7237      46.7237 
   45000    108.37342   -7253.6493   -6691.8818   -482.21834     102002.7      46.7237      46.7237      46.7237 
   46000    110.52626   -7265.3362   -6692.4092   -593.24402     102002.7      46.7237      46.7237      46.7237 
   47000     112.7651   -7249.5769   -6665.0445   -496.63528     102002.7      46.7237      46.7237      46.7237 
   48000     108.5086   -7250.7787   -6688.3104   -625.39312     102002.7      46.7237      46.7237      46.7237 
   49000    107.75351   -7241.6562    -6683.102   -640.80307     102002.7      46.7237      46.7237      46.7237 
   50000    104.41675   -7259.6229   -6718.3652   -815.73607     102002.7      46.7237      46.7237      46.7237 
   51000    112.80493   -7261.8785   -6677.1396   -782.69099     102002.7      46.7237      46.7237      46.7237 
   52000     109.7152   -7244.7718   -6676.0489   -816.07248     102002.7      46.7237      46.7237      46.7237 
   53000    112.69175   -7248.2125   -6664.0604    -911.1188     102002.7      46.7237      46.7237      46.7237 
   54000    108.28926    -7253.633   -6692.3017   -602.23986     102002.7      46.7237      46.7237      46.7237 
   55000    108.74102     -7234.89   -6671.2169      -972.91     102002.7      46.7237      46.7237      46.7237 
   56000    109.32295   -7267.1057   -6700.4161   -702.73506     102002.7      46.7237      46.7237      46.7237 
   57000    109.50541   -7230.4581   -6662.8227   -588.68146     102002.7      46.7237      46.7237      46.7237 
   58000    109.28521   -7257.8651   -6691.3712   -272.63849     102002.7      46.7237      46.7237      46.7237 
   59000    107.38732   -7259.1947   -6702.5388    -697.3562     102002.7      46.7237      46.7237      46.7237 
   60000    110.85414   -7258.0374   -6683.4107   -746.56913     102002.7      46.7237      46.7237      46.7237 
   61000    109.09406   -7248.4832   -6682.9801   -586.80541     102002.7      46.7237      46.7237      46.7237 
   62000    110.10062   -7282.8501   -6712.1293   -856.91821     102002.7      46.7237      46.7237      46.7237 
   63000    107.87092   -7253.8017   -6694.6389   -818.29851     102002.7      46.7237      46.7237      46.7237 
   64000    111.76873    -7265.482   -6686.1144   -766.31222     102002.7      46.7237      46.7237      46.7237 
   65000    112.73155   -7241.6381   -6657.2796   -663.31788     102002.7      46.7237      46.7237      46.7237 
   66000    109.98712   -7275.7605   -6705.6281   -746.94212     102002.7      46.7237      46.7237      46.7237 
   67000    111.18252   -7254.9421   -6678.6132   -704.10721     102002.7      46.7237      46.7237      46.7237 
   68000    108.89974   -7238.1378    -6673.642   -637.84132     102002.7      46.7237      46.7237      46.7237 
   69000     107.6473   -7263.9033   -6705.8997    -729.8356     102002.7      46.7237      46.7237      46.7237 
   70000     110.6334   -7256.0943   -6682.6119    -723.3465     102002.7      46.7237      46.7237      46.7237 
   71000     107.2366   -7268.9596   -6713.0849   -710.27452     102002.7      46.7237      46.7237      46.7237 
   72000    107.54598   -7251.1475   -6693.6691   -761.28135     102002.7      46.7237      46.7237      46.7237 
   73000       112.51   -7263.0466   -6679.8365   -395.43186     102002.7      46.7237      46.7237      46.7237 
   74000    110.85267   -7263.1149   -6688.4958   -795.02008     102002.7      46.7237      46.7237      46.7237 
   75000     113.5148   -7252.7556   -6664.3371   -851.84321     102002.7      46.7237      46.7237      46.7237 
   76000    109.02555   -7257.1998   -6692.0518   -940.18651     102002.7      46.7237      46.7237      46.7237 
   77000    113.37112   -7256.4965   -6668.8227   -750.75921     102002.7      46.7237      46.7237      46.7237 
   78000    109.50967   -7253.9823   -6686.3249   -601.01945     102002.7      46.7237      46.7237      46.7237 
   79000    112.02452   -7254.6641   -6673.9706   -899.86459     102002.7      46.7237      46.7237      46.7237 
   80000    109.07594   -7256.7063   -6691.2972   -690.86402     102002.7      46.7237      46.7237      46.7237 
   81000    109.23946   -7255.3849   -6689.1281   -1037.8734     102002.7      46.7237      46.7237      46.7237 
   82000     109.6344   -7242.1121   -6673.8081   -899.00653     102002.7      46.7237      46.7237      46.7237 
   83000    108.88264   -7257.2588   -6692.8517   -1089.5155     102002.7      46.7237      46.7237      46.7237 
   84000    110.92248   -7258.3864   -6683.4055   -894.97948     102002.7      46.7237      46.7237      46.7237 
   85000     108.2454   -7248.1487   -6687.0448   -684.20839     102002.7      46.7237      46.7237      46.7237 
   86000    112.24801   -7254.1774   -6672.3254    -1017.562     102002.7      46.7237      46.7237      46.7237 
   87000     111.0499   -7245.9426   -6670.3011   -842.91558     102002.7      46.7237      46.7237      46.7237 
   88000    107.27795   -7262.0408   -6705.9517   -853.51555     102002.7      46.7237      46.7237      46.7237 
   89000    112.95489   -7242.6596   -6657.1434   -775.86108     102002.7      46.7237      46.7237      46.7237 
   90000    111.08821   -7256.7764   -6680.9364   -558.94641     102002.7      46.7237      46.7237      46.7237 
   91000    110.73555   -7259.6443   -6685.6323   -562.34402     102002.7      46.7237      46.7237      46.7237 
   92000    107.77375   -7268.5943   -6709.9351   -491.90092     102002.7      46.7237      46.7237      46.7237 
   93000    107.82148   -7258.4367   -6699.5302   -793.64155     102002.7      46.7237      46.7237      46.7237 
   94000      113.065   -7250.3255   -6664.2385   -742.20229     102002.7      46.7237      46.7237      46.7237 
   95000    108.48184   -7231.5989   -6669.2693     -810.835     102002.7      46.7237      46.7237      46.7237 
   96000    111.46662   -7265.8656   -6688.0641   -933.99157     102002.7      46.7237      46.7237      46.7237 
   97000    107.19236   -7247.6144    -6691.969   -766.99268     102002.7      46.7237      46.7237      46.7237 
   98000    111.84634    -7254.197   -6674.4271   -851.55818     102002.7      46.7237      46.7237      46.7237 
   99000    110.37817   -7276.8569   -6704.6975   -678.91709     102002.7      46.7237      46.7237      46.7237 
  100000    111.73171   -7276.1816   -6697.0059   -823.40953     102002.7      46.7237      46.7237      46.7237 
  101000    112.66828   -7254.6991   -6670.6686   -802.51351     102002.7      46.7237      46.7237      46.7237 
  102000    111.45417   -7251.8426   -6674.1055   -798.99152     102002.7      46.7237      46.7237      46.7237 
  103000    107.42788   -7257.6182    -6700.752   -918.17476     102002.7      46.7237      46.7237      46.7237 
  104000      111.973   -7258.9184   -6678.4919   -766.41075     102002.7      46.7237      46.7237      46.7237 
  105000     110.4168   -7250.6728   -6678.3131   -795.55342     102002.7      46.7237      46.7237      46.7237 
  106000    111.20032   -7239.0353   -6662.6141   -771.98135     102002.7      46.7237      46.7237      46.7237 
  107000    108.36491   -7261.2875   -6699.5641   -783.97313     102002.7      46.7237      46.7237      46.7237 
  108000    107.44849   -7233.8093   -6676.8363   -692.32348     102002.7      46.7237      46.7237      46.7237 
  109000     107.8099   -7266.0278   -6707.1813   -817.59232     102002.7      46.7237      46.7237      46.7237 
  110000    111.32226   -7248.0614   -6671.0082   -647.32897     102002.7      46.7237      46.7237      46.7237 
  111000    111.25694   -7269.5426   -6692.8279    -775.5683     102002.7      46.7237      46.7237      46.7237 
  112000    108.18263   -7258.1102   -6697.3316    -880.1406     102002.7      46.7237      46.7237      46.7237 
  113000    110.22041   -7251.8026   -6680.4609   -797.82876     102002.7      46.7237      46.7237      46.7237 
  114000    108.65788    -7254.658   -6691.4159   -969.51076     102002.7      46.7237      46.7237      46.7237 
  115000     108.1062   -7268.8364    -6708.454   -655.33856     102002.7      46.7237      46.7237      46.7237 
  116000    109.01071   -7253.6686   -6688.5976   -745.91068     102002.7      46.7237      46.7237      46.7237 
  117000    109.38058   -7247.5377   -6680.5494   -930.51012     102002.7      46.7237      46.7237      46.7237 
  118000    110.41388   -7248.1055    -6675.761   -659.06114     102002.7      46.7237      46.7237      46.7237 
  119000    109.12165   -7262.2577   -6696.6115   -813.79172     102002.7      46.7237      46.7237      46.7237 
  120000    113.40568   -7285.0139    -6697.161   -567.49096     102002.7      46.7237      46.7237      46.7237 
  121000    106.40817   -7260.4564    -6708.876   -896.12642     102002.7      46.7237      46.7237      46.7237 
  122000      113.169   -7260.3124   -6673.6863   -644.94526     102002.7      46.7237      46.7237      46.7237 
  123000    108.02549   -7250.7504   -6690.7863   -921.81792     102002.7      46.7237      46.7237      46.7237 
  124000    110.93624   -7240.2591   -6665.2069   -806.39152     102002.7      46.7237      46.7237      46.7237 
  125000     108.8413   -7254.7031   -6690.5102   -721.99762     102002.7      46.7237      46.7237      46.7237 
  126000    110.97577   -7249.2181   -6673.9609   -712.34305     102002.7      46.7237      46.7237      46.7237 
  127000    109.51481   -7241.8093   -6674.1252   -856.59858     102002.7      46.7237      46.7237      46.7237 
  128000    109.67646   -7266.3328   -6697.8108   -826.56775     102002.7      46.7237      46.7237      46.7237 
  129000    111.16265   -7249.4566   -6673.2307   -708.37184     102002.7      46.7237      46.7237      46.7237 
  130000    112.19022   -7254.2553   -6672.7028   -664.39542     102002.7      46.7237      46.7237      46.7237 
  131000    109.08795   -7275.1024    -6709.631   -807.41621     102002.7      46.7237      46.7237      46.7237 
  132000    109.78017   -7234.3296   -6665.2699   -847.21513     102002.7      46.7237      46.7237      46.7237 
  133000    111.22036   -7267.8176   -6691.2925   -584.24079     102002.7      46.7237      46.7237      46.7237 
  134000      108.156   -7256.8654   -6696.2249   -621.51558     102002.7      46.7237      46.7237      46.7237 
  135000    110.68959   -7276.5929   -6702.8192   -632.52039     102002.7      46.7237      46.7237      46.7237 
  136000    110.51031   -7256.0188   -6683.1744    -913.3673     102002.7      46.7237      46.7237      46.7237 
  137000    109.95309   -7256.6157   -6686.6598    -892.5811     102002.7      46.7237      46.7237      46.7237 
  138000    108.78632   -7253.0693   -6689.1614   -785.77517     102002.7      46.7237      46.7237      46.7237 
  139000    109.75432   -7246.0227    -6677.097   -841.64873     102002.7      46.7237      46.7237      46.7237 
  140000    111.25972   -7250.0275   -6673.2985   -488.08673     102002.7      46.7237      46.7237      46.7237 
  141000    109.07845   -7244.0521   -6678.6299   -909.93347     102002.7      46.7237      46.7237      46.7237 
  142000    112.81925   -7240.5172   -6655.7041    -958.1176     102002.7      46.7237      46.7237      46.7237 
  143000    113.51917   -7251.1236   -6662.6824   -575.18346     102002.7      46.7237      46.7237      46.7237 
  144000    112.04638   -7255.0102   -6674.2034   -633.78565     102002.7      46.7237      46.7237      46.7237 
  145000    108.60732   -7270.2012   -6707.2211   -840.82959     102002.7      46.7237      46.7237      46.7237 
  146000    111.95814   -7262.9274   -6682.5779   -387.91169     102002.7      46.7237      46.7237      46.7237 
  147000     104.2666    -7248.839   -6708.3597   -499.42679     102002.7      46.7237      46.7237      46.7237 
  148000    111.56954   -7258.1318   -6679.7967   -718.34277     102002.7      46.7237      46.7237      46.7237 
  149000    110.69185   -7292.3457   -6718.5602   -865.29443     102002.7      46.7237      46.7237      46.7237 
  150000     106.6294   -7254.4752    -6701.748   -911.71423     102002.7      46.7237      46.7237      46.7237 
  151000    110.40802   -7243.4518   -6671.1376   -759.94565     102002.7      46.7237      46.7237      46.7237 
  152000    110.22653   -7264.7811   -6693.4077   -565.85123     102002.7      46.7237      46.7237      46.7237 
  153000    107.36542     -7259.45   -6702.9075   -1022.8854     102002.7      46.7237      46.7237      46.7237 
  154000     107.7804   -7251.2026    -6692.509   -1033.6388     102002.7      46.7237      46.7237      46.7237 
  155000    109.05416   -7232.7062     -6667.41   -853.98221     102002.7      46.7237      46.7237      46.7237 
  156000     109.4048   -7257.9248   -6690.8109   -842.71164     102002.7      46.7237      46.7237      46.7237 
  157000    109.88999   -7258.9036   -6689.2746   -639.49041     102002.7      46.7237      46.7237      46.7237 
  158000    111.37927   -7240.5572   -6663.2084   -767.07523     102002.7      46.7237      46.7237      46.7237 
  159000    106.48701   -7242.0691     -6690.08   -648.23449     102002.7      46.7237      46.7237      46.7237 
  160000     114.9391   -7260.2025   -6664.4008   -798.03323     102002.7      46.7237      46.7237      46.7237 
  161000    109.39584    -7249.691   -6682.6236   -502.84167     102002.7      46.7237      46.7237      46.7237 
  162000    112.44637   -7271.5964   -6688.7162   -797.82117     102002.7      46.7237      46.7237      46.7237 
  163000    112.49223   -7252.6083   -6669.4903   -868.84679     102002.7      46.7237      46.7237      46.7237 
  164000    111.04633   -7242.2708   -6666.6479   -840.83446     102002.7      46.7237      46.7237      46.7237 
  165000    108.63208   -7259.4551   -6696.3467   -920.08612     102002.7      46.7237      46.7237      46.7237 
  166000    112.26793    -7242.438   -6660.4828   -827.60676     102002.7      46.7237      46.7237      46.7237 
  167000    112.64254   -7266.2721    -6682.375   -1008.3953     102002.7      46.7237      46.7237      46.7237 
  168000     107.7011    -7260.726   -6702.4435   -1364.4635     102002.7      46.7237      46.7237      46.7237 
  169000    107.66647   -7233.4996   -6675.3966    -677.6763     102002.7      46.7237      46.7237      46.7237 
  170000    105.80366   -7274.8553   -6726.4084   -1133.8963     102002.7      46.7237      46.7237      46.7237 
  171000    111.91549   -7261.1778   -6681.0495   -928.45924     102002.7      46.7237      46.7237      46.7237 
  172000    110.37204   -7267.3702   -6695.2425   -758.70912     102002.7      46.7237      46.7237      46.7237 
  173000    110.27212   -7237.9001   -6666.2904   -818.62796     102002.7      46.7237      46.7237      46.7237 
  174000    111.71045   -7270.8284   -6691.7629   -757.82633     102002.7      46.7237      46.7237      46.7237 
  175000    113.78618   -7240.1378   -6650.3125    -1089.128     102002.7      46.7237      46.7237      46.7237 
  176000    109.98658   -7250.9861   -6680.8565   -698.63959     102002.7      46.7237      46.7237      46.7237 
  177000    110.61573    -7249.079   -6675.6881   -724.35963     102002.7      46.7237      46.7237      46.7237 
  178000    107.65522   -7263.6256   -6705.5808    -442.1038     102002.7      46.7237      46.7237      46.7237 
  179000    111.32139    -7249.934   -6672.8853   -672.52167     102002.7      46.7237      46.7237      46.7237 
  180000    108.47067   -7259.0998   -6696.8281   -735.90273     102002.7      46.7237      46.7237      46.7237 
  181000    109.30703   -7285.4645   -6718.8574   -410.48326     102002.7      46.7237      46.7237      46.7237 
  182000    108.14449   -7243.4401   -6682.8592   -543.43363     102002.7      46.7237      46.7237      46.7237 
  183000    106.87177   -7248.4414   -6694.4578   -934.81167     102002.7      46.7237      46.7237      46.7237 
  184000    107.86404   -7256.6987   -6697.5715   -681.33833     102002.7      46.7237      46.7237      46.7237 
  185000    110.48279   -7261.0068    -6688.305   -910.95897     102002.7      46.7237      46.7237      46.7237 
  186000    108.88183   -7232.3569   -6667.9539   -814.19966     102002.7      46.7237      46.7237      46.7237 
  187000    110.85778   -7249.4599   -6674.8144   -870.11642     102002.7      46.7237      46.7237      46.7237 
  188000     107.5421   -7268.7174   -6711.2591   -643.14544     102002.7      46.7237      46.7237      46.7237 
  189000    112.19052    -7252.724   -6671.1699   -826.72984     102002.7      46.7237      46.7237      46.7237 
  190000    111.91174   -7243.1287   -6663.0198   -773.28345     102002.7      46.7237      46.7237      46.7237 
  191000    107.43531   -7255.2235   -6698.3188   -655.48769     102002.7      46.7237      46.7237      46.7237 
  192000    107.05484   -7253.3022   -6698.3697   -731.90584     102002.7      46.7237      46.7237      46.7237 
  193000    105.97543    -7264.285   -6714.9477   -346.49988     102002.7      46.7237      46.7237      46.7237 
  194000    108.43399   -7259.5003   -6697.4188   -829.04428     102002.7      46.7237      46.7237      46.7237 
  195000    110.57384    -7262.766   -6689.5923   -566.38253     102002.7      46.7237      46.7237      46.7237 
  196000    114.42298   -7239.6083    -6646.482   -579.56169     102002.7      46.7237      46.7237      46.7237 
  197000    111.18149   -7267.1019   -6690.7783   -688.13218     102002.7      46.7237      46.7237      46.7237 
  198000    110.95487   -7238.6971   -6663.5483   -592.76874     102002.7      46.7237      46.7237      46.7237 
  199000    115.69526   -7269.6785   -6669.9572   -581.95838     102002.7      46.7237      46.7237      46.7237 
  200000    107.84112   -7246.5528   -6687.5445   -563.41256     102002.7      46.7237      46.7237      46.7237 
  201000     110.1024   -7274.2606   -6703.5307   -712.45927     102002.7      46.7237      46.7237      46.7237 
  202000    108.43769   -7236.9576   -6674.8569   -671.74043     102002.7      46.7237      46.7237      46.7237 
  203000    106.79443    -7264.665   -6711.0823   -466.11365     102002.7      46.7237      46.7237      46.7237 
  204000    109.67767   -7241.4921   -6672.9638    -696.5639     102002.7      46.7237      46.7237      46.7237 
  205000    108.47679   -7268.5691   -6706.2657   -578.97802     102002.7      46.7237      46.7237      46.7237 
  206000    112.26229   -7247.9382   -6666.0121   -819.77077     102002.7      46.7237      46.7237      46.7237 
  207000    108.94096   -7256.5353   -6691.8258   -579.55881     102002.7      46.7237      46.7237      46.7237 
  208000    110.57765   -7252.1986   -6679.0051   -742.38252     102002.7      46.7237      46.7237      46.7237 
  209000    112.75708   -7271.5579    -6687.067    -459.2781     102002.7      46.7237      46.7237      46.7237 
  210000    110.19604   -7257.9066   -6686.6912   -414.15435     102002.7      46.7237      46.7237      46.7237 
  211000    110.69814   -7258.0406   -6684.2226    -529.0646     102002.7      46.7237      46.7237      46.7237 
  212000    107.48103   -7256.6273   -6699.4855   -574.69055     102002.7      46.7237      46.7237      46.7237 
  213000    110.84675   -7256.8845   -6682.2961   -879.92355     102002.7      46.7237      46.7237      46.7237 
  214000    111.29385   -7256.0343   -6679.1284   -595.65392     102002.7      46.7237      46.7237      46.7237 
  215000    109.55901   -7267.6122   -6699.6989   -971.25185     102002.7      46.7237      46.7237      46.7237 
  216000    109.41931    -7278.806    -6711.617   -1054.1035     102002.7      46.7237      46.7237      46.7237 
  217000    109.12211   -7250.0828   -6684.4343   -519.06768     102002.7      46.7237      46.7237      46.7237 
  218000    110.78853   -7265.2154   -6690.9287   -841.19806     102002.7      46.7237      46.7237      46.7237 
  219000    112.64445   -7243.0655   -6659.1585   -554.34832     102002.7      46.7237      46.7237      46.7237 
  220000    107.49211   -7253.4544   -6696.2552   -744.92341     102002.7      46.7237      46.7237      46.7237 
  221000    111.52319   -7286.4975   -6708.4027   -1015.9754     102002.7      46.7237      46.7237      46.7237 
  222000    111.45603    -7252.332   -6674.5853   -620.72784     102002.7      46.7237      46.7237      46.7237 
  223000    111.74431    -7266.379    -6687.138    -879.8364     102002.7      46.7237      46.7237      46.7237 
  224000    115.39167   -7262.9742   -6664.8266   -423.71522     102002.7      46.7237      46.7237      46.7237 
  225000    112.35128   -7263.0461   -6680.6588   -339.50443     102002.7      46.7237      46.7237      46.7237 
  226000     109.0689   -7257.1034   -6691.7307   -396.47873     102002.7      46.7237      46.7237      46.7237 
  227000    109.48672    -7249.013   -6681.4745    -363.8502     102002.7      46.7237      46.7237      46.7237 
  228000    113.66196   -7263.7921   -6674.6107   -684.33113     102002.7      46.7237      46.7237      46.7237 
  229000    107.02611   -7245.3604   -6690.5768   -672.44274     102002.7      46.7237      46.7237      46.7237 
  230000    114.19726    -7248.026   -6656.0698   -835.98885     102002.7      46.7237      46.7237      46.7237 
  231000    108.81148   -7256.5618   -6692.5235   -715.48561     102002.7      46.7237      46.7237      46.7237 
  232000    110.24009   -7258.3334   -6686.8898   -651.23347     102002.7      46.7237      46.7237      46.7237 
  233000    106.32249   -7271.3582   -6720.2219   -656.77723     102002.7      46.7237      46.7237      46.7237 
  234000    112.40068   -7270.5872   -6687.9439   -650.53379     102002.7      46.7237      46.7237      46.7237 
  235000    108.26851    -7257.263   -6696.0392   -721.81391     102002.7      46.7237      46.7237      46.7237 
  236000    112.05064    -7252.824   -6671.9951    -595.6888     102002.7      46.7237      46.7237      46.7237 
  237000    109.56856   -7239.1797    -6671.217   -850.00974     102002.7      46.7237      46.7237      46.7237 
  238000     111.0188   -7265.6091   -6690.1289    -805.6469     102002.7      46.7237      46.7237      46.7237 
  239000    111.80187   -7264.9769   -6685.4375   -745.58017     102002.7      46.7237      46.7237      46.7237 
  240000    106.71528   -7257.4702   -6704.2978   -633.38798     102002.7      46.7237      46.7237      46.7237 
  241000    112.79792   -7268.4591   -6683.7565   -603.75876     102002.7      46.7237      46.7237      46.7237 
  242000     114.6143   -7249.0246   -6654.9066   -906.17742     102002.7      46.7237      46.7237      46.7237 
  243000    106.25909   -7258.9595   -6708.1518   -767.34404     102002.7      46.7237      46.7237      46.7237 
  244000    109.78076   -7251.5576   -6682.4949   -848.45887     102002.7      46.7237      46.7237      46.7237 
  245000    112.36773   -7239.9303   -6657.4577   -861.33182     102002.7      46.7237      46.7237      46.7237 
  246000    105.62782    -7241.133   -6693.5976   -668.44726     102002.7      46.7237      46.7237      46.7237 
  247000    109.91743   -7268.8235   -6699.0524   -627.08168     102002.7      46.7237      46.7237      46.7237 
  248000    109.69758   -7247.1962   -6678.5647   -500.20299     102002.7      46.7237      46.7237      46.7237 
  249000     107.8582   -7271.1191   -6712.0222    -811.0095     102002.7      46.7237      46.7237      46.7237 
  250000    110.80705   -7253.1019   -6678.7193   -622.46561     102002.7      46.7237      46.7237      46.7237 
  251000    110.22685    -7274.289    -6702.914   -448.81784     102002.7      46.7237      46.7237      46.7237 
  252000    111.17289   -7248.7671   -6672.4881   -712.05159     102002.7      46.7237      46.7237      46.7237 
  253000    110.40287   -7257.7578   -6685.4703   -895.78682     102002.7      46.7237      46.7237      46.7237 
  254000     108.0509   -7283.0292   -6722.9334   -724.33031     102002.7      46.7237      46.7237      46.7237 
  255000    111.00695   -7250.1009   -6674.6821   -774.66359     102002.7      46.7237      46.7237      46.7237 
  256000    112.38504    -7268.428   -6685.8657   -723.83295     102002.7      46.7237      46.7237      46.7237 
  257000     111.3265   -7254.4307   -6677.3555   -721.61805     102002.7      46.7237      46.7237      46.7237 
  258000    109.02301   -7248.6571   -6683.5223   -787.75827     102002.7      46.7237      46.7237      46.7237 
  259000    111.72841   -7248.7797   -6669.6211   -656.32465     102002.7      46.7237      46.7237      46.7237 
  260000    106.12942   -7241.1351   -6690.9996   -784.54483     102002.7      46.7237      46.7237      46.7237 
  261000    109.92122   -7263.8419   -6694.0512   -919.02469     102002.7      46.7237      46.7237      46.7237 
  262000    114.05592   -7269.3427   -6678.1192   -734.21325     102002.7      46.7237      46.7237      46.7237 
  263000    108.70925   -7267.6442   -6704.1358   -601.03161     102002.7      46.7237      46.7237      46.7237 
  264000     114.0193   -7260.6888   -6669.6551   -649.29429     102002.7      46.7237      46.7237      46.7237 
  265000    107.01252   -7263.4554   -6708.7422   -580.61233     102002.7      46.7237      46.7237      46.7237 
  266000    110.56477   -7255.7548   -6682.6281   -458.34298     102002.7      46.7237      46.7237      46.7237 
  267000    116.89232   -7248.3672   -6642.4409   -680.62027     102002.7      46.7237      46.7237      46.7237 
  268000    108.26591   -7265.7892   -6704.5789   -576.08586     102002.7      46.7237      46.7237      46.7237 
  269000    111.73491   -7251.8332   -6672.6409   -310.75485     102002.7      46.7237      46.7237      46.7237 
  270000    108.84183   -7251.8472   -6687.6516   -402.95927     102002.7      46.7237      46.7237      46.7237 
  271000    111.07822    -7262.432   -6686.6437   -648.83457     102002.7      46.7237      46.7237      46.7237 
  272000    110.32321   -7244.6588   -6672.7842   -641.39231     102002.7      46.7237      46.7237      46.7237 
  273000    111.75708   -7252.4231   -6673.1159   -679.22901     102002.7      46.7237      46.7237      46.7237 
  274000    105.78319   -7254.7264   -6706.3856   -738.15541     102002.7      46.7237      46.7237      46.7237 
  275000    108.66422   -7268.8269    -6705.552   -726.40418     102002.7      46.7237      46.7237      46.7237 
  276000     109.6328   -7254.1791   -6685.8833   -613.76958     102002.7      46.7237      46.7237      46.7237 
  277000    108.98797   -7264.6054   -6699.6523   -561.33452     102002.7      46.7237      46.7237      46.7237 
  278000    110.59544   -7247.5672   -6674.2815   -495.67116     102002.7      46.7237      46.7237      46.7237 
  279000    109.68471    -7267.083   -6698.5182   -662.44835     102002.7      46.7237      46.7237      46.7237 
  280000    109.68114   -7250.4116   -6681.8652   -259.49263     102002.7      46.7237      46.7237      46.7237 
  281000    109.08356   -7273.1521   -6707.7034   -765.90502     102002.7      46.7237      46.7237      46.7237 
  282000    110.80205   -7260.0404   -6685.6837   -562.80058     102002.7      46.7237      46.7237      46.7237 
  283000    108.71909   -7250.5214    -6686.962    -719.0367     102002.7      46.7237      46.7237      46.7237 
  284000    109.87438   -7255.6554   -6686.1074   -819.66918     102002.7      46.7237      46.7237      46.7237 
  285000    111.02238   -7252.2767   -6676.7779   -526.75839     102002.7      46.7237      46.7237      46.7237 
  286000    107.19802   -7257.2415   -6701.5668   -775.10893     102002.7      46.7237      46.7237      46.7237 
  287000    112.99368   -7256.7037   -6670.9864   -566.29403     102002.7      46.7237      46.7237      46.7237 
  288000    105.82661   -7261.5235   -6712.9577   -582.70899     102002.7      46.7237      46.7237      46.7237 
  289000    110.52885   -7250.4682   -6677.5277   -777.65173     102002.7      46.7237      46.7237      46.7237 
  290000    109.94603   -7278.7598   -6708.8404    -391.7906     102002.7      46.7237      46.7237      46.7237 
  291000    106.00932   -7245.1954   -6695.6824   -760.82381     102002.7      46.7237      46.7237      46.7237 
  292000    110.19757   -7247.2313    -6676.008   -649.39899     102002.7      46.7237      46.7237      46.7237 
  293000    110.29413   -7264.1825   -6692.4587   -471.16174     102002.7      46.7237      46.7237      46.7237 
  294000    106.71653   -7253.0606   -6699.8818   -939.18767     102002.7      46.7237      46.7237      46.7237 
  295000    113.84538   -7252.6266   -6662.4944   -538.35473     102002.7      46.7237      46.7237      46.7237 
  296000    113.39219   -7263.2026   -6675.4196    -895.4929     102002.7      46.7237      46.7237      46.7237 
  297000    111.40064   -7271.9609   -6694.5013    -528.0028     102002.7      46.7237      46.7237      46.7237 
  298000    112.73925   -7254.5472   -6670.1488   -876.57427     102002.7      46.7237      46.7237      46.7237 
  299000    110.37603   -7253.2163   -6681.0679   -979.01332     102002.7      46.7237      46.7237      46.7237 
  300000    112.93213   -7257.4929   -6672.0946   -1045.9605     102002.7      46.7237      46.7237      46.7237 
  301000    112.14162   -7250.4908   -6669.1902   -970.77451     102002.7      46.7237      46.7237      46.7237 
  302000    110.96523   -7266.2291   -6691.0266    -578.6081     102002.7      46.7237      46.7237      46.7237 
  303000    109.12161   -7255.5235   -6689.8776    -501.4508     102002.7      46.7237      46.7237      46.7237 
  304000    107.11663   -7280.6542   -6725.4013   -693.68313     102002.7      46.7237      46.7237      46.7237 
  305000    111.59301   -7259.7738    -6681.317   -571.13944     102002.7      46.7237      46.7237      46.7237 
  306000    105.59639   -7256.8561   -6709.4837   -584.54802     102002.7      46.7237      46.7237      46.7237 
  307000     107.4437   -7251.7675   -6694.8192   -733.75433     102002.7      46.7237      46.7237      46.7237 
  308000    113.63291   -7260.6032   -6671.5724   -820.48942     102002.7      46.7237      46.7237      46.7237 
  309000    109.00195    -7240.162   -6675.1364   -420.84926     102002.7      46.7237      46.7237      46.7237 
  310000    110.89382   -7248.7759   -6673.9435   -489.53613     102002.7      46.7237      46.7237      46.7237 
  311000    107.95734   -7264.3654   -6704.7547   -696.43613     102002.7      46.7237      46.7237      46.7237 
  312000    112.37759    -7260.925   -6678.4013   -588.54607     102002.7      46.7237      46.7237      46.7237 
  313000    111.99889   -7246.9832   -6666.4225   -705.12955     102002.7      46.7237      46.7237      46.7237 
  314000    107.99423    -7249.063    -6689.261     -476.541     102002.7      46.7237      46.7237      46.7237 
  315000     112.4724   -7247.0027   -6663.9875   -557.63777     102002.7      46.7237      46.7237      46.7237 
  316000    111.50565   -7260.8569    -6682.853   -531.97521     102002.7      46.7237      46.7237      46.7237 
  317000    110.08177   -7273.5064   -6702.8834   -629.25157     102002.7      46.7237      46.7237      46.7237 
  318000    109.48044   -7256.7574   -6689.2514   -629.04973     102002.7      46.7237      46.7237      46.7237 
  319000    112.18636    -7275.804   -6694.2716   -272.62562     102002.7      46.7237      46.7237      46.7237 
  320000    108.18255   -7265.4323   -6704.6541   -731.19126     102002.7      46.7237      46.7237      46.7237 
  321000    107.18692   -7264.5486   -6708.9314   -942.89305     102002.7      46.7237      46.7237      46.7237 
  322000    110.68191   -7251.0865   -6677.3526   -823.43021     102002.7      46.7237      46.7237      46.7237 
  323000    113.44664   -7260.6695   -6672.6042   -783.03098     102002.7      46.7237      46.7237      46.7237 
  324000    109.82632   -7242.3835   -6673.0846   -561.58048     102002.7      46.7237      46.7237      46.7237 
  325000    110.01423   -7263.8496   -6693.5767   -730.83287     102002.7      46.7237      46.7237      46.7237 
  326000    110.55502   -7252.6563   -6679.5801   -789.01923     102002.7      46.7237      46.7237      46.7237 
  327000    108.98302   -7257.0091   -6692.0816   -811.27381     102002.7      46.7237      46.7237      46.7237 
  328000    107.46951   -7259.3298   -6702.2477   -810.60692     102002.7      46.7237      46.7237      46.7237 
  329000    109.20533   -7248.4384   -6682.3585   -718.05668     102002.7      46.7237      46.7237      46.7237 
  330000    109.33454   -7255.6207    -6688.871   -622.09605     102002.7      46.7237      46.7237      46.7237 
  331000    109.20575   -7248.2578   -6682.1757   -607.73293     102002.7      46.7237      46.7237      46.7237 
  332000    110.06529   -7225.7176     -6655.18   -870.64852     102002.7      46.7237      46.7237      46.7237 
  333000    109.18669   -7259.4319   -6693.4487   -620.75309     102002.7      46.7237      46.7237      46.7237 
  334000    109.74036   -7250.7252   -6681.8719   -647.18542     102002.7      46.7237      46.7237      46.7237 
  335000    110.79677   -7244.0359   -6669.7065   -814.01513     102002.7      46.7237      46.7237      46.7237 
  336000    108.26358   -7254.5144   -6693.3162   -627.62449     102002.7      46.7237      46.7237      46.7237 
  337000    113.71435   -7242.2816   -6652.8286   -951.20124     102002.7      46.7237      46.7237      46.7237 
  338000    114.02221   -7259.9346   -6668.8858   -694.16315     102002.7      46.7237      46.7237      46.7237 
  339000    111.12007   -7273.3842    -6697.379   -804.71318     102002.7      46.7237      46.7237      46.7237 
  340000    110.96042   -7254.0305   -6678.8529   -812.34397     102002.7      46.7237      46.7237      46.7237 
  341000    109.51314   -7253.9216   -6686.2461   -581.52128     102002.7      46.7237      46.7237      46.7237 
  342000    111.29363   -7258.2666   -6681.3618    -737.6954     102002.7      46.7237      46.7237      46.7237 
  343000    107.84584   -7251.5776   -6692.5448    -731.3796     102002.7      46.7237      46.7237      46.7237 
  344000    109.73647    -7267.184   -6698.3509   -757.92146     102002.7      46.7237      46.7237      46.7237 
  345000    106.98666     -7241.96   -6687.3809    -373.9451     102002.7      46.7237      46.7237      46.7237 
  346000    108.03045   -7259.9253   -6699.9356   -857.07819     102002.7      46.7237      46.7237      46.7237 
  347000    108.59221   -7264.7011   -6701.7994    -449.2641     102002.7      46.7237      46.7237      46.7237 
  348000    107.47497   -7238.6385   -6681.5282    -929.6524     102002.7      46.7237      46.7237      46.7237 
  349000    108.07086   -7271.6996   -6711.5004   -801.21713     102002.7      46.7237      46.7237      46.7237 
  350000    109.16991   -7256.7056   -6690.8093   -634.55489     102002.7      46.7237      46.7237      46.7237 
  351000    114.93804   -7262.6968   -6666.9007   -893.72035     102002.7      46.7237      46.7237      46.7237 
  352000    107.31906   -7276.2544   -6719.9523   -853.28419     102002.7      46.7237      46.7237      46.7237 
  353000    109.24336   -7246.7342   -6680.4571   -1017.2628     102002.7      46.7237      46.7237      46.7237 
  354000    107.27123   -7250.8625   -6694.8083   -755.75877     102002.7      46.7237      46.7237      46.7237 
  355000    110.63447   -7240.9193   -6667.4313   -902.75428     102002.7      46.7237      46.7237      46.7237 
  356000    108.54321   -7268.2183   -6705.5706   -819.46114     102002.7      46.7237      46.7237      46.7237 
  357000    111.53703   -7253.0301   -6674.8636   -756.07714     102002.7      46.7237      46.7237      46.7237 
  358000    111.03284   -7265.8296   -6690.2766   -900.23079     102002.7      46.7237      46.7237      46.7237 
  359000    112.08601   -7266.9873    -6685.975   -676.21097     102002.7      46.7237      46.7237      46.7237 
  360000    108.00185   -7269.1996   -6709.3581   -750.48517     102002.7      46.7237      46.7237      46.7237 
  361000    114.02113   -7267.5105   -6676.4673   -610.97656     102002.7      46.7237      46.7237      46.7237 
  362000    109.07906   -7265.1588   -6699.7335   -830.20193     102002.7      46.7237      46.7237      46.7237 
  363000    111.28942    -7256.722    -6679.839   -776.71949     102002.7      46.7237      46.7237      46.7237 
  364000    110.69703   -7246.8949   -6673.0826   -377.63748     102002.7      46.7237      46.7237      46.7237 
  365000    106.44784   -7262.0793   -6710.2932   -642.92622     102002.7      46.7237      46.7237      46.7237 
  366000    110.34315   -7244.5129    -6672.535   -714.13881     102002.7      46.7237      46.7237      46.7237 
  367000     111.2487     -7266.52    -6689.848   -591.75223     102002.7      46.7237      46.7237      46.7237 
  368000    113.90173   -7250.4381   -6660.0138    -469.3583     102002.7      46.7237      46.7237      46.7237 
  369000     110.7001   -7266.4956   -6692.6674   -360.17056     102002.7      46.7237      46.7237      46.7237 
  370000    109.05884   -7279.5228   -6714.2023   -565.64251     102002.7      46.7237      46.7237      46.7237 
  371000    105.40721   -7248.7874   -6702.3956   -389.39174     102002.7      46.7237      46.7237      46.7237 
  372000     110.1431   -7239.3584   -6668.4175   -575.70099     102002.7      46.7237      46.7237      46.7237 
  373000     108.0826   -7260.6113   -6700.3513   -611.19486     102002.7      46.7237      46.7237      46.7237 
  374000    111.25381    -7252.586   -6675.8875   -502.44704     102002.7      46.7237      46.7237      46.7237 
  375000    109.95297   -7247.4279   -6677.4726   -575.56277     102002.7      46.7237      46.7237      46.7237 
  376000     108.8298   -7251.4299   -6687.2966   -862.77727     102002.7      46.7237      46.7237      46.7237 
  377000    111.24167   -7263.6737   -6687.0382   -796.69926     102002.7      46.7237      46.7237      46.7237 
  378000     112.0365   -7261.6724   -6680.9168   -845.24731     102002.7      46.7237      46.7237      46.7237 
  379000    107.43615   -7265.4928   -6708.5837   -875.26329     102002.7      46.7237      46.7237      46.7237 
  380000    108.35397    -7234.029   -6672.3623   -764.53868     102002.7      46.7237      46.7237      46.7237 
  381000    108.65408   -7242.8735   -6679.6512     -602.602     102002.7      46.7237      46.7237      46.7237 
  382000    110.19599    -7233.234   -6662.0189   -806.78803     102002.7      46.7237      46.7237      46.7237 
  383000    108.10568   -7259.2369   -6698.8572   -749.33491     102002.7      46.7237      46.7237      46.7237 
  384000    110.32323   -7248.4061   -6676.5314   -773.28443     102002.7      46.7237      46.7237      46.7237 
  385000    105.66082   -7268.9279   -6721.2215   -817.98523     102002.7      46.7237      46.7237      46.7237 
  386000    109.72855   -7252.2628   -6683.4708   -843.94409     102002.7      46.7237      46.7237      46.7237 
  387000     111.8159   -7266.7279   -6687.1158   -538.55237     102002.7      46.7237      46.7237      46.7237 
  388000    109.81441   -7266.5708   -6697.3336   -772.57228     102002.7      46.7237      46.7237      46.7237 
  389000    109.85307   -7279.9737   -6710.5361     -812.807     102002.7      46.7237      46.7237      46.7237 
  390000    111.92931   -7259.0173   -6678.8174   -673.85226     102002.7      46.7237      46.7237      46.7237 
  391000    114.05554   -7260.1607   -6668.9392   -867.87159     102002.7      46.7237      46.7237      46.7237 
  392000    112.58006   -7268.6422   -6685.0689   -847.09549     102002.7      46.7237      46.7237      46.7237 
  393000    107.11125   -7254.9377   -6699.7128   -717.53646     102002.7      46.7237      46.7237      46.7237 
  394000    108.09237   -7258.4138   -6698.1031   -925.34541     102002.7      46.7237      46.7237      46.7237 
  395000    113.21283    -7272.059   -6685.2057   -602.56947     102002.7      46.7237      46.7237      46.7237 
  396000    110.83025   -7253.0462   -6678.5434   -868.91581     102002.7      46.7237      46.7237      46.7237 
  397000    109.55918   -7266.3371    -6698.423    -704.2721     102002.7      46.7237      46.7237      46.7237 
  398000    108.67005   -7243.4717   -6680.1665   -718.14673     102002.7      46.7237      46.7237      46.7237 
  399000    108.66015   -7263.0066   -6699.7527   -701.19158     102002.7      46.7237      46.7237      46.7237 
  400000    108.42029   -7259.0647   -6697.0542   -847.08112     102002.7      46.7237      46.7237      46.7237 
  401000    110.58897   -7245.7462    -6672.494   -715.95683     102002.7      46.7237      46.7237      46.7237 
  402000    109.10133   -7255.5145   -6689.9737   -771.41187     102002.7      46.7237      46.7237      46.7237 
  403000    109.45679   -7255.8257   -6688.4424   -466.47606     102002.7      46.7237      46.7237      46.7237 
  404000     112.9746   -7258.2725   -6672.6541   -346.24474     102002.7      46.7237      46.7237      46.7237 
  405000    114.09928   -7262.9647   -6671.5164   -394.20779     102002.7      46.7237      46.7237      46.7237 
  406000    107.75883   -7269.7594   -6711.1776   -569.41405     102002.7      46.7237      46.7237      46.7237 
  407000    110.71115   -7265.0318   -6691.1463   -511.11323     102002.7      46.7237      46.7237      46.7237 
  408000    110.40171    -7259.633   -6687.3515   -604.45997     102002.7      46.7237      46.7237      46.7237 
  409000    111.68585   -7254.7269   -6675.7889   -604.43815     102002.7      46.7237      46.7237      46.7237 
  410000    110.10843   -7278.2823   -6707.5211   -519.18724     102002.7      46.7237      46.7237      46.7237 
  411000    112.10545   -7256.4685   -6675.3555   -810.95162     102002.7      46.7237      46.7237      46.7237 
  412000    111.96651   -7271.0192   -6690.6264   -539.84797     102002.7      46.7237      46.7237      46.7237 
  413000    112.55375   -7273.7537   -6690.3169   -532.20422     102002.7      46.7237      46.7237      46.7237 
  414000    109.34331   -7250.6402   -6683.8451   -808.46118     102002.7      46.7237      46.7237      46.7237 
  415000    108.40546   -7269.8275   -6707.8939   -696.40836     102002.7      46.7237      46.7237      46.7237 
  416000    113.55098   -7263.6051    -6674.999   -692.51327     102002.7      46.7237      46.7237      46.7237 
  417000    111.77913   -7265.8875    -6686.466   -629.81191     102002.7      46.7237      46.7237      46.7237 
  418000    113.43112   -7256.1568    -6668.172   -696.97331     102002.7      46.7237      46.7237      46.7237 
  419000    107.78247   -7260.2219   -6701.5176   -804.58417     102002.7      46.7237      46.7237      46.7237 
  420000    109.80886   -7241.4629   -6672.2546    -811.0783     102002.7      46.7237      46.7237      46.7237 
  421000    111.25561   -7257.6646   -6680.9569   -539.84406     102002.7      46.7237      46.7237      46.7237 
  422000    110.38222   -7267.0651   -6694.8846   -733.04525     102002.7      46.7237      46.7237      46.7237 
  423000    110.31025   -7242.1722   -6670.3648   -761.65421     102002.7      46.7237      46.7237      46.7237 
  424000    111.36278   -7256.6967   -6679.4334    -998.8445     102002.7      46.7237      46.7237      46.7237 
  425000    107.59366   -7259.6948   -6701.9692     -902.947     102002.7      46.7237      46.7237      46.7237 
  426000    111.18037   -7255.2966   -6678.9788   -839.39564     102002.7      46.7237      46.7237      46.7237 
  427000      109.429   -7261.9352   -6694.6959    -999.1716     102002.7      46.7237      46.7237      46.7237 
  428000    112.15804   -7255.5418   -6674.1562    -801.7041     102002.7      46.7237      46.7237      46.7237 
  429000    104.10172   -7245.0462   -6705.4215   -1022.1795     102002.7      46.7237      46.7237      46.7237 
  430000    112.55602    -7241.215   -6657.7664   -768.36469     102002.7      46.7237      46.7237      46.7237 
  431000    107.43396    -7253.606   -6696.7082   -770.53812     102002.7      46.7237      46.7237      46.7237 
  432000    107.88934   -7265.7057   -6706.4474   -806.95248     102002.7      46.7237      46.7237      46.7237 
  433000    112.73914   -7263.2615   -6678.8637   -757.67257     102002.7      46.7237      46.7237      46.7237 
  434000    110.89369   -7244.6094   -6669.7777   -684.59426     102002.7      46.7237      46.7237      46.7237 
  435000    108.25325   -7268.0976    -6706.953   -541.84828     102002.7      46.7237      46.7237      46.7237 
  436000    110.03693   -7261.7836    -6691.393   -595.96649     102002.7      46.7237      46.7237      46.7237 
  437000    112.66554   -7276.7284   -6692.7121   -657.03466     102002.7      46.7237      46.7237      46.7237 
  438000    107.08798   -7262.6176   -6707.5133    -751.2862     102002.7      46.7237      46.7237      46.7237 
  439000     110.4302   -7256.8986   -6684.4695   -276.10573     102002.7      46.7237      46.7237      46.7237 
  440000    112.64374   -7244.4921   -6660.5888   -613.48168     102002.7      46.7237      46.7237      46.7237 
  441000    112.17883    -7266.214   -6684.7206    -603.7846     102002.7      46.7237      46.7237      46.7237 
  442000    110.07171   -7252.8487   -6682.2778   -557.91282     102002.7      46.7237      46.7237      46.7237 
  443000    111.17189   -7267.5879   -6691.3141   -463.48827     102002.7      46.7237      46.7237      46.7237 
  444000    111.68597    -7262.561   -6683.6224   -417.34462     102002.7      46.7237      46.7237      46.7237 
  445000    107.77731   -7294.5146   -6735.8371   -643.60209     102002.7      46.7237      46.7237      46.7237 
  446000    109.79699   -7250.2489   -6681.1021   -708.86716     102002.7      46.7237      46.7237      46.7237 
  447000    109.30671    -7269.103   -6702.4976   -588.72396     102002.7      46.7237      46.7237      46.7237 
  448000    107.28328   -7244.0607    -6687.944   -448.57157     102002.7      46.7237      46.7237      46.7237 
  449000    109.23736   -7272.7831   -6706.5372   -555.31482     102002.7      46.7237      46.7237      46.7237 
  450000    112.08429   -7256.3873    -6675.384   -481.74869     102002.7      46.7237      46.7237      46.7237 
  451000    114.68826   -7253.5014   -6659.0001     -564.035     102002.7      46.7237      46.7237      46.7237 
  452000    107.43563   -7243.3206   -6686.4142   -805.56056     102002.7      46.7237      46.7237      46.7237 
  453000    110.03534   -7260.1007   -6689.7184   -751.60354     102002.7      46.7237      46.7237      46.7237 
  454000    112.85201   -7233.8261   -6648.8432   -742.84757     102002.7      46.7237      46.7237      46.7237 
  455000    113.32787    -7263.369   -6675.9194   -834.83307     102002.7      46.7237      46.7237      46.7237 
  456000    105.53116   -7261.7139   -6714.6795   -937.79163     102002.7      46.7237      46.7237      46.7237 
  457000    107.81436   -7255.6198   -6696.7502   -1034.2389     102002.7      46.7237      46.7237      46.7237 
  458000    112.01863   -7248.7704   -6668.1075   -1215.8895     102002.7      46.7237      46.7237      46.7237 
  459000     111.7716   -7233.5578   -6654.1754   -640.44586     102002.7      46.7237      46.7237      46.7237 
  460000    110.04542   -7271.6964   -6701.2618   -948.42282     102002.7      46.7237      46.7237      46.7237 
  461000    114.98971   -7266.9651   -6670.9012   -866.30419     102002.7      46.7237      46.7237      46.7237 
  462000    108.53003   -7235.1964    -6672.617   -648.94432     102002.7      46.7237      46.7237      46.7237 
  463000    108.22438   -7269.1941   -6708.1991   -543.37258     102002.7      46.7237      46.7237      46.7237 
  464000    107.81232   -7259.6568   -6700.7978   -841.22167     102002.7      46.7237      46.7237      46.7237 
  465000    114.60735   -7240.4732   -6646.3912   -1033.4211     102002.7      46.7237      46.7237      46.7237 
  466000    109.93306   -7258.9097   -6689.0576   -741.02975     102002.7      46.7237      46.7237      46.7237 
  467000    108.77538   -7246.7494   -6682.8983   -710.85811     102002.7      46.7237      46.7237      46.7237 
  468000    112.11276   -7247.6324   -6666.4815   -689.12548     102002.7      46.7237      46.7237      46.7237 
  469000    109.25255   -7256.8316   -6690.5069   -660.61443     102002.7      46.7237      46.7237      46.7237 
  470000    106.21482    -7254.111   -6703.5328   -687.64459     102002.7      46.7237      46.7237      46.7237 
  471000      110.241   -7258.5841   -6687.1357   -434.80425     102002.7      46.7237      46.7237      46.7237 
  472000    115.27152   -7245.1158    -6647.591   -767.20234     102002.7      46.7237      46.7237      46.7237 
  473000     108.7072    -7254.247   -6690.7492   -720.96528     102002.7      46.7237      46.7237      46.7237 
  474000    110.72201    -7247.412   -6673.4702   -430.22396     102002.7      46.7237      46.7237      46.7237 
  475000    111.13814   -7241.6295   -6665.5307   -575.14855     102002.7      46.7237      46.7237      46.7237 
  476000    112.33003   -7258.4377   -6676.1605   -674.18681     102002.7      46.7237      46.7237      46.7237 
  477000    106.89652   -7270.2775   -6716.1656   -561.61901     102002.7      46.7237      46.7237      46.7237 
  478000     113.7385   -7255.6621   -6666.0839   -688.97579     102002.7      46.7237      46.7237      46.7237 
  479000    108.65627   -7250.5174   -6687.2836     -841.486     102002.7      46.7237      46.7237      46.7237 
  480000    113.77671   -7248.9103   -6659.1341   -826.45574     102002.7      46.7237      46.7237      46.7237 
  481000    108.27405   -7242.8196   -6681.5672   -689.60097     102002.7      46.7237      46.7237      46.7237 
  482000    106.05475   -7253.8154    -6704.067   -605.15844     102002.7      46.7237      46.7237      46.7237 
  483000    114.36083   -7254.3584   -6661.5543   -480.72527     102002.7      46.7237      46.7237      46.7237 
  484000    107.54745    -7237.229    -6679.743   -475.81106     102002.7      46.7237      46.7237      46.7237 
  485000    106.39395   -7251.1434   -6699.6367   -588.19515     102002.7      46.7237      46.7237      46.7237 
  486000     110.2121   -7252.8883   -6681.5897   -788.59128     102002.7      46.7237      46.7237      46.7237 
  487000     109.4407   -7247.5071   -6680.2071   -866.02281     102002.7      46.7237      46.7237      46.7237 
  488000    110.08337   -7252.0723    -6681.441   -705.27043     102002.7      46.7237      46.7237      46.7237 
  489000    111.69334   -7250.9274   -6671.9505   -575.64016     102002.7      46.7237      46.7237      46.7237 
  490000    105.92111   -7265.0026   -6715.9469   -577.52974     102002.7      46.7237      46.7237      46.7237 
  491000    106.76055   -7253.5796   -6700.1726   -530.36385     102002.7      46.7237      46.7237      46.7237 
  492000    110.96558   -7247.4195   -6672.2151   -721.82621     102002.7      46.7237      46.7237      46.7237 
  493000    111.18591   -7266.9719   -6690.6254   -382.97552     102002.7      46.7237      46.7237      46.7237 
  494000    109.96666   -7242.7073    -6672.681   -861.47487     102002.7      46.7237      46.7237      46.7237 
  495000    110.77043   -7254.9514   -6680.7586   -1035.5115     102002.7      46.7237      46.7237      46.7237 
  496000    110.55861   -7256.0776   -6682.9828   -724.51407     102002.7      46.7237      46.7237      46.7237 
  497000    110.04886   -7266.0512   -6695.5988   -493.07481     102002.7      46.7237      46.7237      46.7237 
  498000    111.20111    -7264.563   -6688.1378   -746.64569     102002.7      46.7237      46.7237      46.7237 
  499000    110.56373   -7249.1498   -6676.0285    -782.2083     102002.7      46.7237      46.7237      46.7237 
  500000     110.6411   -7258.5655   -6685.0432   -668.86047     102002.7      46.7237      46.7237      46.7237 
  500503    104.88543   -7265.3317   -6721.6446   -723.37638     102002.7      46.7237      46.7237      46.7237 
Loop time of 578.543 on 24 procs for 500000 steps with 1740 atoms

Performance: 74.670 ns/day, 0.321 hours/ns, 864.240 timesteps/s
99.9% CPU use with 24 MPI tasks x no OpenMP threads

MPI task timing breakdown:
Section |  min time  |  avg time  |  max time  |%varavg| %total
---------------------------------------------------------------
Pair    | 181.59     | 276.36     | 384.88     | 321.1 | 47.77
Bond    | 68.416     | 78.468     | 86.432     |  49.6 | 13.56
Neigh   | 1.7715     | 1.7892     | 1.8026     |   0.9 |  0.31
Comm    | 100.57     | 214.65     | 313.21     | 376.5 | 37.10
Output  | 0.3178     | 0.31815    | 0.32262    |   0.2 |  0.05
Modify  | 3.577      | 3.968      | 4.2469     |   9.3 |  0.69
Other   |            | 2.996      |            |       |  0.52

Nlocal:    72.5 ave 96 max 52 min
Histogram: 5 0 0 4 3 4 4 2 0 2
Nghost:    1971.92 ave 2102 max 1894 min
Histogram: 10 6 0 0 0 0 0 0 2 6
Neighs:    7637.42 ave 11989 max 3602 min
Histogram: 2 1 2 4 5 2 3 3 1 1

Total # of neighbors = 183298
Ave neighs/atom = 105.344
Ave special neighs/atom = 6.62069
Neighbor list builds = 3294
Dangerous builds = 0
Neighbor list info ...
  update every 1 steps, delay 10 steps, check yes
  max neighbors/atom: 2000, page size: 100000
  master list distance cutoff = 16
  ghost atom cutoff = 16
  binsize = 8, bins = 6 6 6
  3 neighbor lists, perpetual/occasional/extra = 3 0 0
  (1) pair buck6d/coul/gauss/dsf, perpetual, skip from (3)
      attributes: half, newton on
      pair build: skip
      stencil: none
      bin: none
  (2) pair lj/cut, perpetual, skip from (3)
      attributes: half, newton on
      pair build: skip
      stencil: none
      bin: none
  (3) neighbor class addition, perpetual
      attributes: half, newton on
      pair build: half/bin/newton
      stencil: half/bin/3d/newton
      bin: standard
Setting up Verlet run ...
  Unit style    : real
  Current step  : 500503
  Time step     : 1
WARNING: Inconsistent image flags (../domain.cpp:786)
Per MPI rank memory allocation (min/avg/max) = 24.13 | 24.48 | 24.57 Mbytes
Step Time TotEng KinEng PotEng E_mol E_pair Temp Pxx Pyy Pzz Pxy Pxz Pyz Cella Cellb Cellc CellAlpha CellBeta CellGamma Volume Press 
  500503       500000   -6721.6446    543.68714   -7265.3317    4316.0437   -11581.375    104.88543   -634.61014   -918.70145   -616.81754   -204.69961    7.5727766   -314.50069      46.7237      46.7237      46.7237           90           90           90     102002.7   -723.37638 
  501000       500497   -6682.1017    570.57771   -7252.6795    4319.7875   -11572.467    110.07303   -830.25888   -703.85291   -726.59327    342.59785    199.93538   -141.97974      46.7237      46.7237      46.7237           90           90           90     102002.7   -753.56835 
  502000       501497   -6699.3621     550.1424   -7249.5045    4333.0365   -11582.541    106.13075   -907.99375   -898.29884   -1068.3499   -79.512301     68.21626    51.408128      46.7237      46.7237      46.7237           90           90           90     102002.7   -958.21417 
  503000       502497   -6687.8031    572.61365   -7260.4168    4313.6099   -11574.027    110.46579   -678.96434   -504.43861   -586.43246    -70.24798    156.55974    123.74499      46.7237      46.7237      46.7237           90           90           90     102002.7   -589.94514 
  504000       503497   -6695.1801    575.85161   -7271.0317    4289.8638   -11560.896    111.09044   -170.79744   -716.26592   -689.16062    204.89429   -344.41503   -267.40856      46.7237      46.7237      46.7237           90           90           90     102002.7   -525.40799 
  505000       504497   -6675.7545    581.44858    -7257.203    4314.7855   -11571.988    112.17018   -988.55708   -686.25475   -107.98076    167.09831    53.619569    -42.98879      46.7237      46.7237      46.7237           90           90           90     102002.7    -594.2642 
  506000       505497    -6693.209    581.37177   -7274.5807    4304.8139   -11579.395    112.15536   -820.01347    -613.4223   -328.42328   -150.25329    251.98821    6.7493694      46.7237      46.7237      46.7237           90           90           90     102002.7   -587.28635 
  507000       506497   -6690.7148      559.197   -7249.9118    4323.2666   -11573.178    107.87752   -554.49293   -670.92952   -569.05235    153.89414   -101.91593   -155.79694      46.7237      46.7237      46.7237           90           90           90     102002.7   -598.15827 
  508000       507497   -6669.8291    582.34862   -7252.1777    4321.0219     -11573.2    112.34382   -1322.6904   -286.75767   -763.32961   -23.559398   -81.465891    150.45028      46.7237      46.7237      46.7237           90           90           90     102002.7    -790.9259 
  509000       508497    -6711.742    551.36314   -7263.1051    4310.1705   -11573.276    106.36625   -844.88776   -760.49568   -744.91655    -51.97922   -208.15595    80.418513      46.7237      46.7237      46.7237           90           90           90     102002.7   -783.43333 
  510000       509497   -6679.0333    574.10149   -7253.1348    4316.9237   -11570.058    110.75282   -1018.2794    -835.9988   -891.35768     15.39004    78.007778   -263.50795      46.7237      46.7237      46.7237           90           90           90     102002.7   -915.21198 
  511000       510497   -6713.3547     565.7657   -7279.1204    4296.3724   -11575.493    109.14472   -537.16593   -457.29611   -601.06998   -173.60875    12.742291    55.022085      46.7237      46.7237      46.7237           90           90           90     102002.7     -531.844 
  512000       511497   -6677.9453    567.29492   -7245.2403    4335.9076   -11581.148    109.43973   -657.60518   -632.08006   -588.03822   -18.141985     235.1116   -125.91542      46.7237      46.7237      46.7237           90           90           90     102002.7   -625.90782 
  513000       512497   -6660.4276    585.13665   -7245.5642    4323.0492   -11568.613    112.88167    -704.2099   -778.02274   -465.71141    190.91478   -77.819993    66.755644      46.7237      46.7237      46.7237           90           90           90     102002.7   -649.31468 
  514000       513497   -6686.3428    580.92908   -7267.2719     4312.346   -11579.618    112.06996   -1087.7723   -784.54036   -442.19226    28.313051   -130.42697   -145.44959      46.7237      46.7237      46.7237           90           90           90     102002.7   -771.50163 
  515000       514497   -6686.3244    579.60903   -7265.9334    4310.5193   -11576.453    111.81531   -759.17623   -583.56331   -1164.8104   -43.412039   -79.466444   -82.241108      46.7237      46.7237      46.7237           90           90           90     102002.7   -835.84999 
  516000       515497    -6679.199    560.41393    -7239.613    4345.4955   -11585.108    108.11228   -1050.9857   -804.80815   -531.73869   -142.51543   -174.20765   -63.213282      46.7237      46.7237      46.7237           90           90           90     102002.7   -795.84416 
  517000       516497   -6701.5344    558.43784   -7259.9723    4320.9981    -11580.97    107.73107   -797.75094   -1138.7776   -1126.8206   -27.574133   -70.810847    7.8219496      46.7237      46.7237      46.7237           90           90           90     102002.7   -1021.1164 
  518000       517497   -6673.4273    583.81023   -7257.2375    4331.7265   -11588.964    112.62578   -646.25756   -614.03088    -641.2131    97.898273   -109.09212    16.176701      46.7237      46.7237      46.7237           90           90           90     102002.7   -633.83385 
  519000       518497   -6686.0437    584.21954   -7270.2632    4296.0463   -11566.309    112.70474   -65.739477   -720.42515    -841.9891    138.01601   -36.865049    177.28302      46.7237      46.7237      46.7237           90           90           90     102002.7   -542.71791 
  520000       519497   -6684.2389    568.22516   -7252.4641    4316.2472   -11568.711    109.61919   -583.52563   -1149.8036   -436.41556    78.336745   -50.890374    44.677555      46.7237      46.7237      46.7237           90           90           90     102002.7   -723.24826 
  521000       520497   -6719.7705     543.5836   -7263.3541    4306.4776   -11569.832    104.86546   -397.53334   -740.92281   -855.52667     197.3005   -66.328154    -43.52702      46.7237      46.7237      46.7237           90           90           90     102002.7   -664.66094 
  522000       521497   -6692.3116    568.86599   -7261.1775    4312.1602   -11573.338    109.74281   -703.03961   -1078.0382   -448.97214    255.51859   -145.86906    319.58557      46.7237      46.7237      46.7237           90           90           90     102002.7   -743.34998 
  523000       522497   -6657.8673    587.56633   -7245.4337    4328.1498   -11573.583    113.35039   -926.68637   -629.11758    -752.9201   -92.322701     80.15384   -101.88871      46.7237      46.7237      46.7237           90           90           90     102002.7   -769.57468 
  524000       523497   -6679.4458    564.84307   -7244.2889    4337.8451   -11582.134    108.96673   -663.83552   -330.72535   -855.83197    89.425585    3.1487482   -185.19469      46.7237      46.7237      46.7237           90           90           90     102002.7   -616.79762 
  525000       524497    -6718.356    563.80831   -7282.1643    4303.3473   -11585.512    108.76711   -1233.7132   -971.97467   -918.03337    155.95855    11.288199   -74.775844      46.7237      46.7237      46.7237           90           90           90     102002.7   -1041.2404 
  526000       525497   -6699.8242    578.02535   -7277.8496    4295.7475   -11573.597    111.50979   -1122.8927   -680.24514   -917.18667   -184.03575    35.149445   -44.161743      46.7237      46.7237      46.7237           90           90           90     102002.7   -906.77483 
  527000       526497    -6670.097     576.8982   -7246.9952     4308.071   -11555.066    111.29235   -126.71346   -813.78713   -478.59597   -359.89726    -44.74113   -147.77545      46.7237      46.7237      46.7237           90           90           90     102002.7   -473.03219 
  528000       527497   -6671.2812    576.69864   -7247.9798    4328.9857   -11576.966    111.25385   -786.21082   -1043.0956   -909.53279    74.048238   -201.58287   -45.825035      46.7237      46.7237      46.7237           90           90           90     102002.7   -912.94639 
  529000       528497   -6695.4374     568.3475   -7263.7849    4293.8877   -11557.673    109.64279   -613.87061   -492.08356   -420.24049   -61.677855    33.261336    147.69414      46.7237      46.7237      46.7237           90           90           90     102002.7   -508.73155 
  530000       529497   -6721.3633    551.56268    -7272.926    4303.1078   -11576.034    106.40474    -839.1839   -968.57626   -615.58086    152.00169    48.965599    17.075237      46.7237      46.7237      46.7237           90           90           90     102002.7   -807.78034 
  531000       530497   -6681.2922    581.41743   -7262.7096    4297.4225   -11560.132    112.16417     -574.403    -718.0278   -183.87741   -48.528318   -163.84897    21.966752      46.7237      46.7237      46.7237           90           90           90     102002.7   -492.10274 
  532000       531497   -6667.8026    580.70293   -7248.5056    4324.5231   -11573.029    112.02634   -743.21112   -423.86529   -779.58646    223.14503   -137.85993    262.32058      46.7237      46.7237      46.7237           90           90           90     102002.7   -648.88762 
  533000       532497   -6711.0908    560.62187   -7271.7127    4312.2238   -11583.936     108.1524   -675.92736   -287.55915   -1037.5366    31.401596   -79.050256    20.826862      46.7237      46.7237      46.7237           90           90           90     102002.7    -667.0077 
  534000       533497   -6668.5748    571.14492   -7239.7197    4349.3699    -11589.09    110.18245   -938.81712   -720.64779   -331.84031    146.47651   -319.03106    109.42672      46.7237      46.7237      46.7237           90           90           90     102002.7   -663.76841 
  535000       534497   -6689.0689    576.76972   -7265.8387    4306.0189   -11571.858    111.26756   -836.17188   -394.43634    -406.9486   -39.257584   -12.649721    33.122109      46.7237      46.7237      46.7237           90           90           90     102002.7   -545.85227 
  536000       535497   -6680.5523    573.83861   -7254.3909    4313.2971   -11567.688    110.70211   -545.46709   -820.78778   -444.07942    147.36305     73.89072   -28.648659      46.7237      46.7237      46.7237           90           90           90     102002.7   -603.44476 
  537000       536497    -6683.011    563.91569   -7246.9267      4329.12   -11576.047    108.78783   -750.42919   -663.97712   -1134.1071    53.350661    46.389124   -220.29418      46.7237      46.7237      46.7237           90           90           90     102002.7   -849.50446 
  538000       537497   -6692.2625    574.63179   -7266.8943     4304.531   -11571.425    110.85512   -795.79002   -609.23165   -156.62413   -154.83935    26.806437   -187.15247      46.7237      46.7237      46.7237           90           90           90     102002.7    -520.5486 
  539000       538497   -6712.4163    552.91231   -7265.3286    4307.0792   -11572.408    106.66511   -694.83145   -947.48697   -870.89358      4.39039   -44.460163   -78.039418      46.7237      46.7237      46.7237           90           90           90     102002.7   -837.73733 
  540000       539497   -6678.7882    570.43335   -7249.2216    4305.2809   -11554.502    110.04518   -745.60776   -889.43904   -523.48367    101.44484    149.10648   -108.35974      46.7237      46.7237      46.7237           90           90           90     102002.7   -719.51015 
  541000       540497     -6666.73    571.82132   -7238.5513    4324.0019   -11562.553    110.31294    -1201.868   -929.28255   -875.09862    96.925117   -188.55058    198.87759      46.7237      46.7237      46.7237           90           90           90     102002.7   -1002.0831 
  542000       541497   -6691.2594    568.51758    -7259.777    4302.5512   -11562.328     109.6756   -839.13837   -673.96943   -768.41695    99.666472   -215.58464   -16.035417      46.7237      46.7237      46.7237           90           90           90     102002.7   -760.50825 
  543000       542497   -6668.2455    596.45138   -7264.6969    4297.7734    -11562.47    115.06445   -495.05547   -567.14115   -398.99523   -107.71796   -56.818745    19.930829      46.7237      46.7237      46.7237           90           90           90     102002.7   -487.06395 
  544000       543497   -6697.2663    563.27627   -7260.5426    4320.6461   -11581.189    108.66447   -698.76648   -1053.6121     -849.542    7.5060324   -57.868517   -127.09157      46.7237      46.7237      46.7237           90           90           90     102002.7   -867.30687 
  545000       544497   -6686.5869    558.20676   -7244.7937    4322.6103   -11567.404    107.68649   -289.51215    -450.3985   -313.72977    213.90021    55.285083    -56.91314      46.7237      46.7237      46.7237           90           90           90     102002.7   -351.21347 
  546000       545497   -6654.1843    582.54866   -7236.7329    4324.5064   -11561.239    112.38241   -438.65254   -1043.6824   -796.27815   -19.663316    367.06244    195.46964      46.7237      46.7237      46.7237           90           90           90     102002.7   -759.53768 
  547000       546497   -6685.7095    574.38647    -7260.096    4311.4662   -11571.562     110.8078   -954.79221   -716.58515   -440.52557    117.63603    137.82079   -143.03593      46.7237      46.7237      46.7237           90           90           90     102002.7   -703.96764 
  548000       547497    -6663.042    582.11746   -7245.1595     4317.648   -11562.807    112.29922   -111.62268   -802.36122   -447.85645    66.512635    23.862179   -27.062144      46.7237      46.7237      46.7237           90           90           90     102002.7   -453.94678 
  549000       548497   -6682.1532    572.72235   -7254.8756    4310.8777   -11565.753    110.48676   -657.04193   -586.92175   -216.20517    -89.79448   -16.411707    157.21346      46.7237      46.7237      46.7237           90           90           90     102002.7   -486.72295 
  550000       549497   -6684.0016    565.38107   -7249.3827    4321.6986   -11571.081    109.07052   -283.94647   -614.22744   -595.16418   -71.651482    153.70157    52.215359      46.7237      46.7237      46.7237           90           90           90     102002.7   -497.77937 
  551000       550497    -6689.833    559.16648   -7248.9995    4324.7057   -11573.705    107.87163   -821.13744   -252.37527    -1007.643    65.052175     56.98233    238.48085      46.7237      46.7237      46.7237           90           90           90     102002.7   -693.71856 
  552000       551497   -6677.0668    585.33404   -7262.4009    4299.3587    -11561.76    112.91975   -706.37923   -659.50324   -470.33804   -161.45318    173.51044   -27.251284      46.7237      46.7237      46.7237           90           90           90     102002.7   -612.07351 
  553000       552497   -6651.2547    573.72988   -7224.9846     4334.134   -11559.119    110.68113    -341.9286   -1084.8899   -954.13743   -106.13241    30.201097    -90.64147      46.7237      46.7237      46.7237           90           90           90     102002.7   -793.65198 
  554000       553497   -6703.6805    560.92408   -7264.6046    4305.0461   -11569.651     108.2107    -648.0717   -552.23357   -733.96181    44.308996    86.408451    190.86184      46.7237      46.7237      46.7237           90           90           90     102002.7   -644.75569 
  555000       554497   -6694.0817    555.06366   -7249.1454    4331.6176   -11580.763    107.08014   -962.21092   -951.86064   -146.49936    102.96473   -18.823922    0.7056619      46.7237      46.7237      46.7237           90           90           90     102002.7   -686.85698 
[...]
  936000       935497     -6676.67    563.81711   -7240.4871    4326.6391   -11567.126    108.76881   -912.98334   -507.07585   -596.32373   -82.024208   -8.9503102    -125.1122      46.7237      46.7237      46.7237           90           90           90     102002.7   -672.12764 
  937000       936497   -6693.7308    569.99274   -7263.7236    4301.1803   -11564.904    109.96018   -788.31899   -545.49571   -1171.4256    89.646681    7.8949813    111.17639      46.7237      46.7237      46.7237           90           90           90     102002.7    -835.0801 
  938000       937497   -6695.3236     556.2411   -7251.5647    4303.7078   -11555.273    107.30728    -364.5943   -634.31966   -814.44025   -252.06147   -187.75173   -67.080507      46.7237      46.7237      46.7237           90           90           90     102002.7    -604.4514 
  939000       938497   -6671.0066    584.59504   -7255.6016    4325.0947   -11580.696    112.77718    -793.2714   -754.33035   -890.00968   -32.778427    127.78461    112.94861      46.7237      46.7237      46.7237           90           90           90     102002.7   -812.53714 
  940000       939497   -6685.2816    568.53135    -7253.813    4308.9447   -11562.758    109.67826   -570.97727   -550.56821   -620.10235   -59.385149    80.295199   -36.710174      46.7237      46.7237      46.7237           90           90           90     102002.7   -580.54927 
  941000       940497   -6673.9077    576.64139   -7250.5491    4318.2663   -11568.815     111.2428   -237.14619   -553.51127   -696.54571    -21.26168    230.37502   -48.608604      46.7237      46.7237      46.7237           90           90           90     102002.7   -495.73439 
  942000       941497   -6705.9188    570.95778   -7276.8766    4280.7236     -11557.6    110.14635    -817.9075    -892.4633   -139.39396    54.459168   -24.001575    75.413208      46.7237      46.7237      46.7237           90           90           90     102002.7   -616.58825 
  943000       942497   -6704.4937    570.37435   -7274.8681    4289.8492   -11564.717     110.0338   -521.87354   -723.42346   -1027.6415   -115.03667    21.985947   -104.20179      46.7237      46.7237      46.7237           90           90           90     102002.7   -757.64617 
  944000       943497   -6679.4608    587.36721    -7266.828    4293.4844   -11560.312    113.31198   -641.76841    -491.9769    -1128.276    41.013822   -170.42188    8.5169653      46.7237      46.7237      46.7237           90           90           90     102002.7    -754.0071 
  945000       944497   -6722.1618    565.12012   -7287.2819    4295.6985    -11582.98    109.02018   -743.92396    -949.2592   -916.31043    38.394158     60.48739   -9.7458869      46.7237      46.7237      46.7237           90           90           90     102002.7    -869.8312 
  946000       945497   -6686.9832    583.44004   -7270.4232    4290.3606   -11560.784    112.55437   -255.41357   -152.87334   -948.17273    65.254183    146.81523   -80.142641      46.7237      46.7237      46.7237           90           90           90     102002.7   -452.15321 
  947000       946497   -6679.4362    570.87131   -7250.3075    4336.9095   -11587.217    110.12967   -600.45875   -718.78804   -990.41481    237.14541    33.753002    55.509897      46.7237      46.7237      46.7237           90           90           90     102002.7    -769.8872 
  948000       947497   -6682.8856    573.41975   -7256.3054    4307.7568   -11564.062     110.6213   -758.78556    -685.1573   -595.32892   -160.22973   -196.90068   -108.75273      46.7237      46.7237      46.7237           90           90           90     102002.7   -679.75726 
  949000       948497    -6650.128    577.91094    -7228.039    4360.9226   -11588.962    111.48772   -807.57801   -863.80093   -226.92645    -117.4488   -177.56676    4.2196645      46.7237      46.7237      46.7237           90           90           90     102002.7   -632.76846 
  950000       949497   -6680.5435    582.94592   -7263.4894    4313.5298   -11577.019    112.45904   -410.06607   -679.17007   -472.45355   -30.588113   -114.25676    161.71196      46.7237      46.7237      46.7237           90           90           90     102002.7   -520.56323 
  951000       950497    -6696.445    561.33605    -7257.781    4317.4313   -11575.212    108.29017   -1233.9511   -853.39095   -621.62016   -70.604745    5.2155604   -48.728778      46.7237      46.7237      46.7237           90           90           90     102002.7   -902.98739 
  952000       951497    -6679.261    569.21295    -7248.474    4307.7857    -11556.26    109.80975   -753.45842   -611.04393   -997.51021    -111.2196   -33.414661   -64.613761      46.7237      46.7237      46.7237           90           90           90     102002.7   -787.33752 
  953000       952497   -6700.8895    572.47777   -7273.3673     4295.881   -11569.248    110.43958   -496.16428   -535.25191   -294.98276    36.740006   -70.787038    121.73967      46.7237      46.7237      46.7237           90           90           90     102002.7   -442.13298 
  954000       953497   -6679.6014    567.78955    -7247.391    4326.2467   -11573.638    109.53515   -593.78689   -690.55202   -803.02408   -45.600086   -138.28252   -27.982952      46.7237      46.7237      46.7237           90           90           90     102002.7   -695.78766 
  955000       954497   -6716.8424    570.19116   -7287.0335    4293.7052   -11580.739    109.99846    -747.8832    -425.2783   -634.31976    3.1061789    34.358069   -80.884256      46.7237      46.7237      46.7237           90           90           90     102002.7   -602.49375 
  956000       955497   -6676.5909    592.35474   -7268.9457    4300.6274   -11569.573    114.27415   -577.09971   -317.92052   -574.16991   -25.356218   -96.174281   -222.50497      46.7237      46.7237      46.7237           90           90           90     102002.7   -489.73005 
  957000       956497   -6676.2805    568.61005   -7244.8906    4324.2837   -11569.174    109.69344   -232.97632   -1143.8433   -425.18114   -93.539136    1.8303611    125.34377      46.7237      46.7237      46.7237           90           90           90     102002.7   -600.66693 
  958000       957497    -6691.842    568.87738   -7260.7194    4317.0101    -11577.73    109.74501   -945.02173   -539.49283   -239.57045    301.63819    28.439999   -50.861902      46.7237      46.7237      46.7237           90           90           90     102002.7     -574.695 
  959000       958497   -6655.9442     595.5458   -7251.4901    4313.8182   -11565.308    114.88975   -922.38394    -756.2412   -383.38974     28.99538   -87.187825    40.181668      46.7237      46.7237      46.7237           90           90           90     102002.7   -687.33829 
  960000       959497   -6694.6408    582.71873   -7277.3595    4288.9455   -11566.305    112.41521   -180.19934   -317.41123   -858.59247   -109.86755    156.39727     157.5365      46.7237      46.7237      46.7237           90           90           90     102002.7   -452.06768 
  961000       960497   -6689.2678    573.10744   -7262.3752    4314.5976   -11576.973    110.56105   -517.51704   -175.01786   -778.25444    -54.10179     94.21607   -62.096848      46.7237      46.7237      46.7237           90           90           90     102002.7   -490.26311 
  962000       961497   -6708.2125    552.25142    -7260.464    4315.7799   -11576.244    106.53761   -687.93281   -422.71323   -714.37348     282.9316   -118.97544    65.530481      46.7237      46.7237      46.7237           90           90           90     102002.7   -608.33984 
  963000       962497   -6694.0659    567.85698   -7261.9228    4297.2793   -11559.202    109.54816   -593.41941   -385.43167   -379.44843    212.86742   -257.82054    8.5943083      46.7237      46.7237      46.7237           90           90           90     102002.7    -452.7665 
  964000       963497   -6678.2912    567.87148   -7246.1626    4330.1652   -11576.328    109.55096   -474.87533   -737.07689   -363.15823    -63.02732   -239.39277   -122.58532      46.7237      46.7237      46.7237           90           90           90     102002.7   -525.03682 
  965000       964497   -6694.7154    562.72403   -7257.4394    4303.7806    -11561.22    108.55794   -1204.5509   -795.58587   -726.94471  -0.31959763   -227.42157   -111.29313      46.7237      46.7237      46.7237           90           90           90     102002.7   -909.02715 
  966000       965497   -6701.4696    566.15466   -7267.6243    4306.0612   -11573.685    109.21976   -707.53502    -1145.032   -326.84703    115.54708   -147.13201   -156.04418      46.7237      46.7237      46.7237           90           90           90     102002.7   -726.47136 
  967000       966497   -6675.2775    589.57129   -7264.8488    4305.2787   -11570.128    113.73718   -867.89066   -788.04949   -308.25461    17.486412    73.645618     236.4299      46.7237      46.7237      46.7237           90           90           90     102002.7   -654.73159 
  968000       967497     -6697.14     568.7437   -7265.8837    4298.4591   -11564.343    109.71922   -464.68269   -906.77796   -1019.1112    78.301085   -90.151712   -27.543471      46.7237      46.7237      46.7237           90           90           90     102002.7   -796.85727 
  969000       968497    -6657.869    582.52195    -7240.391    4335.3842   -11575.775    112.37725   -337.42417   -848.26171   -962.53644    108.62889    7.3735239   -167.42966      46.7237      46.7237      46.7237           90           90           90     102002.7   -716.07411 
  970000       969497   -6698.1377    565.44071   -7263.5784     4309.097   -11572.675    109.08202   -1006.6187   -869.79529   -555.92675   -105.88961    94.557518   -199.70297      46.7237      46.7237      46.7237           90           90           90     102002.7   -810.78026 
  971000       970497   -6699.8057    563.91422   -7263.7199    4312.6031   -11576.323    108.78754   -810.67598   -519.94625   -398.94785   -10.926016    50.082623   -51.858609      46.7237      46.7237      46.7237           90           90           90     102002.7   -576.52336 
  972000       971497   -6699.7061    575.91145   -7275.6176    4297.9912   -11573.609    111.10199   -751.89916   -469.97727   -636.36998   -249.92561   -50.367378   -159.77716      46.7237      46.7237      46.7237           90           90           90     102002.7   -619.41547 
  973000       972497   -6700.1954    567.34802   -7267.5434    4293.7184   -11561.262    109.44997   -698.33567    -633.5228    -1011.155   -268.06061    -13.29192   -91.423714      46.7237      46.7237      46.7237           90           90           90     102002.7    -781.0045 
  974000       973497   -6711.3751     552.3911   -7263.7662    4315.0087   -11578.775    106.56456   -706.75327   -598.69251   -561.20876   -161.55053    134.23372    59.333517      46.7237      46.7237      46.7237           90           90           90     102002.7   -622.21818 
  975000       974497   -6678.5039     576.9837   -7255.4876    4310.8717   -11566.359    111.30884    -937.8148   -607.04992   -1068.4764   -17.452844    53.185271   -184.88876      46.7237      46.7237      46.7237           90           90           90     102002.7   -871.11371 
  976000       975497   -6718.8263    555.04447   -7273.8708    4314.1647   -11588.035    107.07643   -1136.0035   -719.57946   -1009.6736   -50.155005     -35.6959    -62.45691      46.7237      46.7237      46.7237           90           90           90     102002.7    -955.0855 
  977000       976497    -6686.556    579.80923   -7266.3652    4303.6708   -11570.036    111.85393   -961.27044   -565.27373   -551.28918    60.743469   -171.18822    67.197759      46.7237      46.7237      46.7237           90           90           90     102002.7   -692.61112 
  978000       977497   -6684.2501    573.51968   -7257.7698    4312.8035   -11570.573    110.64058   -540.86473   -720.15917   -897.06472   -44.152521    128.94951   -59.140661      46.7237      46.7237      46.7237           90           90           90     102002.7   -719.36287 
  979000       978497   -6701.1356    550.63456   -7251.7702    4328.1392   -11579.909    106.22569   -972.75288   -805.57431   -923.70619     172.0013   -20.718265   -136.65625      46.7237      46.7237      46.7237           90           90           90     102002.7   -900.67779 
  980000       979497   -6676.9921    576.66931   -7253.6614    4315.4084    -11569.07    111.24819   -505.77173   -894.05808   -785.35301    107.30527    96.109892   -344.89285      46.7237      46.7237      46.7237           90           90           90     102002.7   -728.39427 
  981000       980497   -6697.2642    570.87359   -7268.1378    4300.9935   -11569.131    110.13011   -865.52708   -558.80612    -822.0669    289.94542   -85.828022   -9.1284674      46.7237      46.7237      46.7237           90           90           90     102002.7   -748.80003 
  982000       981497   -6719.1027    545.94124    -7265.044    4320.9976   -11586.042    105.32028   -703.51119   -802.01798   -998.68945    49.265295   -206.74694    282.18068      46.7237      46.7237      46.7237           90           90           90     102002.7   -834.73954 
  983000       982497   -6681.8748    561.34817    -7243.223    4321.8052   -11565.028    108.29251   -679.83205   -1036.9973   -752.99326    97.095852    55.697763   -41.697649      46.7237      46.7237      46.7237           90           90           90     102002.7   -823.27422 
  984000       983497   -6689.0529    566.15607   -7255.2089    4321.9762   -11577.185    109.22003   -869.89959   -583.63992   -720.87163   -87.707851   -205.27166    98.174806      46.7237      46.7237      46.7237           90           90           90     102002.7   -724.80371 
  985000       984497   -6669.9996    580.94539    -7250.945    4321.7103   -11572.655    112.07311   -793.43896   -423.52313   -901.26938   -286.86326   -154.20355    57.687012      46.7237      46.7237      46.7237           90           90           90     102002.7   -706.07716 
  986000       985497   -6712.7951     556.2458   -7269.0409     4309.208   -11578.249    107.30819   -1385.9119   -646.01808   -836.89833    109.41318   -121.75285   -154.67027      46.7237      46.7237      46.7237           90           90           90     102002.7   -956.27609 
  987000       986497   -6677.2434    586.24746   -7263.4909    4337.3797   -11600.871    113.09596   -251.57535   -838.24487   -747.60731    217.50783   -15.771809    207.23349      46.7237      46.7237      46.7237           90           90           90     102002.7   -612.47584 
  988000       987497   -6731.1313    556.94923   -7288.0805    4272.8764   -11560.957    107.44389   -728.03009   -595.01754   -437.19988    185.27541    86.260032   -86.870327      46.7237      46.7237      46.7237           90           90           90     102002.7   -586.74917 
  989000       988497   -6666.6367    578.04299   -7244.6797    4337.9122   -11582.592    111.51319   -821.31361   -684.14688    -746.4195    182.53255   -50.315151   -30.416237      46.7237      46.7237      46.7237           90           90           90     102002.7   -750.62666 
  990000       989497   -6696.8961     563.1793   -7260.0754    4315.2987   -11575.374    108.64576    -823.5045   -878.84433    -487.4446    206.14743   -109.98201    -102.4219      46.7237      46.7237      46.7237           90           90           90     102002.7   -729.93114 
  991000       990497   -6670.9014     579.2451   -7250.1465     4317.278   -11567.424     111.7451   -528.42126   -408.63161    -689.1572    181.23345   -87.865693    85.936352      46.7237      46.7237      46.7237           90           90           90     102002.7   -542.07002 
  992000       991497    -6668.835    580.69586   -7249.5309    4317.2268   -11566.758    112.02497   -791.34323   -360.91619   -362.31962    120.62036   -137.34109    150.43044      46.7237      46.7237      46.7237           90           90           90     102002.7   -504.85968 
  993000       992497   -6689.1035    561.05964   -7250.1631    4316.5966    -11566.76    108.23685   -614.92592   -776.09946    -852.7872    383.63952    308.05989   -288.67976      46.7237      46.7237      46.7237           90           90           90     102002.7   -747.93753 
  994000       993497   -6687.6474    568.12621   -7255.7736    4313.4871   -11569.261     109.6001   -684.58431   -786.93052   -681.88663    70.785809   -56.069451   -246.89017      46.7237      46.7237      46.7237           90           90           90     102002.7   -717.80049 
  995000       994497   -6706.9535    553.88998   -7260.8435    4303.9258   -11564.769    106.85371   -1066.6747   -950.23539   -826.56351    199.61259    45.037255    -322.3339      46.7237      46.7237      46.7237           90           90           90     102002.7   -947.82454 
  996000       995497   -6686.6909    569.42647   -7256.1174    4308.8646   -11564.982    109.85094   -693.04408   -495.52977   -1105.4401    40.453817    213.88731   -45.849572      46.7237      46.7237      46.7237           90           90           90     102002.7    -764.6713 
  997000       996497    -6683.235     581.7401   -7264.9751     4306.929   -11571.904    112.22642   -665.78504   -848.20616   -871.30035    61.472686    315.41827    298.76048      46.7237      46.7237      46.7237           90           90           90     102002.7   -795.09718 
  998000       997497   -6665.5545    576.54958    -7242.104    4330.8592   -11572.963    111.22509   -913.71825   -749.48639   -710.27379    263.97412     277.1467   -198.96906      46.7237      46.7237      46.7237           90           90           90     102002.7   -791.15948 
  999000       998497   -6703.0314    548.01151    -7251.043    4305.1229   -11556.166    105.71967    81.818815   -787.94437   -604.95085    6.9939297     88.47786    158.61018      46.7237      46.7237      46.7237           90           90           90     102002.7   -437.02547 
 1000000       999497   -6690.7628    569.10243   -7259.8652    4300.3204   -11560.186    109.78843   -740.07544   -529.31222    -197.4763    156.58589   -75.041037    41.482631      46.7237      46.7237      46.7237           90           90           90     102002.7   -488.95465 
 1000503      1000000   -6708.5736     557.5532   -7266.1268    4301.6847   -11567.812     107.5604   -500.84008   -804.24513   -985.86991    92.886048   -43.769833    76.126461      46.7237      46.7237      46.7237           90           90           90     102002.7   -763.65171 
Loop time of 651.648 on 24 procs for 500000 steps with 1740 atoms

Performance: 66.293 ns/day, 0.362 hours/ns, 767.286 timesteps/s
99.9% CPU use with 24 MPI tasks x no OpenMP threads

MPI task timing breakdown:
Section |  min time  |  avg time  |  max time  |%varavg| %total
---------------------------------------------------------------
Pair    | 195.7      | 305.32     | 452.13     | 387.7 | 46.85
Bond    | 69.811     | 82.47      | 96.873     |  79.5 | 12.66
Neigh   | 1.7698     | 1.7898     | 1.8023     |   0.9 |  0.27
Comm    | 86.898     | 246.53     | 363.14     | 464.9 | 37.83
Output  | 0.37233    | 0.41694    | 0.41899    |   1.4 |  0.06
Modify  | 11.604     | 12.123     | 12.368     |   6.3 |  1.86
Other   |            | 2.994      |            |       |  0.46

Nlocal:    72.5 ave 93 max 51 min
Histogram: 2 2 3 1 3 2 5 2 2 2
Nghost:    1991.79 ave 2158 max 1898 min
Histogram: 10 6 0 0 0 0 0 0 4 4
Neighs:    7640.83 ave 11545 max 3692 min
Histogram: 2 2 5 1 2 5 0 1 3 3

Total # of neighbors = 183380
Ave neighs/atom = 105.391
Ave special neighs/atom = 6.62069
Neighbor list builds = 3260
Dangerous builds = 0
Total wall time: 0:20:32
