LAMMPS (30 Mar 2018)
Reading data file ...
  orthogonal box = (0 0 0) to (46.7237 46.7237 46.7237)
  2 by 2 by 4 MPI processor grid
  reading atoms ...
  1830 atoms
  scanning bonds ...
  5 = max bonds/atom
  scanning angles ...
  10 = max angles/atom
  scanning dihedrals ...
  32 = max dihedrals/atom
  scanning impropers ...
  3 = max impropers/atom
  reading bonds ...
  2064 bonds
  reading angles ...
  3696 angles
  reading dihedrals ...
  6240 dihedrals
  reading impropers ...
  1008 impropers
Finding 1-2 1-3 1-4 neighbors ...
  special bond factors lj:   0          0          0         
  special bond factors coul: 0          0          0         
  5 = max # of 1-2 neighbors
  8 = max # of 1-3 neighbors
  20 = max # of 1-4 neighbors
  19 = max # of special neighbors
Finding 1-2 1-3 1-4 neighbors ...
  special bond factors lj:   0          0          1         
  special bond factors coul: 1          1          1         
  5 = max # of 1-2 neighbors
  8 = max # of 1-3 neighbors
  19 = max # of special neighbors
WARNING: Using 'neigh_modify every 1 delay 0 check yes' setting during minimization (../min.cpp:168)
Neighbor list info ...
  update every 1 steps, delay 0 steps, check yes
  max neighbors/atom: 2000, page size: 100000
  master list distance cutoff = 16
  ghost atom cutoff = 16
  binsize = 8, bins = 6 6 6
  3 neighbor lists, perpetual/occasional/extra = 3 0 0
  (1) pair buck6d/coul/gauss/dsf, perpetual, skip from (3)
      attributes: half, newton on
      pair build: skip
      stencil: none
      bin: none
  (2) pair lj/cut, perpetual, skip from (3)
      attributes: half, newton on
      pair build: skip
      stencil: none
      bin: none
  (3) neighbor class addition, perpetual
      attributes: half, newton on
      pair build: half/bin/newton
      stencil: half/bin/3d/newton
      bin: standard
Setting up cg style minimization ...
  Unit style    : real
  Current step  : 0
WARNING: Inconsistent image flags (../domain.cpp:786)
Per MPI rank memory allocation (min/avg/max) = 22.9 | 23.35 | 23.8 Mbytes
Step Temp E_pair E_mol TotEng Press 
       0            0   -11827.307    6482.8914   -5344.4152    6143.3759 
     502            0   -11852.576      3720.09   -8132.4858    -542.0916 
Loop time of 2.81414 on 16 procs for 502 steps with 1830 atoms

99.9% CPU use with 16 MPI tasks x no OpenMP threads

Minimization stats:
  Stopping criterion = max force evaluations
  Energy initial, next-to-last, final = 
        -5344.41523563     -8132.47507952     -8132.48578767
  Force two-norm initial, final = 2576.2 4.89807
  Force max component initial, final = 151.968 0.702771
  Final line search alpha, max atom move = 0.0173632 0.0122023
  Iterations, force evaluations = 502 1000

MPI task timing breakdown:
Section |  min time  |  avg time  |  max time  |%varavg| %total
---------------------------------------------------------------
Pair    | 1.2166     | 1.6556     | 2          |  19.1 | 58.83
Bond    | 0.2952     | 0.35917    | 0.40334    |   5.8 | 12.76
Neigh   | 0.016906   | 0.016965   | 0.017024   |   0.0 |  0.60
Comm    | 0.42217    | 0.74138    | 1.2449     |  29.0 | 26.34
Output  | 0          | 0          | 0          |   0.0 |  0.00
Modify  | 0          | 0          | 0          |   0.0 |  0.00
Other   |            | 0.041      |            |       |  1.46

Nlocal:    114.375 ave 126 max 97 min
Histogram: 1 1 0 1 2 3 2 3 0 3
Nghost:    2274.62 ave 2291 max 2265 min
Histogram: 3 2 2 3 2 2 0 0 0 2
Neighs:    11454.3 ave 14767 max 7256 min
Histogram: 3 0 1 1 3 0 2 0 2 4

Total # of neighbors = 183269
Ave neighs/atom = 100.147
Ave special neighs/atom = 6.29508
Neighbor list builds = 13
Dangerous builds = 0
Neighbor list info ...
  update every 1 steps, delay 10 steps, check yes
  max neighbors/atom: 2000, page size: 100000
  master list distance cutoff = 16
  ghost atom cutoff = 16
  binsize = 8, bins = 6 6 6
  3 neighbor lists, perpetual/occasional/extra = 3 0 0
  (1) pair buck6d/coul/gauss/dsf, perpetual, skip from (3)
      attributes: half, newton on
      pair build: skip
      stencil: none
      bin: none
  (2) pair lj/cut, perpetual, skip from (3)
      attributes: half, newton on
      pair build: skip
      stencil: none
      bin: none
  (3) neighbor class addition, perpetual
      attributes: half, newton on
      pair build: half/bin/newton
      stencil: half/bin/3d/newton
      bin: standard
Setting up Verlet run ...
  Unit style    : real
  Current step  : 502
  Time step     : 1
WARNING: Inconsistent image flags (../domain.cpp:786)
Per MPI rank memory allocation (min/avg/max) = 22.54 | 22.62 | 22.86 Mbytes
Step Temp PotEng TotEng Press Volume Lx Ly Lz 
     502           91   -8132.4858   -7636.3627    -319.7552     102002.7      46.7237      46.7237      46.7237 
    1000    78.866959   -7686.4581   -7256.4832   -515.30312     102002.7      46.7237      46.7237      46.7237 
    2000    98.623426   -7643.7195   -7106.0343   -675.72252     102002.7      46.7237      46.7237      46.7237 
    3000    91.142296   -7609.3429   -7112.4441   -867.72626     102002.7      46.7237      46.7237      46.7237 
    4000    88.032074   -7619.6978   -7139.7556   -495.31213     102002.7      46.7237      46.7237      46.7237 
    5000    90.463447   -7614.2025   -7121.0047    -569.9678     102002.7      46.7237      46.7237      46.7237 
    6000    91.860785   -7623.9746   -7123.1586   -685.51321     102002.7      46.7237      46.7237      46.7237 
    7000    88.531026    -7604.135   -7121.4726   -350.87614     102002.7      46.7237      46.7237      46.7237 
    8000    91.406491   -7625.1734   -7126.8342   -659.25113     102002.7      46.7237      46.7237      46.7237 
    9000    91.705401   -7612.1157   -7112.1469   -677.23546     102002.7      46.7237      46.7237      46.7237 
   10000    89.826364   -7599.3309   -7109.6064   -707.12125     102002.7      46.7237      46.7237      46.7237 
   11000    92.897372   -7644.5138   -7138.0465   -423.92794     102002.7      46.7237      46.7237      46.7237 
   12000     89.78329   -7616.0841   -7126.5945   -750.71128     102002.7      46.7237      46.7237      46.7237 
   13000    93.347787   -7615.4016   -7106.4787   -785.11452     102002.7      46.7237      46.7237      46.7237 
   14000    93.649888    -7631.107   -7120.5371   -520.41181     102002.7      46.7237      46.7237      46.7237 
   15000    88.051556   -7620.4241   -7140.3757   -637.46078     102002.7      46.7237      46.7237      46.7237 
   16000    88.334323   -7607.4086   -7125.8185   -779.54453     102002.7      46.7237      46.7237      46.7237 
   17000     92.18383   -7617.8821   -7115.3049   -929.58088     102002.7      46.7237      46.7237      46.7237 
   18000    91.690739   -7607.0656   -7107.1767   -862.77679     102002.7      46.7237      46.7237      46.7237 
   19000    91.221724    -7619.379   -7122.0471   -908.01634     102002.7      46.7237      46.7237      46.7237 
   20000     88.90479   -7627.1294   -7142.4292   -898.05548     102002.7      46.7237      46.7237      46.7237 
   21000    91.878109   -7607.6555   -7106.7451   -706.15465     102002.7      46.7237      46.7237      46.7237 
   22000    91.132469   -7616.3076   -7119.4623   -586.26925     102002.7      46.7237      46.7237      46.7237 
   23000    88.981457   -7628.0721    -7142.954   -830.90465     102002.7      46.7237      46.7237      46.7237 
   24000    92.029551   -7610.8445   -7109.1084   -884.06865     102002.7      46.7237      46.7237      46.7237 
   25000    91.850709    -7614.561      -7113.8   -680.93468     102002.7      46.7237      46.7237      46.7237 
   26000    90.216566   -7629.3877   -7137.5359   -614.31983     102002.7      46.7237      46.7237      46.7237 
   27000    90.528007   -7593.4586   -7099.9088   -778.80694     102002.7      46.7237      46.7237      46.7237 
   28000    89.324167   -7615.7616    -7128.775   -888.20329     102002.7      46.7237      46.7237      46.7237 
   29000    90.775637   -7617.5755   -7122.6757   -606.55596     102002.7      46.7237      46.7237      46.7237 
   30000    88.762465   -7620.9571   -7137.0329    -904.2392     102002.7      46.7237      46.7237      46.7237 
   31000     90.31904   -7612.4875    -7120.077   -765.45529     102002.7      46.7237      46.7237      46.7237 
   32000    93.759766   -7616.7399   -7105.5709   -662.70791     102002.7      46.7237      46.7237      46.7237 
   33000    91.361115   -7623.7094   -7125.6176   -674.29955     102002.7      46.7237      46.7237      46.7237 
   34000    90.947658   -7645.2117   -7149.3741   -429.45978     102002.7      46.7237      46.7237      46.7237 
   35000    91.014231   -7605.6618   -7109.4612   -542.80581     102002.7      46.7237      46.7237      46.7237 
   36000    92.505999   -7609.4492   -7105.1156   -480.94845     102002.7      46.7237      46.7237      46.7237 
   37000    91.756898   -7628.7436    -7128.494    -661.2044     102002.7      46.7237      46.7237      46.7237 
   38000    90.275819   -7618.2236   -7126.0488   -721.17099     102002.7      46.7237      46.7237      46.7237 
   39000     90.98233   -7628.9701   -7132.9433   -677.83252     102002.7      46.7237      46.7237      46.7237 
   40000    88.679969   -7601.6146   -7118.1402   -578.71964     102002.7      46.7237      46.7237      46.7237 
   41000    90.645214   -7626.0087     -7131.82   -941.54247     102002.7      46.7237      46.7237      46.7237 
   42000    88.946825   -7594.2654    -7109.336   -659.54978     102002.7      46.7237      46.7237      46.7237 
   43000    88.936715   -7615.4894   -7130.6152   -557.73962     102002.7      46.7237      46.7237      46.7237 
   44000    90.451762   -7614.2673   -7121.1332   -1081.7024     102002.7      46.7237      46.7237      46.7237 
   45000    91.129939   -7624.0844   -7127.2529   -738.18603     102002.7      46.7237      46.7237      46.7237 
   46000    88.430152    -7606.395   -7124.2825   -913.91343     102002.7      46.7237      46.7237      46.7237 
   47000    94.731958   -7622.0908   -7105.6215   -855.10239     102002.7      46.7237      46.7237      46.7237 
   48000    93.893841   -7623.9662   -7112.0662   -908.66458     102002.7      46.7237      46.7237      46.7237 
   49000    89.039659   -7614.6808   -7129.2454   -760.35159     102002.7      46.7237      46.7237      46.7237 
   50000    93.055572   -7598.0758    -7090.746   -507.71958     102002.7      46.7237      46.7237      46.7237 
   51000    91.010554   -7628.6007   -7132.4201   -709.11167     102002.7      46.7237      46.7237      46.7237 
   52000    95.279314   -7612.2788   -7092.8253   -419.27183     102002.7      46.7237      46.7237      46.7237 
   53000    89.536039   -7628.5207   -7140.3791   -587.76239     102002.7      46.7237      46.7237      46.7237 
   54000    89.834306   -7606.9454   -7117.1776    -649.0081     102002.7      46.7237      46.7237      46.7237 
   55000    85.923548   -7611.6613   -7143.2146   -784.92343     102002.7      46.7237      46.7237      46.7237 
   56000    91.959603    -7636.278   -7134.9233   -1104.1816     102002.7      46.7237      46.7237      46.7237 
   57000    90.163432    -7621.912   -7130.3498    -980.3879     102002.7      46.7237      46.7237      46.7237 
   58000    92.270425   -7635.8266   -7132.7773   -696.62083     102002.7      46.7237      46.7237      46.7237 
   59000    89.289126   -7616.7278   -7129.9322   -700.08449     102002.7      46.7237      46.7237      46.7237 
   60000    89.636058   -7630.9567   -7142.2698   -752.49696     102002.7      46.7237      46.7237      46.7237 
   61000    91.384203   -7614.3418   -7116.1241   -631.57723     102002.7      46.7237      46.7237      46.7237 
   62000    88.756692   -7629.3672   -7145.4745   -509.40348     102002.7      46.7237      46.7237      46.7237 
   63000    90.412028   -7630.4253   -7137.5078   -918.56934     102002.7      46.7237      46.7237      46.7237 
   64000    92.244166   -7622.7478   -7119.8417   -846.85881     102002.7      46.7237      46.7237      46.7237 
   65000    89.873695   -7622.1862   -7132.2036     -751.658     102002.7      46.7237      46.7237      46.7237 
   66000    92.591308   -7621.1273   -7116.3286   -637.41413     102002.7      46.7237      46.7237      46.7237 
   67000    90.054996   -7622.4561   -7131.4851   -765.36104     102002.7      46.7237      46.7237      46.7237 
   68000    93.396633   -7602.0771   -7092.8878   -740.82734     102002.7      46.7237      46.7237      46.7237 
   69000    91.394981    -7602.662   -7104.3855   -494.71147     102002.7      46.7237      46.7237      46.7237 
   70000    89.715768    -7619.838   -7130.7165   -581.71093     102002.7      46.7237      46.7237      46.7237 
   71000    91.927037   -7633.4433   -7132.2662   -513.43894     102002.7      46.7237      46.7237      46.7237 
   72000    93.031696   -7608.7498   -7101.5502   -573.02401     102002.7      46.7237      46.7237      46.7237 
   73000     87.27999   -7627.1766   -7151.3346   -760.91354     102002.7      46.7237      46.7237      46.7237 
   74000    93.217276   -7619.9824   -7111.7709   -414.72301     102002.7      46.7237      46.7237      46.7237 
   75000    89.685785   -7601.3098   -7112.3517   -663.06054     102002.7      46.7237      46.7237      46.7237 
   76000    92.434563   -7628.5401    -7124.596   -719.79118     102002.7      46.7237      46.7237      46.7237 
   77000    94.653097   -7619.6957   -7103.6563   -507.96305     102002.7      46.7237      46.7237      46.7237 
   78000    91.817128    -7620.793    -7120.215   -714.28087     102002.7      46.7237      46.7237      46.7237 
   79000    89.651426    -7631.083   -7142.3122    -852.9083     102002.7      46.7237      46.7237      46.7237 
   80000    89.681019   -7617.3338   -7128.4017      -471.87     102002.7      46.7237      46.7237      46.7237 
   81000    94.981479   -7619.4768   -7101.6471   -647.12936     102002.7      46.7237      46.7237      46.7237 
   82000    92.994365   -7620.3731    -7113.377   -779.22271     102002.7      46.7237      46.7237      46.7237 
   83000    90.845888   -7626.3269   -7131.0441   -574.53606     102002.7      46.7237      46.7237      46.7237 
   84000     90.56275   -7598.6556   -7104.9164   -513.87681     102002.7      46.7237      46.7237      46.7237 
   85000    90.452111   -7618.1242   -7124.9882   -735.40846     102002.7      46.7237      46.7237      46.7237 
   86000    89.680475   -7633.9831    -7145.054   -845.91056     102002.7      46.7237      46.7237      46.7237 
   87000    90.835524   -7630.1976   -7134.9713   -800.90949     102002.7      46.7237      46.7237      46.7237 
   88000    90.946155    -7638.481   -7142.6515   -577.30902     102002.7      46.7237      46.7237      46.7237 
   89000    93.249577     -7630.89   -7122.5024   -767.04952     102002.7      46.7237      46.7237      46.7237 
   90000    89.316215   -7630.7027   -7143.7595   -737.26741     102002.7      46.7237      46.7237      46.7237 
   91000    92.164199   -7620.7091    -7118.239   -548.07722     102002.7      46.7237      46.7237      46.7237 
   92000    91.991855   -7635.5558   -7134.0253   -709.25447     102002.7      46.7237      46.7237      46.7237 
   93000    89.122315   -7620.3611    -7134.475   -486.68482     102002.7      46.7237      46.7237      46.7237 
   94000    90.478347    -7608.418   -7115.1389   -526.36801     102002.7      46.7237      46.7237      46.7237 
   95000    86.426692   -7622.6278    -7151.438   -866.71341     102002.7      46.7237      46.7237      46.7237 
   96000    89.859987   -7623.1888    -7133.281   -683.06343     102002.7      46.7237      46.7237      46.7237 
   97000    91.783196   -7618.9131   -7118.5202   -654.07108     102002.7      46.7237      46.7237      46.7237 
   98000    88.437535   -7633.6272   -7151.4744   -699.73314     102002.7      46.7237      46.7237      46.7237 
   99000    89.988974   -7628.2728   -7137.6618   -587.54633     102002.7      46.7237      46.7237      46.7237 
  100000    90.674505   -7619.5713   -7125.2228   -625.98475     102002.7      46.7237      46.7237      46.7237 
  101000    92.269736   -7646.3116   -7143.2661   -714.82239     102002.7      46.7237      46.7237      46.7237 
  102000    90.250384   -7631.6577   -7139.6214   -817.39524     102002.7      46.7237      46.7237      46.7237 
  103000    92.828253   -7618.3144   -7112.2239   -426.50007     102002.7      46.7237      46.7237      46.7237 
  104000    90.957583   -7610.2401   -7114.3483   -752.47134     102002.7      46.7237      46.7237      46.7237 
  105000    88.219529   -7619.5425   -7138.5783   -581.50446     102002.7      46.7237      46.7237      46.7237 
  106000    89.026957   -7632.0179   -7146.6517   -421.05786     102002.7      46.7237      46.7237      46.7237 
  107000    92.424029   -7624.5778   -7120.6911   -599.92585     102002.7      46.7237      46.7237      46.7237 
  108000     92.74918   -7611.7404    -7106.081   -621.43863     102002.7      46.7237      46.7237      46.7237 
  109000     88.84104   -7621.3797   -7137.0271   -775.04949     102002.7      46.7237      46.7237      46.7237 
  110000    90.950824   -7624.3364   -7128.4815    -624.3713     102002.7      46.7237      46.7237      46.7237 
  111000    91.762801   -7613.2422   -7112.9605   -306.62118     102002.7      46.7237      46.7237      46.7237 
  112000    92.745266   -7630.7511    -7125.113   -851.30174     102002.7      46.7237      46.7237      46.7237 
  113000    91.768746    -7614.288   -7113.9739   -779.15693     102002.7      46.7237      46.7237      46.7237 
  114000    89.971051   -7620.1536   -7129.6403    -689.1473     102002.7      46.7237      46.7237      46.7237 
  115000    91.081043   -7605.5139    -7108.949   -725.12626     102002.7      46.7237      46.7237      46.7237 
  116000     89.29954   -7626.5464   -7139.6941   -555.59413     102002.7      46.7237      46.7237      46.7237 
  117000    91.348288   -7619.2695   -7121.2476   -940.00993     102002.7      46.7237      46.7237      46.7237 
  118000    90.823104   -7617.3821   -7122.2235   -585.20226     102002.7      46.7237      46.7237      46.7237 
  119000    87.301664   -7615.2788   -7139.3188   -870.91906     102002.7      46.7237      46.7237      46.7237 
  120000    90.930103   -7631.6609   -7135.9189   -613.87949     102002.7      46.7237      46.7237      46.7237 
  121000    90.826869   -7622.1343   -7126.9551   -815.51539     102002.7      46.7237      46.7237      46.7237 
  122000    93.206208   -7615.0935   -7106.9424   -710.09246     102002.7      46.7237      46.7237      46.7237 
  123000    93.202481   -7622.1189   -7113.9882   -413.61654     102002.7      46.7237      46.7237      46.7237 
  124000    89.526653   -7631.5648   -7143.4743   -578.77935     102002.7      46.7237      46.7237      46.7237 
  125000    91.395549   -7616.6264   -7118.3468   -475.43705     102002.7      46.7237      46.7237      46.7237 
  126000    88.090545   -7614.0477   -7133.7867   -737.82991     102002.7      46.7237      46.7237      46.7237 
  127000    89.410326    -7631.033   -7143.5767    -747.8247     102002.7      46.7237      46.7237      46.7237 
  128000    89.125296    -7616.733   -7130.8306   -712.42078     102002.7      46.7237      46.7237      46.7237 
  129000    89.147404   -7601.8435   -7115.8206   -723.90345     102002.7      46.7237      46.7237      46.7237 
  130000    89.635827    -7625.843   -7137.1573   -887.40563     102002.7      46.7237      46.7237      46.7237 
  131000    92.939001   -7618.3355   -7111.6412   -996.86837     102002.7      46.7237      46.7237      46.7237 
  132000    91.845185   -7621.2199    -7120.489   -646.45813     102002.7      46.7237      46.7237      46.7237 
  133000     91.28191   -7616.3015   -7118.6415   -758.62653     102002.7      46.7237      46.7237      46.7237 
  134000    89.581936   -7622.1453   -7133.7534   -755.16261     102002.7      46.7237      46.7237      46.7237 
  135000    91.004145   -7622.0037   -7125.8581   -619.38479     102002.7      46.7237      46.7237      46.7237 
  136000    95.304261   -7616.8354    -7097.246   -928.33195     102002.7      46.7237      46.7237      46.7237 
  137000    90.691822    -7628.238   -7133.7951   -419.95883     102002.7      46.7237      46.7237      46.7237 
  138000    92.321293   -7614.2649   -7110.9383   -664.63613     102002.7      46.7237      46.7237      46.7237 
  139000    93.161154   -7616.1627   -7108.2572   -615.84074     102002.7      46.7237      46.7237      46.7237 
  140000    91.157716   -7625.6154   -7128.6325   -770.81153     102002.7      46.7237      46.7237      46.7237 
  141000    94.467136   -7627.7434   -7112.7179   -555.77736     102002.7      46.7237      46.7237      46.7237 
  142000    90.119753   -7628.3241        -7137   -539.82011     102002.7      46.7237      46.7237      46.7237 
  143000    90.684199   -7622.8747   -7128.4734   -703.17739     102002.7      46.7237      46.7237      46.7237 
  144000    91.742404   -7622.5637   -7122.3931   -591.26488     102002.7      46.7237      46.7237      46.7237 
  145000     89.30364   -7607.7094   -7120.8347   -609.02559     102002.7      46.7237      46.7237      46.7237 
  146000     90.86369   -7620.2362   -7124.8564    -684.3323     102002.7      46.7237      46.7237      46.7237 
  147000    90.530537   -7616.3589   -7122.7954   -899.12459     102002.7      46.7237      46.7237      46.7237 
  148000    92.605669   -7625.2343   -7120.3573   -745.78278     102002.7      46.7237      46.7237      46.7237 
  149000    92.091756   -7618.8714   -7116.7962    -625.3016     102002.7      46.7237      46.7237      46.7237 
  150000    90.972951    -7614.301   -7118.3254   -868.37961     102002.7      46.7237      46.7237      46.7237 
  151000    90.017369   -7627.8348    -7137.069   -676.59126     102002.7      46.7237      46.7237      46.7237 
  152000    91.577125   -7622.9495     -7123.68    -893.1265     102002.7      46.7237      46.7237      46.7237 
  153000    92.459715    -7614.667   -7110.5857   -254.43212     102002.7      46.7237      46.7237      46.7237 
  154000    93.803297   -7609.7808   -7098.3745   -671.68744     102002.7      46.7237      46.7237      46.7237 
  155000    90.453867   -7621.1846   -7128.0391   -658.05102     102002.7      46.7237      46.7237      46.7237 
  156000    90.634389   -7612.7295   -7118.5997   -788.00741     102002.7      46.7237      46.7237      46.7237 
  157000    91.461589   -7623.7569   -7125.1173   -793.04834     102002.7      46.7237      46.7237      46.7237 
  158000    91.400193   -7629.9485   -7131.6436   -431.71782     102002.7      46.7237      46.7237      46.7237 
  159000     94.84747   -7607.7441    -7090.645   -692.82846     102002.7      46.7237      46.7237      46.7237 
  160000    90.841438   -7616.4104   -7121.1519   -605.87985     102002.7      46.7237      46.7237      46.7237 
  161000    90.076567   -7612.7119   -7121.6233   -610.58559     102002.7      46.7237      46.7237      46.7237 
  162000    92.220428   -7621.2527    -7118.476    -639.5807     102002.7      46.7237      46.7237      46.7237 
  163000     90.89547   -7626.4042   -7130.8511    -1045.281     102002.7      46.7237      46.7237      46.7237 
  164000    92.314014   -7624.9344   -7121.6475   -855.30099     102002.7      46.7237      46.7237      46.7237 
  165000    92.461772    -7625.652   -7121.5595   -466.91999     102002.7      46.7237      46.7237      46.7237 
  166000     90.95013   -7633.2592    -7137.408   -879.64518     102002.7      46.7237      46.7237      46.7237 
  167000    89.870655    -7612.631    -7122.665    -376.4123     102002.7      46.7237      46.7237      46.7237 
  168000     89.71438   -7610.1877   -7121.0737     -653.754     102002.7      46.7237      46.7237      46.7237 
  169000    89.549425   -7603.7958   -7115.5811   -608.58538     102002.7      46.7237      46.7237      46.7237 
  170000    91.208458   -7618.7777   -7121.5182   -613.49799     102002.7      46.7237      46.7237      46.7237 
  171000    90.072224   -7603.6444   -7112.5795   -774.82425     102002.7      46.7237      46.7237      46.7237 
  172000     93.22175   -7615.2591   -7107.0233   -669.02449     102002.7      46.7237      46.7237      46.7237 
  173000    92.010488   -7623.8939   -7122.2618   -645.91261     102002.7      46.7237      46.7237      46.7237 
  174000    89.296099   -7633.9038   -7147.0703   -827.25551     102002.7      46.7237      46.7237      46.7237 
  175000    92.000147   -7621.8432   -7120.2675   -482.96169     102002.7      46.7237      46.7237      46.7237 
  176000    95.111533   -7598.0958   -7079.5571   -823.95459     102002.7      46.7237      46.7237      46.7237 
  177000    90.038012    -7612.197   -7121.3187   -693.61366     102002.7      46.7237      46.7237      46.7237 
  178000    89.993686   -7610.6162   -7119.9795    -474.1079     102002.7      46.7237      46.7237      46.7237 
  179000    93.445496   -7616.4533   -7106.9977   -761.17599     102002.7      46.7237      46.7237      46.7237 
  180000    89.670046   -7581.8655   -7092.9932   -672.34445     102002.7      46.7237      46.7237      46.7237 
  181000    89.658096   -7621.1889   -7132.3818   -731.43242     102002.7      46.7237      46.7237      46.7237 
  182000    90.004116   -7601.9206    -7111.227   -1007.0307     102002.7      46.7237      46.7237      46.7237 
  183000    92.397101   -7633.5602   -7129.8203   -624.09783     102002.7      46.7237      46.7237      46.7237 
  184000    91.907668   -7604.9661   -7103.8945   -542.50102     102002.7      46.7237      46.7237      46.7237 
  185000    91.765328   -7607.9635   -7107.6679   -844.72684     102002.7      46.7237      46.7237      46.7237 
  186000    89.850303   -7621.6738   -7131.8188   -651.58394     102002.7      46.7237      46.7237      46.7237 
  187000    88.149365   -7608.2797    -7127.698   -811.51395     102002.7      46.7237      46.7237      46.7237 
  188000     91.74543   -7625.2248   -7125.0377   -663.94675     102002.7      46.7237      46.7237      46.7237 
  189000    93.150235   -7598.5449    -7090.699   -687.98507     102002.7      46.7237      46.7237      46.7237 
  190000    91.189008    -7602.939   -7105.7855   -761.82779     102002.7      46.7237      46.7237      46.7237 
  191000    90.619063   -7627.0318   -7132.9856    -654.0971     102002.7      46.7237      46.7237      46.7237 
  192000    92.807759   -7597.9185   -7091.9398    -745.4633     102002.7      46.7237      46.7237      46.7237 
  193000    89.642018   -7622.2197   -7133.5002   -794.80989     102002.7      46.7237      46.7237      46.7237 
  194000    90.340613   -7613.8258   -7121.2976   -838.54155     102002.7      46.7237      46.7237      46.7237 
  195000    91.362555   -7620.1415   -7122.0418   -560.74903     102002.7      46.7237      46.7237      46.7237 
  196000    94.129954   -7616.6368   -7103.4496   -594.35418     102002.7      46.7237      46.7237      46.7237 
  197000    90.414068   -7621.1374   -7128.2088   -751.93364     102002.7      46.7237      46.7237      46.7237 
  198000    93.379673   -7617.6909   -7108.5941   -733.17446     102002.7      46.7237      46.7237      46.7237 
  199000    92.050886    -7618.464   -7116.6116   -794.49578     102002.7      46.7237      46.7237      46.7237 
  200000     92.19608   -7632.2371   -7129.5931   -807.13053     102002.7      46.7237      46.7237      46.7237 
  201000     91.95941   -7615.3249   -7113.9712   -895.03549     102002.7      46.7237      46.7237      46.7237 
  202000    91.184559   -7598.2974   -7101.1681   -569.73053     102002.7      46.7237      46.7237      46.7237 
  203000    92.092027   -7623.1233   -7121.0467   -831.53755     102002.7      46.7237      46.7237      46.7237 
  204000    90.651725   -7622.2423    -7128.018   -910.89288     102002.7      46.7237      46.7237      46.7237 
  205000    94.544443   -7614.5181   -7099.0711   -707.86106     102002.7      46.7237      46.7237      46.7237 
  206000     91.49585   -7635.0582   -7136.2319   -1053.6185     102002.7      46.7237      46.7237      46.7237 
  207000    92.850964   -7611.1097   -7104.8954   -993.93783     102002.7      46.7237      46.7237      46.7237 
  208000    91.051716   -7627.8289   -7131.4239    -661.3178     102002.7      46.7237      46.7237      46.7237 
  209000    93.501647   -7607.4744   -7097.7127   -873.97244     102002.7      46.7237      46.7237      46.7237 
  210000    91.908727   -7616.6886   -7115.6113   -691.89739     102002.7      46.7237      46.7237      46.7237 
  211000    89.476774   -7613.8433   -7126.0248   -727.83755     102002.7      46.7237      46.7237      46.7237 
  212000    90.870191   -7602.1797   -7106.7644   -840.46566     102002.7      46.7237      46.7237      46.7237 
  213000    90.641617   -7633.4033   -7139.2342   -870.78911     102002.7      46.7237      46.7237      46.7237 
  214000    90.412974   -7609.9091   -7116.9864   -1063.7179     102002.7      46.7237      46.7237      46.7237 
  215000    91.062542   -7610.5221    -7114.058    -731.3286     102002.7      46.7237      46.7237      46.7237 
  216000    93.356388   -7631.9844   -7123.0145   -547.14258     102002.7      46.7237      46.7237      46.7237 
  217000    89.834536   -7636.7719   -7147.0028   -580.59862     102002.7      46.7237      46.7237      46.7237 
  218000    92.610167   -7614.5971   -7109.6956   -569.61562     102002.7      46.7237      46.7237      46.7237 
  219000    90.830757   -7614.2685   -7119.0682   -744.93978     102002.7      46.7237      46.7237      46.7237 
  220000    88.829062   -7620.1491   -7135.8618   -920.57729     102002.7      46.7237      46.7237      46.7237 
  221000    92.205891   -7614.0112   -7111.3138   -548.60566     102002.7      46.7237      46.7237      46.7237 
  222000    93.239828   -7606.6238   -7098.2894   -802.46137     102002.7      46.7237      46.7237      46.7237 
  223000    91.090775   -7620.0355   -7123.4175   -701.50681     102002.7      46.7237      46.7237      46.7237 
  224000    92.711865   -7623.0982   -7117.6422    -842.6197     102002.7      46.7237      46.7237      46.7237 
  225000    90.660434   -7622.8761   -7128.6043   -718.95925     102002.7      46.7237      46.7237      46.7237 
  226000    90.237083   -7603.6778   -7111.7141   -701.06917     102002.7      46.7237      46.7237      46.7237 
  227000    89.072889   -7624.8132   -7139.1966   -824.75757     102002.7      46.7237      46.7237      46.7237 
  228000    91.846701    -7614.381   -7113.6418   -793.52566     102002.7      46.7237      46.7237      46.7237 
  229000    92.770238   -7611.5286   -7105.7544    -834.8994     102002.7      46.7237      46.7237      46.7237 
  230000    89.428799   -7616.3734   -7128.8164   -555.02524     102002.7      46.7237      46.7237      46.7237 
  231000    91.331424   -7611.8376   -7113.9076   -424.27985     102002.7      46.7237      46.7237      46.7237 
  232000    91.400396    -7621.344    -7123.038   -504.63773     102002.7      46.7237      46.7237      46.7237 
  233000    90.170867   -7628.5217    -7136.919   -771.23093     102002.7      46.7237      46.7237      46.7237 
  234000    91.302445   -7619.8846   -7122.1127   -580.13904     102002.7      46.7237      46.7237      46.7237 
  235000    91.470701   -7638.8004   -7140.1112   -686.32366     102002.7      46.7237      46.7237      46.7237 
  236000     94.72983   -7614.7337    -7098.276   -501.63757     102002.7      46.7237      46.7237      46.7237 
  237000    92.258666    -7632.003   -7129.0178    -597.4572     102002.7      46.7237      46.7237      46.7237 
  238000    90.004748   -7616.8408   -7126.1438   -685.36834     102002.7      46.7237      46.7237      46.7237 
  239000    91.378737   -7618.7184   -7120.5305   -480.81554     102002.7      46.7237      46.7237      46.7237 
  240000    88.644711   -7602.2977   -7119.0154    -760.6338     102002.7      46.7237      46.7237      46.7237 
  241000    90.945827   -7639.3025   -7143.4748    -509.3463     102002.7      46.7237      46.7237      46.7237 
  242000    90.929035   -7617.2913   -7121.5552   -545.91738     102002.7      46.7237      46.7237      46.7237 
  243000     89.25613   -7615.0541   -7128.4385    -686.8055     102002.7      46.7237      46.7237      46.7237 
  244000    90.713068   -7620.0784   -7125.5196   -558.49387     102002.7      46.7237      46.7237      46.7237 
  245000    90.249836   -7605.0212    -7112.988   -596.74847     102002.7      46.7237      46.7237      46.7237 
  246000    93.881417   -7615.6518   -7103.8195   -758.76152     102002.7      46.7237      46.7237      46.7237 
  247000    89.662851   -7622.6886   -7133.8556   -925.66569     102002.7      46.7237      46.7237      46.7237 
  248000    89.538027   -7617.5343   -7129.3818     -535.519     102002.7      46.7237      46.7237      46.7237 
  249000    91.815561   -7604.3514    -7103.782   -651.58289     102002.7      46.7237      46.7237      46.7237 
  250000    89.355895   -7614.8335    -7127.674   -705.94859     102002.7      46.7237      46.7237      46.7237 
  251000    91.348626   -7614.9443   -7116.9206   -555.04154     102002.7      46.7237      46.7237      46.7237 
  252000    91.345965    -7614.039   -7116.0298   -733.82572     102002.7      46.7237      46.7237      46.7237 
  253000    90.957438    -7624.819    -7128.928   -539.86859     102002.7      46.7237      46.7237      46.7237 
  254000    88.688777   -7600.4091   -7116.8866   -770.53066     102002.7      46.7237      46.7237      46.7237 
  255000    89.487772   -7621.3297   -7133.4512   -857.49367     102002.7      46.7237      46.7237      46.7237 
  256000    90.816434   -7623.1117   -7127.9895   -767.29449     102002.7      46.7237      46.7237      46.7237 
  257000    91.841581   -7616.6007   -7115.8895   -616.86739     102002.7      46.7237      46.7237      46.7237 
  258000    89.611392   -7638.4315    -7149.879   -971.23741     102002.7      46.7237      46.7237      46.7237 
  259000    88.945203   -7612.8069   -7127.8864   -816.73256     102002.7      46.7237      46.7237      46.7237 
  260000    91.800697   -7614.1981   -7113.7097   -860.31149     102002.7      46.7237      46.7237      46.7237 
  261000    93.028516   -7626.6049   -7119.4226   -671.03766     102002.7      46.7237      46.7237      46.7237 
  262000    91.370608   -7618.1383   -7119.9948   -737.79443     102002.7      46.7237      46.7237      46.7237 
  263000    90.445921   -7608.2981   -7115.1959   -599.93102     102002.7      46.7237      46.7237      46.7237 
  264000    86.932047   -7609.0607   -7135.1158   -853.40037     102002.7      46.7237      46.7237      46.7237 
  265000    90.603347   -7631.1299   -7137.1694   -524.80924     102002.7      46.7237      46.7237      46.7237 
  266000    91.945168    -7600.922    -7099.646   -690.89036     102002.7      46.7237      46.7237      46.7237 
  267000    88.666016   -7614.3075   -7130.9091   -537.64153     102002.7      46.7237      46.7237      46.7237 
  268000    88.460744   -7612.4804   -7130.2011   -658.60511     102002.7      46.7237      46.7237      46.7237 
  269000    90.544997   -7608.0322   -7114.3898   -659.89379     102002.7      46.7237      46.7237      46.7237 
  270000    91.469857   -7604.5012   -7105.8165    -672.5503     102002.7      46.7237      46.7237      46.7237 
  271000    91.790496   -7625.5626   -7125.1298   -563.74361     102002.7      46.7237      46.7237      46.7237 
  272000    88.374946    -7628.067   -7146.2555   -662.84053     102002.7      46.7237      46.7237      46.7237 
  273000    90.583095   -7611.7973   -7117.9472    -507.8821     102002.7      46.7237      46.7237      46.7237 
  274000    90.775444   -7615.3658    -7120.467   -648.28143     102002.7      46.7237      46.7237      46.7237 
  275000    88.855807   -7632.4989   -7148.0658   -402.46291     102002.7      46.7237      46.7237      46.7237 
  276000    92.105859   -7621.0165   -7118.8645    -641.8419     102002.7      46.7237      46.7237      46.7237 
  277000    88.304079    -7632.163   -7150.7378   -575.72329     102002.7      46.7237      46.7237      46.7237 
  278000    93.332541   -7619.6972   -7110.8574   -317.73783     102002.7      46.7237      46.7237      46.7237 
  279000    88.877083   -7622.3272   -7137.7781   -695.16535     102002.7      46.7237      46.7237      46.7237 
  280000      94.1699   -7628.0799   -7114.6749   -411.84268     102002.7      46.7237      46.7237      46.7237 
  281000    89.157732   -7614.4794   -7128.4002   -530.53074     102002.7      46.7237      46.7237      46.7237 
  282000    93.436245   -7618.7582    -7109.353   -560.79703     102002.7      46.7237      46.7237      46.7237 
  283000    92.662898   -7628.6181   -7123.4291    -651.1088     102002.7      46.7237      46.7237      46.7237 
  284000    88.313613     -7610.34   -7128.8629   -706.64984     102002.7      46.7237      46.7237      46.7237 
  285000    89.669956   -7615.4596   -7126.5878   -534.43925     102002.7      46.7237      46.7237      46.7237 
  286000    92.981214   -7628.3364    -7121.412    -493.8799     102002.7      46.7237      46.7237      46.7237 
  287000    88.800506   -7616.2272   -7132.0956   -500.94953     102002.7      46.7237      46.7237      46.7237 
  288000    92.643452   -7604.8318   -7099.7488   -415.62406     102002.7      46.7237      46.7237      46.7237 
  289000    91.202874   -7610.5567   -7113.3276   -795.38231     102002.7      46.7237      46.7237      46.7237 
  290000    89.205126   -7618.6709   -7132.3333   -464.57481     102002.7      46.7237      46.7237      46.7237 
  291000    89.946696   -7604.5395    -7114.159   -615.48528     102002.7      46.7237      46.7237      46.7237 
  292000    88.088839   -7626.6621   -7146.4104   -641.06732     102002.7      46.7237      46.7237      46.7237 
  293000    90.240442   -7626.0841   -7134.1021   -460.65311     102002.7      46.7237      46.7237      46.7237 
  294000    92.600916   -7616.6288   -7111.7777   -658.73791     102002.7      46.7237      46.7237      46.7237 
  295000    90.004837   -7610.1443   -7119.4468   -397.81801     102002.7      46.7237      46.7237      46.7237 
  296000    90.935219   -7618.5224   -7122.7525   -666.10337     102002.7      46.7237      46.7237      46.7237 
  297000    92.706666   -7600.7726    -7095.345   -403.20282     102002.7      46.7237      46.7237      46.7237 
  298000    89.223735   -7615.1524   -7128.7134   -525.42426     102002.7      46.7237      46.7237      46.7237 
  299000    90.460767    -7623.906   -7130.7228   -626.18794     102002.7      46.7237      46.7237      46.7237 
  300000    89.651148   -7611.3828   -7122.6136    -742.6812     102002.7      46.7237      46.7237      46.7237 
  301000    94.193329   -7608.8175   -7095.2848   -670.44059     102002.7      46.7237      46.7237      46.7237 
  302000     90.73924   -7617.5286   -7122.8272   -625.33533     102002.7      46.7237      46.7237      46.7237 
  303000    93.134172   -7630.6189   -7122.8606   -690.32754     102002.7      46.7237      46.7237      46.7237 
  304000    91.960388   -7613.0657   -7111.7068   -383.67925     102002.7      46.7237      46.7237      46.7237 
  305000    90.568962   -7628.6303   -7134.8572   -508.45973     102002.7      46.7237      46.7237      46.7237 
  306000    91.173463   -7614.3518    -7117.283   -657.49238     102002.7      46.7237      46.7237      46.7237 
  307000    90.249225   -7622.1052   -7130.0753   -568.85326     102002.7      46.7237      46.7237      46.7237 
  308000    95.363887    -7620.707   -7100.7925   -855.79177     102002.7      46.7237      46.7237      46.7237 
  309000    91.076438   -7631.8455   -7135.3057   -880.61361     102002.7      46.7237      46.7237      46.7237 
  310000     93.27143   -7629.8833   -7121.3766   -704.79234     102002.7      46.7237      46.7237      46.7237 
  311000    88.795753    -7637.728   -7153.6223   -680.01668     102002.7      46.7237      46.7237      46.7237 
  312000    90.058024   -7620.2494    -7129.262   -487.98734     102002.7      46.7237      46.7237      46.7237 
  313000    87.682921   -7618.6993   -7140.6606   -547.26233     102002.7      46.7237      46.7237      46.7237 
  314000    93.581227   -7621.9271   -7111.7315    -357.9327     102002.7      46.7237      46.7237      46.7237 
  315000    91.073245   -7611.5437   -7115.0213   -608.31403     102002.7      46.7237      46.7237      46.7237 
  316000    91.907317   -7633.8177   -7132.7481   -861.83042     102002.7      46.7237      46.7237      46.7237 
  317000    89.928699   -7629.1486   -7138.8662   -639.90346     102002.7      46.7237      46.7237      46.7237 
  318000    91.354845   -7621.9254   -7123.8678   -813.58493     102002.7      46.7237      46.7237      46.7237 
  319000    92.996524   -7609.7342   -7102.7263   -769.89719     102002.7      46.7237      46.7237      46.7237 
  320000    90.102524   -7617.2924   -7126.0623   -637.75388     102002.7      46.7237      46.7237      46.7237 
  321000    89.981586   -7628.5222   -7137.9514   -670.74581     102002.7      46.7237      46.7237      46.7237 
  322000     90.62828   -7626.3562   -7132.2598   -810.02569     102002.7      46.7237      46.7237      46.7237 
  323000    91.576916   -7609.5639   -7110.2956   -866.00561     102002.7      46.7237      46.7237      46.7237 
  324000    91.008233   -7631.1604   -7134.9925   -801.79118     102002.7      46.7237      46.7237      46.7237 
  325000    92.254365   -7610.9581   -7107.9964   -806.51794     102002.7      46.7237      46.7237      46.7237 
  326000    93.502137   -7614.5242   -7104.7598   -683.91875     102002.7      46.7237      46.7237      46.7237 
  327000    89.694766   -7604.2047   -7115.1977   -815.66679     102002.7      46.7237      46.7237      46.7237 
  328000    91.355919   -7619.1391   -7121.0756   -883.39252     102002.7      46.7237      46.7237      46.7237 
  329000    88.795962   -7615.2999   -7131.1931   -550.62197     102002.7      46.7237      46.7237      46.7237 
  330000    91.041318   -7619.3371   -7122.9888   -822.04703     102002.7      46.7237      46.7237      46.7237 
  331000    90.192916   -7635.5288   -7143.8059   -899.75516     102002.7      46.7237      46.7237      46.7237 
  332000    90.413756   -7629.5458   -7136.6189   -652.83416     102002.7      46.7237      46.7237      46.7237 
  333000    91.361814   -7613.2967   -7115.2011   -914.83746     102002.7      46.7237      46.7237      46.7237 
  334000     92.30454    -7598.967   -7095.7317   -762.33799     102002.7      46.7237      46.7237      46.7237 
  335000    89.947968     -7615.66   -7125.2725   -438.45839     102002.7      46.7237      46.7237      46.7237 
  336000    91.779444   -7615.5476   -7115.1752    -617.8531     102002.7      46.7237      46.7237      46.7237 
  337000    91.818734   -7626.6152   -7126.0285   -594.81013     102002.7      46.7237      46.7237      46.7237 
  338000    91.720895   -7619.5487   -7119.4954   -751.25305     102002.7      46.7237      46.7237      46.7237 
  339000    90.700098   -7607.8604   -7113.3724   -498.21549     102002.7      46.7237      46.7237      46.7237 
  340000    89.790239    -7615.853   -7126.3255   -803.89475     102002.7      46.7237      46.7237      46.7237 
  341000    90.655847   -7617.7225   -7123.4757   -700.53662     102002.7      46.7237      46.7237      46.7237 
  342000    91.330508   -7615.5905   -7117.6656   -821.03005     102002.7      46.7237      46.7237      46.7237 
  343000    93.446374    -7607.454   -7097.9935   -680.31602     102002.7      46.7237      46.7237      46.7237 
  344000    90.709156   -7631.3981   -7136.8607   -636.58744     102002.7      46.7237      46.7237      46.7237 
  345000    89.266729   -7633.5058   -7146.8324   -677.15663     102002.7      46.7237      46.7237      46.7237 
  346000    90.976756   -7622.5898   -7126.5935   -545.46491     102002.7      46.7237      46.7237      46.7237 
  347000     89.21138   -7626.9509   -7140.5793   -639.32928     102002.7      46.7237      46.7237      46.7237 
  348000    93.291426   -7630.9613   -7122.3456   -732.13579     102002.7      46.7237      46.7237      46.7237 
  349000    88.601011   -7619.0776   -7136.0336   -875.47616     102002.7      46.7237      46.7237      46.7237 
  350000    93.377186   -7623.7278   -7114.6446   -892.50375     102002.7      46.7237      46.7237      46.7237 
  351000    92.033136   -7617.4601   -7115.7045   -755.72151     102002.7      46.7237      46.7237      46.7237 
  352000    88.074236   -7598.0136   -7117.8415   -490.12024     102002.7      46.7237      46.7237      46.7237 
  353000     90.92005   -7615.9838   -7120.2966   -631.04907     102002.7      46.7237      46.7237      46.7237 
  354000    91.889771   -7605.2305   -7104.2565   -485.86558     102002.7      46.7237      46.7237      46.7237 
  355000     89.89935   -7626.6385   -7136.5161   -633.11297     102002.7      46.7237      46.7237      46.7237 
  356000    92.668147   -7620.0512   -7114.8336   -677.23721     102002.7      46.7237      46.7237      46.7237 
  357000    91.301679   -7630.2031   -7132.4354   -772.57358     102002.7      46.7237      46.7237      46.7237 
  358000    90.152452   -7609.2952   -7117.7929   -808.00983     102002.7      46.7237      46.7237      46.7237 
  359000    89.856675   -7604.5865   -7114.6967   -588.05552     102002.7      46.7237      46.7237      46.7237 
  360000    91.026964   -7622.0663   -7125.7963   -774.22543     102002.7      46.7237      46.7237      46.7237 
  361000    94.493539   -7617.4864   -7102.3169   -782.36885     102002.7      46.7237      46.7237      46.7237 
  362000    88.537506   -7618.9424   -7136.2446   -861.67614     102002.7      46.7237      46.7237      46.7237 
  363000    89.846025   -7602.5559   -7112.7243   -832.10646     102002.7      46.7237      46.7237      46.7237 
  364000    92.979179   -7621.1231   -7114.2098   -731.71554     102002.7      46.7237      46.7237      46.7237 
  365000    89.274622   -7632.5642   -7145.8478    -845.3192     102002.7      46.7237      46.7237      46.7237 
  366000    88.720716   -7609.3588   -7125.6622   -615.83901     102002.7      46.7237      46.7237      46.7237 
  367000    94.068569   -7621.1418   -7108.2892    -353.0955     102002.7      46.7237      46.7237      46.7237 
  368000    90.654809   -7610.9411      -7116.7   -634.97297     102002.7      46.7237      46.7237      46.7237 
  369000    88.860538   -7621.0104   -7136.5514   -598.43198     102002.7      46.7237      46.7237      46.7237 
  370000     88.42213   -7609.9727    -7127.904   -479.65452     102002.7      46.7237      46.7237      46.7237 
  371000    86.496012   -7608.8211   -7137.2533   -943.66857     102002.7      46.7237      46.7237      46.7237 
  372000    92.145714   -7617.3813    -7115.012   -875.72079     102002.7      46.7237      46.7237      46.7237 
  373000    86.542016   -7623.2454   -7151.4269   -811.75567     102002.7      46.7237      46.7237      46.7237 
  374000    87.964352   -7605.1095   -7125.5365   -751.78556     102002.7      46.7237      46.7237      46.7237 
  375000     92.66358   -7618.9855   -7113.7928   -543.89931     102002.7      46.7237      46.7237      46.7237 
  376000    89.340422   -7624.7712    -7137.696   -543.32032     102002.7      46.7237      46.7237      46.7237 
  377000    91.767538   -7605.5437   -7105.2361   -386.04844     102002.7      46.7237      46.7237      46.7237 
  378000    91.838853   -7606.4628   -7105.7664   -654.65788     102002.7      46.7237      46.7237      46.7237 
  379000    92.359981   -7623.9691   -7120.4316   -348.94647     102002.7      46.7237      46.7237      46.7237 
  380000    91.280044   -7601.0314   -7103.3816   -641.05693     102002.7      46.7237      46.7237      46.7237 
  381000    88.988548   -7622.6468     -7137.49   -557.68735     102002.7      46.7237      46.7237      46.7237 
  382000     88.23976   -7613.6076   -7132.5331    -758.9084     102002.7      46.7237      46.7237      46.7237 
  383000    90.835559   -7614.1761   -7118.9495   -883.85803     102002.7      46.7237      46.7237      46.7237 
  384000    88.501201   -7622.0367   -7139.5368   -713.48451     102002.7      46.7237      46.7237      46.7237 
  385000    89.300731   -7617.5046   -7130.6458   -472.15612     102002.7      46.7237      46.7237      46.7237 
  386000    92.096795   -7602.6335   -7100.5308   -761.42918     102002.7      46.7237      46.7237      46.7237 
  387000    90.952003   -7616.7217   -7120.8603   -347.53291     102002.7      46.7237      46.7237      46.7237 
  388000    90.378073   -7623.1261   -7130.3937   -839.20092     102002.7      46.7237      46.7237      46.7237 
  389000    91.206273   -7623.7824   -7126.5348   -539.79666     102002.7      46.7237      46.7237      46.7237 
  390000     89.58365   -7622.9441   -7134.5429   -576.16368     102002.7      46.7237      46.7237      46.7237 
  391000    93.213849   -7626.4497    -7118.257   -514.64874     102002.7      46.7237      46.7237      46.7237 
  392000    89.196643   -7618.6976   -7132.4063   -692.26923     102002.7      46.7237      46.7237      46.7237 
  393000    91.553156   -7618.7832   -7119.6444   -1066.6791     102002.7      46.7237      46.7237      46.7237 
  394000    95.259782   -7617.2177   -7097.8707   -596.41385     102002.7      46.7237      46.7237      46.7237 
  395000    90.548814   -7620.9799   -7127.3166   -858.82551     102002.7      46.7237      46.7237      46.7237 
  396000    93.082833   -7623.1219   -7115.6435   -654.95143     102002.7      46.7237      46.7237      46.7237 
  397000    93.711181   -7612.6137   -7101.7096   -488.10672     102002.7      46.7237      46.7237      46.7237 
  398000     90.43129   -7616.1398   -7123.1173    -611.2632     102002.7      46.7237      46.7237      46.7237 
  399000    86.679083   -7624.4122   -7151.8464   -662.98605     102002.7      46.7237      46.7237      46.7237 
  400000     90.29112   -7604.8236   -7112.5653   -538.06109     102002.7      46.7237      46.7237      46.7237 
  401000    87.438211   -7624.4687   -7147.7642   -467.88354     102002.7      46.7237      46.7237      46.7237 
  402000     90.89099   -7614.1932   -7118.6645   -533.94979     102002.7      46.7237      46.7237      46.7237 
  403000    91.494296   -7613.5411   -7114.7232   -433.07354     102002.7      46.7237      46.7237      46.7237 
  404000    90.501336   -7621.2038   -7127.7994   -637.34842     102002.7      46.7237      46.7237      46.7237 
  405000    91.332454   -7612.9526    -7115.017   -811.11777     102002.7      46.7237      46.7237      46.7237 
  406000    92.624549    -7633.219   -7128.2391   -747.06547     102002.7      46.7237      46.7237      46.7237 
  407000    92.364123   -7622.4148   -7118.8547   -885.47421     102002.7      46.7237      46.7237      46.7237 
  408000    89.136835   -7634.7966   -7148.8313   -619.45042     102002.7      46.7237      46.7237      46.7237 
  409000       93.862   -7618.6235   -7106.8971   -585.42008     102002.7      46.7237      46.7237      46.7237 
  410000    93.924524   -7632.0096   -7119.9424   -528.13362     102002.7      46.7237      46.7237      46.7237 
  411000    93.430198   -7607.4052   -7098.0329   -554.33923     102002.7      46.7237      46.7237      46.7237 
  412000    88.038192   -7607.3876    -7127.412    -542.8982     102002.7      46.7237      46.7237      46.7237 
  413000     91.70471   -7619.8633   -7119.8982   -593.82227     102002.7      46.7237      46.7237      46.7237 
  414000    88.704556   -7617.5408   -7133.9323   -603.66928     102002.7      46.7237      46.7237      46.7237 
  415000    92.927575   -7627.6289   -7120.9969   -691.12997     102002.7      46.7237      46.7237      46.7237 
  416000    94.885727   -7617.8563   -7100.5487   -851.40121     102002.7      46.7237      46.7237      46.7237 
  417000    91.052906   -7606.7036   -7110.2921   -769.81687     102002.7      46.7237      46.7237      46.7237 
  418000    90.431821    -7619.854   -7126.8286   -718.06261     102002.7      46.7237      46.7237      46.7237 
  419000    92.438857   -7632.5424   -7128.5749   -723.13735     102002.7      46.7237      46.7237      46.7237 
  420000    92.587829    -7602.531   -7097.7513   -634.09247     102002.7      46.7237      46.7237      46.7237 
  421000    89.906629   -7623.9303   -7133.7682   -503.61434     102002.7      46.7237      46.7237      46.7237 
  422000    92.665719   -7612.7092   -7107.5048   -477.24867     102002.7      46.7237      46.7237      46.7237 
  423000     91.70853   -7635.0729   -7135.0871   -397.75027     102002.7      46.7237      46.7237      46.7237 
  424000    93.372142   -7617.0314   -7107.9756   -376.53653     102002.7      46.7237      46.7237      46.7237 
  425000    91.404806   -7618.6002   -7120.2702   -433.99498     102002.7      46.7237      46.7237      46.7237 
  426000    89.193103   -7610.2333   -7123.9612   -673.53589     102002.7      46.7237      46.7237      46.7237 
  427000    92.649439   -7634.7124   -7129.5968   -488.49684     102002.7      46.7237      46.7237      46.7237 
  428000    89.514718   -7610.6394   -7122.6139   -768.98996     102002.7      46.7237      46.7237      46.7237 
  429000    91.942659   -7621.8166   -7120.5543   -575.65446     102002.7      46.7237      46.7237      46.7237 
  430000    89.311409   -7606.6475   -7119.7305   -675.89469     102002.7      46.7237      46.7237      46.7237 
  431000    91.852536   -7618.8333   -7118.0623    -670.5269     102002.7      46.7237      46.7237      46.7237 
  432000     89.82887   -7635.9411   -7146.2029   -967.22539     102002.7      46.7237      46.7237      46.7237 
  433000    91.329031   -7615.6184   -7117.7015    -946.9622     102002.7      46.7237      46.7237      46.7237 
  434000    90.161379   -7620.9421   -7129.3911   -546.29695     102002.7      46.7237      46.7237      46.7237 
  435000    90.968891    -7624.212   -7128.2586   -695.00343     102002.7      46.7237      46.7237      46.7237 
  436000    94.502459   -7612.4202   -7097.2021   -703.94246     102002.7      46.7237      46.7237      46.7237 
  437000    89.590776   -7633.0653   -7144.6252   -638.86597     102002.7      46.7237      46.7237      46.7237 
  438000    90.727657   -7614.1725   -7119.5342   -619.95139     102002.7      46.7237      46.7237      46.7237 
  439000    91.271071   -7617.7304   -7120.1295   -782.34325     102002.7      46.7237      46.7237      46.7237 
  440000    88.550584   -7627.4591   -7144.6901    -717.2565     102002.7      46.7237      46.7237      46.7237 
  441000     89.29955    -7608.578   -7121.7256   -816.53542     102002.7      46.7237      46.7237      46.7237 
  442000    91.664219   -7615.3611   -7115.6168   -619.90442     102002.7      46.7237      46.7237      46.7237 
  443000    94.206397   -7622.5026   -7108.8986   -634.37797     102002.7      46.7237      46.7237      46.7237 
  444000    90.889151   -7612.4462   -7116.9275   -648.46063     102002.7      46.7237      46.7237      46.7237 
  445000    92.801969   -7619.5808   -7113.6336    -751.3511     102002.7      46.7237      46.7237      46.7237 
  446000    91.427939   -7614.9302    -7116.474   -574.13025     102002.7      46.7237      46.7237      46.7237 
  447000    90.256908    -7611.602   -7119.5302   -590.99782     102002.7      46.7237      46.7237      46.7237 
  448000    89.870942   -7616.3275     -7126.36   -492.65436     102002.7      46.7237      46.7237      46.7237 
  449000    89.696916   -7633.9703   -7144.9516   -578.80469     102002.7      46.7237      46.7237      46.7237 
  450000    89.315085    -7620.507   -7133.5699    -455.7082     102002.7      46.7237      46.7237      46.7237 
  451000    91.272447   -7601.7434    -7104.135   -572.39922     102002.7      46.7237      46.7237      46.7237 
  452000    88.215722   -7601.7823   -7120.8389   -711.57936     102002.7      46.7237      46.7237      46.7237 
  453000    91.016215   -7608.0996   -7111.8882   -461.75795     102002.7      46.7237      46.7237      46.7237 
  454000    92.486352   -7622.0013   -7117.7748   -793.69015     102002.7      46.7237      46.7237      46.7237 
  455000    88.420424   -7628.5567   -7146.4972   -575.59013     102002.7      46.7237      46.7237      46.7237 
  456000    92.596825   -7610.2963   -7105.4675   -620.77806     102002.7      46.7237      46.7237      46.7237 
  457000    89.927285   -7616.8065   -7126.5318   -839.41412     102002.7      46.7237      46.7237      46.7237 
  458000    89.595731   -7635.1865   -7146.7194   -479.39055     102002.7      46.7237      46.7237      46.7237 
  459000    90.957795   -7613.2973   -7117.4043   -631.70066     102002.7      46.7237      46.7237      46.7237 
  460000    88.545093   -7622.4769   -7139.7378   -568.88249     102002.7      46.7237      46.7237      46.7237 
  461000    94.317115   -7618.9689   -7104.7613   -572.81098     102002.7      46.7237      46.7237      46.7237 
  462000     91.06254   -7619.7706   -7123.3066   -681.09156     102002.7      46.7237      46.7237      46.7237 
  463000    91.892282   -7610.0345   -7109.0469   -491.32362     102002.7      46.7237      46.7237      46.7237 
  464000     93.78021    -7611.811   -7100.5305    -732.5256     102002.7      46.7237      46.7237      46.7237 
  465000    89.824025   -7626.0021   -7136.2904   -365.96769     102002.7      46.7237      46.7237      46.7237 
  466000    91.955902    -7602.038   -7100.7035   -547.58228     102002.7      46.7237      46.7237      46.7237 
  467000    91.140435    -7612.545   -7115.6563   -478.78081     102002.7      46.7237      46.7237      46.7237 
  468000    90.262226   -7614.4778    -7122.377   -529.34679     102002.7      46.7237      46.7237      46.7237 
  469000    89.822966   -7626.3845   -7136.6785   -867.17269     102002.7      46.7237      46.7237      46.7237 
  470000    91.556577   -7633.8601   -7134.7026   -711.09186     102002.7      46.7237      46.7237      46.7237 
  471000    88.768649   -7630.2363   -7146.2784   -889.25326     102002.7      46.7237      46.7237      46.7237 
  472000    89.218672   -7619.3278   -7132.9164   -775.00347     102002.7      46.7237      46.7237      46.7237 
  473000    89.978241   -7613.2913   -7122.7387   -777.37708     102002.7      46.7237      46.7237      46.7237 
  474000    91.333387   -7612.9867   -7115.0461    -648.8109     102002.7      46.7237      46.7237      46.7237 
  475000    90.018269   -7612.2942   -7121.5234   -600.67547     102002.7      46.7237      46.7237      46.7237 
  476000    87.211523   -7620.8344   -7145.3657   -993.01504     102002.7      46.7237      46.7237      46.7237 
  477000    91.597001   -7606.7505   -7107.3727   -847.02102     102002.7      46.7237      46.7237      46.7237 
  478000    91.582554   -7620.6682   -7121.3691    -564.6814     102002.7      46.7237      46.7237      46.7237 
  479000    92.539851   -7623.3862    -7118.868   -723.18037     102002.7      46.7237      46.7237      46.7237 
  480000    92.587889   -7616.4198   -7111.6398   -424.96512     102002.7      46.7237      46.7237      46.7237 
  481000    91.759316   -7618.6957   -7118.4329   -786.52291     102002.7      46.7237      46.7237      46.7237 
  482000     91.29374   -7635.7324   -7138.0079   -708.76345     102002.7      46.7237      46.7237      46.7237 
  483000    90.600768   -7632.6145   -7138.6681   -605.88137     102002.7      46.7237      46.7237      46.7237 
  484000    94.979049   -7625.8783   -7108.0619   -645.10436     102002.7      46.7237      46.7237      46.7237 
  485000    90.565387   -7630.2285    -7136.475   -706.56874     102002.7      46.7237      46.7237      46.7237 
  486000    92.802202   -7614.8344    -7108.886   -845.32331     102002.7      46.7237      46.7237      46.7237 
  487000    89.181153   -7611.3653   -7125.1584   -548.36417     102002.7      46.7237      46.7237      46.7237 
  488000    92.191668   -7616.5251   -7113.9052   -553.79513     102002.7      46.7237      46.7237      46.7237 
  489000    91.028172   -7604.3577   -7108.0811   -718.96662     102002.7      46.7237      46.7237      46.7237 
  490000    90.885377   -7629.3712    -7133.873   -619.96001     102002.7      46.7237      46.7237      46.7237 
  491000    92.503297   -7595.6121   -7091.2932   -956.71788     102002.7      46.7237      46.7237      46.7237 
  492000    91.646231   -7639.5626   -7139.9164    -528.2488     102002.7      46.7237      46.7237      46.7237 
  493000    91.608237   -7622.3055   -7122.8664   -577.53062     102002.7      46.7237      46.7237      46.7237 
  494000    91.676263   -7616.3987   -7116.5887    -633.8832     102002.7      46.7237      46.7237      46.7237 
  495000    91.272837   -7634.9467   -7137.3362   -543.08202     102002.7      46.7237      46.7237      46.7237 
  496000    91.164064   -7614.2997   -7117.2822    -470.9328     102002.7      46.7237      46.7237      46.7237 
  497000    93.422006   -7599.7721   -7090.4445    -484.1635     102002.7      46.7237      46.7237      46.7237 
  498000    90.530143   -7621.5329   -7127.9715   -362.80386     102002.7      46.7237      46.7237      46.7237 
  499000    93.705842   -7614.1605   -7103.2854   -775.98372     102002.7      46.7237      46.7237      46.7237 
  500000    92.704655   -7639.2204   -7133.8038   -707.72814     102002.7      46.7237      46.7237      46.7237 
  500502     92.36643   -7628.8994   -7125.3267   -687.20093     102002.7      46.7237      46.7237      46.7237 
Loop time of 1287.55 on 16 procs for 500000 steps with 1830 atoms

Performance: 33.552 ns/day, 0.715 hours/ns, 388.335 timesteps/s
99.8% CPU use with 16 MPI tasks x no OpenMP threads

MPI task timing breakdown:
Section |  min time  |  avg time  |  max time  |%varavg| %total
---------------------------------------------------------------
Pair    | 529.16     | 707.91     | 898.56     | 410.4 | 54.98
Bond    | 160.25     | 174.2      | 190.25     |  57.6 | 13.53
Neigh   | 4.7031     | 4.7165     | 4.7382     |   0.5 |  0.37
Comm    | 196.6      | 386.89     | 556.84     | 539.5 | 30.05
Output  | 0.02014    | 0.020666   | 0.0237     |   0.6 |  0.00
Modify  | 7.4264     | 8.5637     | 9.73       |  27.1 |  0.67
Other   |            | 5.25       |            |       |  0.41

Nlocal:    114.375 ave 154 max 78 min
Histogram: 2 1 1 3 1 2 3 2 0 1
Nghost:    2312.31 ave 2356 max 2269 min
Histogram: 1 1 3 1 2 3 1 1 1 2
Neighs:    11460.6 ave 15940 max 6814 min
Histogram: 2 1 3 1 0 3 0 3 0 3

Total # of neighbors = 183369
Ave neighs/atom = 100.202
Ave special neighs/atom = 6.29508
Neighbor list builds = 3654
Dangerous builds = 0
Neighbor list info ...
  update every 1 steps, delay 10 steps, check yes
  max neighbors/atom: 2000, page size: 100000
  master list distance cutoff = 16
  ghost atom cutoff = 16
  binsize = 8, bins = 6 6 6
  3 neighbor lists, perpetual/occasional/extra = 3 0 0
  (1) pair buck6d/coul/gauss/dsf, perpetual, skip from (3)
      attributes: half, newton on
      pair build: skip
      stencil: none
      bin: none
  (2) pair lj/cut, perpetual, skip from (3)
      attributes: half, newton on
      pair build: skip
      stencil: none
      bin: none
  (3) neighbor class addition, perpetual
      attributes: half, newton on
      pair build: half/bin/newton
      stencil: half/bin/3d/newton
      bin: standard
Setting up Verlet run ...
  Unit style    : real
  Current step  : 500502
  Time step     : 1
WARNING: Inconsistent image flags (../domain.cpp:786)
Per MPI rank memory allocation (min/avg/max) = 23.07 | 23.31 | 23.34 Mbytes
Step Time TotEng KinEng PotEng E_mol E_pair Temp Pxx Pyy Pzz Pxy Pxz Pyz Cella Cellb Cellc CellAlpha CellBeta CellGamma Volume Press 
  500502       500000   -7125.3267    503.57269   -7628.8994     4181.836   -11810.735     92.36643   -727.22245   -648.59353   -685.78682    64.555713     58.31643     116.7888      46.7237      46.7237      46.7237           90           90           90     102002.7   -687.20093 
  501000       500498   -7126.5513    490.58316   -7617.1344    4196.3073   -11813.442    89.983861   -360.81682   -480.07019   -629.86258   -269.22035    211.66876    56.471276      46.7237      46.7237      46.7237           90           90           90     102002.7   -490.24986 
  502000       501498   -7128.2567    492.23162   -7620.4884     4210.548   -11831.036    90.286226   -685.46138   -1094.6088   -800.45958   -152.64045    136.80265   -116.47099      46.7237      46.7237      46.7237           90           90           90     102002.7   -860.17657 
  503000       502498   -7106.7626    522.84267   -7629.6053    4173.2952     -11802.9    95.900974    -979.8822   -480.91145   -711.32283   -77.603938   -31.787801    57.878294      46.7237      46.7237      46.7237           90           90           90     102002.7   -724.03883 
  504000       503498   -7129.3657    502.20115   -7631.5668     4159.313    -11790.88     92.11486   -741.46029   -571.07172   -371.82096   -186.70406   -152.26288    6.2865154      46.7237      46.7237      46.7237           90           90           90     102002.7   -561.45099 
  505000       504498   -7104.1549    504.29685   -7608.4518    4200.9152   -11809.367    92.499258   -714.55476   -671.52579   -290.64705    52.664987    83.740087   -136.14515      46.7237      46.7237      46.7237           90           90           90     102002.7    -558.9092 
  506000       505498   -7108.0809      488.218   -7596.2989    4231.7263   -11828.025     89.55004   -1507.2998   -376.46243   -674.16754    63.510621    99.071998   -61.028335      46.7237      46.7237      46.7237           90           90           90     102002.7   -852.64324 
  507000       506498   -7114.2889    495.25508    -7609.544    4193.9736   -11803.518    90.840796   -518.42475   -910.22086   -772.54443    98.599264    12.382916    55.194257      46.7237      46.7237      46.7237           90           90           90     102002.7   -733.73001 
  508000       507498   -7114.8484    514.96119   -7629.8096    4175.8372   -11805.647    94.455335   -915.10049   -735.14566   -673.77156   -20.583559    35.542606    -7.351291      46.7237      46.7237      46.7237           90           90           90     102002.7   -774.67257 
  509000       508498    -7110.395    511.28446   -7621.6794    4187.4883   -11809.168    93.780941    -1031.655    -724.7541   -647.11528   -189.55497     26.84965    93.917719      46.7237      46.7237      46.7237           90           90           90     102002.7   -801.17479 
  510000       509498   -7137.4719    485.50711    -7622.979    4183.4527   -11806.432    89.052802   -635.90904   -930.60067   -1269.2645   -97.877093    42.588723   -255.81124      46.7237      46.7237      46.7237           90           90           90     102002.7   -945.25807 
  511000       510498   -7128.6439    488.48906   -7617.1329    4201.6683   -11818.801    89.599757   -989.74432   -909.64227   -967.58942   -95.523906   -105.96477   -56.206384      46.7237      46.7237      46.7237           90           90           90     102002.7   -955.65867 
  512000       511498   -7109.6101    512.47173   -7622.0818    4180.3666   -11802.448    93.998712   -804.62169   -938.40587   -976.70625   -206.80697   -36.514886    -34.00982      46.7237      46.7237      46.7237           90           90           90     102002.7   -906.57794 
  513000       512498   -7118.1901    492.38297    -7610.573    4194.0166    -11804.59    90.313988   -952.41067    -65.32164   -542.43571    103.38079   -120.89601    110.19229      46.7237      46.7237      46.7237           90           90           90     102002.7   -520.05601 
  514000       513498   -7137.7624    494.69897   -7632.4614    4185.0222   -11817.484    90.738793   -1053.9104   -497.76681    -448.5295    135.99219   -28.162834   -27.864878      46.7237      46.7237      46.7237           90           90           90     102002.7   -666.73558 
  515000       514498   -7106.3094    503.00586   -7609.3152    4223.1571   -11832.472    92.262461   -1192.4522   -1130.8312   -795.27797    -168.3459   -184.90565    109.62162      46.7237      46.7237      46.7237           90           90           90     102002.7   -1039.5204 
  516000       515498   -7111.6364    505.41191   -7617.0483    4195.0914    -11812.14    92.703785   -821.75514   -668.16486   -721.69794    10.060816    113.58148    104.77283      46.7237      46.7237      46.7237           90           90           90     102002.7   -737.20598 
  517000       516498   -7135.7451    496.96498   -7632.7101    4178.8792   -11811.589    91.154429   -697.52232   -1049.5593   -748.13969    -135.8764   -180.80521   -63.311518      46.7237      46.7237      46.7237           90           90           90     102002.7   -831.74044 
  518000       517498   -7132.9966    498.35558   -7631.3521    4180.5076    -11811.86    91.409497    -860.8056   -993.16208   -713.37442   -14.927457   -78.841037   -10.865313      46.7237      46.7237      46.7237           90           90           90     102002.7    -855.7807 
  519000       518498   -7146.9722    478.75502   -7625.7272    4187.8914   -11813.619    87.814318   -1009.3704   -860.50978   -729.37646    44.725913    46.241882    28.111977      46.7237      46.7237      46.7237           90           90           90     102002.7   -866.41888 
  520000       519498   -7098.7961    509.07183   -7607.8679    4196.7525    -11804.62    93.375096   -957.10222   -954.66159    -495.4593   -301.55982    151.47557     -39.8778      46.7237      46.7237      46.7237           90           90           90     102002.7    -802.4077 
  521000       520498   -7120.4116    494.93013   -7615.3417    4195.8895   -11811.231    90.781194   -789.45811   -896.68176    -919.7765   -47.072711   -49.630714    9.8744145      46.7237      46.7237      46.7237           90           90           90     102002.7   -868.63879 
  522000       521498   -7131.6104    489.63734   -7621.2477    4193.3343   -11814.582    89.810377   -778.12463   -555.07574    -776.8553   -50.232912    9.2276301     45.56865      46.7237      46.7237      46.7237           90           90           90     102002.7   -703.35189 
  523000       522498   -7116.6669    510.02044   -7626.6873     4197.275   -11823.962    93.549091   -1407.6406   -1174.8016   -536.04557    59.461114    136.28376    264.40948      46.7237      46.7237      46.7237           90           90           90     102002.7   -1039.4959 
  524000       523498   -7101.2179    508.44014   -7609.6581    4199.5219    -11809.18    93.259229   -581.55105   -604.78368   -617.63699    21.771886    178.49122    110.70921      46.7237      46.7237      46.7237           90           90           90     102002.7   -601.32391 
  525000       524498   -7134.2461    487.06799   -7621.3141    4199.8132   -11821.127    89.339101   -416.64792   -809.17995   -609.63202   -127.29126    -82.19846   -89.088356      46.7237      46.7237      46.7237           90           90           90     102002.7   -611.81996 
  526000       525498   -7135.9222    485.07381    -7620.996    4183.5577   -11804.554    88.973325   -738.54267   -903.80861   -883.27847    202.12624   -231.04174   -78.920195      46.7237      46.7237      46.7237           90           90           90     102002.7   -841.87658 
  527000       526498   -7118.9733    503.90612   -7622.8794    4188.2819   -11811.161    92.427589   -227.70735   -909.33172    -125.1709   -261.22047   -62.510827   -201.92366      46.7237      46.7237      46.7237           90           90           90     102002.7   -420.73666 
  528000       527498   -7139.1275    485.02548   -7624.1529    4205.9584   -11830.111    88.964459   -358.94019   -963.93816   -578.68836    14.626003    113.49385   -38.951949      46.7237      46.7237      46.7237           90           90           90     102002.7   -633.85557 
  529000       528498   -7137.3245    488.83706   -7626.1615    4170.0454   -11796.207    89.663589   -919.09437   -289.46714   -493.42982    111.59699    -35.51097    240.00228      46.7237      46.7237      46.7237           90           90           90     102002.7   -567.33044 
  530000       529498   -7119.5265     512.7011   -7632.2276    4200.8887   -11833.116    94.040785   -930.22418   -393.86927   -634.60126   -81.498394   -11.891145    137.87444      46.7237      46.7237      46.7237           90           90           90     102002.7   -652.89823 
  531000       530498   -7099.4095    517.28624   -7616.6957    4199.3991   -11816.095      94.8818   -557.94646   -777.81902   -720.30337   -33.423047    79.794624   -14.493695      46.7237      46.7237      46.7237           90           90           90     102002.7   -685.35629 
  532000       531498   -7129.5704    492.06446   -7621.6349    4192.3586   -11813.993    90.255566    -651.1636   -1239.3911    -930.3795    96.829225   -252.50395     74.28839      46.7237      46.7237      46.7237           90           90           90     102002.7   -940.31141 
  533000       532498    -7111.932    504.83881   -7616.7708    4191.1167   -11807.887    92.598665   -308.37047   -722.65412   -609.69687    39.399359    137.77896    80.213226      46.7237      46.7237      46.7237           90           90           90     102002.7   -546.90715 
  534000       533498   -7128.1636     494.4291   -7622.5927     4189.771   -11812.364    90.689293   -849.06878   -451.10057    -321.9869    92.346363   -37.717051    157.69205      46.7237      46.7237      46.7237           90           90           90     102002.7   -540.71875 
  535000       534498   -7142.3989    471.74484   -7614.1437      4193.83   -11807.974    86.528495   -526.87751   -934.51545   -609.14622    76.099363    42.798699   -75.009567      46.7237      46.7237      46.7237           90           90           90     102002.7   -690.17973 
  536000       535498   -7125.2512     482.7724   -7608.0236    4209.6071   -11817.631    88.551194   -772.38023   -412.46379   -395.88657   -121.68945    80.686298   -88.186121      46.7237      46.7237      46.7237           90           90           90     102002.7    -526.9102 
  537000       536498   -7124.6694    502.74292   -7627.4124    4178.0077    -11805.42    92.214232   -834.30312   -497.84844   -999.02926    154.31266   -56.108765   -23.871578      46.7237      46.7237      46.7237           90           90           90     102002.7   -777.06027 
  538000       537498   -7104.7626    503.01143    -7607.774    4187.4368   -11795.211    92.263483   -626.64126   -949.52425    -678.9834   -69.498024   -222.87826    205.52285      46.7237      46.7237      46.7237           90           90           90     102002.7    -751.7163 
  539000       538498   -7119.1362    490.80944   -7609.9456    4201.6321   -11811.578    90.025368   -498.49153   -570.08375   -818.82323    58.870327     14.48854    9.4987419      46.7237      46.7237      46.7237           90           90           90     102002.7   -629.13284 
  540000       539498   -7105.9412    517.02478    -7622.966    4186.6384   -11809.604    94.833844   -1005.0121    -1318.071   -367.41591      97.8127   -10.737276    46.673584      46.7237      46.7237      46.7237           90           90           90     102002.7     -896.833 
  541000       540498   -7125.3756     486.4819   -7611.8575     4193.636   -11805.494      89.2316   -906.47141   -891.70007   -365.60223   -22.220624   -50.334331    23.499799      46.7237      46.7237      46.7237           90           90           90     102002.7    -721.2579 
  542000       541498   -7150.3251    491.84986   -7642.1749    4172.1295   -11814.304    90.216203   -859.35697   -748.54705   -1213.0928    176.02425   -152.37809   -196.30618      46.7237      46.7237      46.7237           90           90           90     102002.7   -940.33226 
  543000       542498   -7126.1458    500.72626   -7626.8721    4191.9998   -11818.872    91.844332   -665.00395    -742.8279   -575.49586   -13.867948   -12.705158   -83.496115      46.7237      46.7237      46.7237           90           90           90     102002.7   -661.10924 
  544000       543498   -7106.0813    505.65878   -7611.7401    4213.1626   -11824.903    92.749066   -639.97079   -873.70596   -942.39015    108.24149   -17.984498    238.30756      46.7237      46.7237      46.7237           90           90           90     102002.7   -818.68897 
  545000       544498   -7114.9173    493.54674    -7608.464    4193.0096   -11801.474    90.527449   -605.11122   -399.20099   -937.67093   -20.813378    -42.10228    102.86183      46.7237      46.7237      46.7237           90           90           90     102002.7   -647.32771 
  546000       545498   -7143.9517    486.93545   -7630.8872    4177.5844   -11808.472    89.314791   -349.47961   -561.93808   -843.03036    95.733678   -47.471221    67.650792      46.7237      46.7237      46.7237           90           90           90     102002.7   -584.81602 
  547000       546498    -7125.248    495.29021   -7620.5383    4198.3608   -11818.899     90.84724   -769.50376   -250.97233   -568.45144   -94.896931    -62.31582   -44.197339      46.7237      46.7237      46.7237           90           90           90     102002.7   -529.64251 
  548000       547498   -7117.8885    504.92624   -7622.8148     4185.917   -11808.732    92.614703   -627.26386     -679.227   -610.59548    43.043611   -32.952248   -118.46536      46.7237      46.7237      46.7237           90           90           90     102002.7   -639.02878 
  549000       548498   -7131.9286    486.87289   -7618.8015    4196.5348   -11815.336    89.303315   -656.04305   -524.56453   -408.01752   -104.78526   -63.523871    87.779071      46.7237      46.7237      46.7237           90           90           90     102002.7    -529.5417 
  550000       549498   -7111.9442    508.12864   -7620.0728    4182.4278   -11802.501    93.202093   -778.59744   -701.18637   -874.18773   -90.444829    49.978136    167.40102      46.7237      46.7237      46.7237           90           90           90     102002.7   -784.65718 
  551000       550498   -7118.3892    488.85753   -7607.2467    4206.9984   -11814.245    89.667342   -627.41933   -414.36889   -446.25228    155.62688   -111.77281    90.642614      46.7237      46.7237      46.7237           90           90           90     102002.7    -496.0135 
  552000       551498   -7102.7778    499.53426   -7602.3121    4208.3445   -11810.657    91.625694   -403.95087   -895.06262   -598.24356   -86.781386   -172.98435   -63.573535      46.7237      46.7237      46.7237           90           90           90     102002.7   -632.41902 
  553000       552498    -7152.169    464.78733   -7616.9564     4208.256   -11825.212    85.252334   -814.58981   -560.85293   -1041.9396   -79.115381    44.067665    123.40551      46.7237      46.7237      46.7237           90           90           90     102002.7    -805.7941 
  554000       553498   -7117.0439    500.06347   -7617.1073    4195.4638   -11812.571    91.722762   -941.61315   -543.65038   -832.27105    148.88624   -22.441892   -59.054642      46.7237      46.7237      46.7237           90           90           90     102002.7   -772.51153 
  555000       554498   -7108.4229    503.99771   -7612.4207    4195.4014   -11807.822    92.444389   -812.66577   -1033.9354   -718.83085    20.515074   -19.409263    103.60467      46.7237      46.7237      46.7237           90           90           90     102002.7     -855.144 
[...]
  936000       935498   -7123.0455    499.97858   -7623.0241    4196.7398   -11819.764    91.707192   -767.10006   -472.98061   -413.67677   -227.89379   -37.658192   -167.11841      46.7237      46.7237      46.7237           90           90           90     102002.7   -551.25248 
  937000       936498   -7117.8976    507.62308   -7625.5206    4189.2007   -11814.721    93.109363   -587.46843   -449.60875   -936.69353   -57.318591   -108.54757     102.8072      46.7237      46.7237      46.7237           90           90           90     102002.7   -657.92357 
  938000       937498   -7140.4908    493.89022    -7634.381    4173.1012   -11807.482    90.590451   -662.88218   -376.26016   -649.95162    180.58162    88.789872   -90.811049      46.7237      46.7237      46.7237           90           90           90     102002.7   -563.03132 
  939000       938498   -7125.3015    495.00605   -7620.3076    4210.7808   -11831.088    90.795119   -587.09819   -268.44157   -606.50879    16.995843   -71.105924    69.198215      46.7237      46.7237      46.7237           90           90           90     102002.7   -487.34951 
  940000       939498   -7142.3022    491.58212   -7633.8843    4177.0789   -11810.963    90.167093   -494.53956   -656.89354   -846.52236    120.54666   -30.630805    102.31338      46.7237      46.7237      46.7237           90           90           90     102002.7   -665.98515 
  941000       940498   -7124.4088    490.55204   -7614.9608     4206.963   -11821.924    89.978155   -404.90948   -538.61639   -648.22353    141.00873   -131.85572   -40.600437      46.7237      46.7237      46.7237           90           90           90     102002.7   -530.58313 
  942000       941498   -7107.8948    489.03813    -7596.933    4220.3189   -11817.252    89.700469   -1021.6813   -677.43027   -739.72185   -70.221904    -40.37549   -163.91321      46.7237      46.7237      46.7237           90           90           90     102002.7   -812.94447 
  943000       942498   -7132.9824    509.23868   -7642.2211    4175.1022   -11817.323      93.4057   -840.06779   -324.37975   -987.53583    -58.80936     122.6686   0.37206168      46.7237      46.7237      46.7237           90           90           90     102002.7   -717.32779 
  944000       943498   -7116.0699    504.11175   -7620.1816    4207.5026   -11827.684    92.465306    -637.0368    -1097.975   -318.80763   -76.592049   -47.462939   -71.420737      46.7237      46.7237      46.7237           90           90           90     102002.7   -684.60647 
  945000       944498   -7142.3627    491.23533    -7633.598     4172.335   -11805.933    90.103484   -575.75326   -711.26682    -566.6253   -84.641289    46.091356    112.53302      46.7237      46.7237      46.7237           90           90           90     102002.7   -617.88179 
  946000       945498   -7130.9689    492.64266   -7623.6116    4200.3914   -11824.003     90.36162   -493.54676   -857.79614   -719.02876   -37.173987   -24.466142   -55.430562      46.7237      46.7237      46.7237           90           90           90     102002.7   -690.12389 
  947000       946498   -7113.6659    494.19325   -7607.8592    4216.3509    -11824.21    90.646034   -1122.4041   -950.13727   -649.86743    214.46399   -122.42848   -38.044723      46.7237      46.7237      46.7237           90           90           90     102002.7    -907.4696 
  948000       947498   -7141.0428    492.19416   -7633.2369    4180.9272   -11814.164    90.279354    -390.1832   -589.69793   -845.93522    31.966528    146.55957   -103.15469      46.7237      46.7237      46.7237           90           90           90     102002.7   -608.60545 
  949000       948498   -7117.2865    488.96602   -7606.2525    4210.0203   -11816.273    89.687243   -608.81713   -405.01488   -959.95395   -2.3249364   -63.257163   -39.937854      46.7237      46.7237      46.7237           90           90           90     102002.7   -657.92865 
  950000       949498   -7114.1339    502.45781   -7616.5918    4201.7111   -11818.303    92.161938   -784.40573   -542.12414   -190.45808   -250.65835    58.332906     73.20703      46.7237      46.7237      46.7237           90           90           90     102002.7   -505.66265 
  951000       950498   -7148.0552     481.4799   -7629.5351    4189.1124   -11818.647    88.314123   -652.85541   -341.16458   -540.17021    51.360013    83.333852    106.74993      46.7237      46.7237      46.7237           90           90           90     102002.7   -511.39673 
  952000       951498   -7109.3211    505.05547   -7614.3766    4208.7356   -11823.112    92.638406   -732.63341   -445.11985   -549.51955   -62.713154    219.61744   -45.161165      46.7237      46.7237      46.7237           90           90           90     102002.7    -575.7576 
  953000       952498    -7137.467    499.31214   -7636.7792    4175.8057   -11812.585    91.584951   -310.36536   -412.61175   -180.52056    18.117712    41.082345    28.366666      46.7237      46.7237      46.7237           90           90           90     102002.7   -301.16589 
  954000       953498   -7094.3504    517.42325   -7611.7736    4192.5655   -11804.339    94.906932   -382.53678   -383.57485   -1126.4785    49.804602    183.84949     115.7615      46.7237      46.7237      46.7237           90           90           90     102002.7   -630.86338 
  955000       954498   -7127.6764    482.26447   -7609.9409    4198.0059   -11807.947    88.458029   -403.08647   -789.11693   -514.71251   -131.86377    143.84307    -35.55357      46.7237      46.7237      46.7237           90           90           90     102002.7   -568.97197 
  956000       955498   -7152.4296     487.0928   -7639.5224    4178.4752   -11817.998    89.343653   -800.59252   -726.62401   -787.44625    114.63631   -29.498981    2.4649692      46.7237      46.7237      46.7237           90           90           90     102002.7   -771.55426 
  957000       956498   -7117.5273    497.20347   -7614.7307    4195.4935   -11810.224    91.198175   -615.62139   -492.03329   -798.01941    250.36664   -49.368682    56.076212      46.7237      46.7237      46.7237           90           90           90     102002.7    -635.2247 
  958000       957498   -7113.5887    500.73985   -7614.3286    4191.6162   -11805.945    91.846824   -828.02853   -531.68373    -533.0553    123.41823    119.02962   -79.308824      46.7237      46.7237      46.7237           90           90           90     102002.7   -630.92252 
  959000       958498   -7113.0009    490.11683   -7603.1178    4199.9034   -11803.021    89.898326   -982.41155   -651.41454   -207.57279   -24.506192    172.73437    46.499421      46.7237      46.7237      46.7237           90           90           90     102002.7   -613.79962 
  960000       959498   -7129.1775    501.33871   -7630.5162    4168.3478   -11798.864    91.956669   -538.89972   -1000.3374   -945.86366    -102.3382   -263.23731    11.131371      46.7237      46.7237      46.7237           90           90           90     102002.7   -828.36693 
  961000       960498   -7107.8632    509.25149   -7617.1147    4196.1893   -11813.304    93.408049   -1142.0554   -814.02131   -479.47762    77.612681   -129.46776   -25.057026      46.7237      46.7237      46.7237           90           90           90     102002.7   -811.85143 
  962000       961498   -7132.5367    499.28311   -7631.8198    4172.7081   -11804.528    91.579626   -521.39649   -629.15023   -819.12511    194.79538    211.58223   -10.517096      46.7237      46.7237      46.7237           90           90           90     102002.7   -656.55728 
  963000       962498   -7127.5571    488.69746   -7616.2545    4186.9347   -11803.189    89.637983   -514.86611   -371.53494    -750.3646    92.250801    85.691379    -182.5865      46.7237      46.7237      46.7237           90           90           90     102002.7   -545.58855 
  964000       963498   -7116.6319    502.80874   -7619.4407    4202.2843   -11821.725    92.226306   -292.47314   -682.41472   -548.54747   -29.676366     140.5947   -78.304851      46.7237      46.7237      46.7237           90           90           90     102002.7   -507.81178 
  965000       964498   -7121.0062    509.62995   -7630.6361    4188.9585   -11819.595    93.477466   -629.39768   -692.95087   -455.82784    90.127168   -84.870169   -36.243128      46.7237      46.7237      46.7237           90           90           90     102002.7   -592.72546 
  966000       965498   -7108.8753    506.79518   -7615.6704     4183.951   -11799.621    92.957508    -599.5328   -947.92945   -711.90413     177.6079   -3.5968198   -227.96819      46.7237      46.7237      46.7237           90           90           90     102002.7   -753.12213 
  967000       966498   -7126.5837    480.79546   -7607.3792    4202.7113    -11810.09     88.18858   -644.68723   -745.78485   -914.29367   -114.28711    135.52815    6.1349279      46.7237      46.7237      46.7237           90           90           90     102002.7   -768.25525 
  968000       967498    -7125.842    493.20285   -7619.0449    4190.2368   -11809.282    90.464372    -1067.647   -956.00206    -995.3903    81.990204    135.22337   -37.759622      46.7237      46.7237      46.7237           90           90           90     102002.7   -1006.3465 
  969000       968498   -7113.0772    505.03722   -7618.1144    4196.2377   -11814.352    92.635058   -810.01017   -686.08741   -792.52966   -113.39829    189.58924    163.31327      46.7237      46.7237      46.7237           90           90           90     102002.7   -762.87575 
  970000       969498   -7121.5368     491.5518   -7613.0886    4200.0323   -11813.121    90.161532   -718.09449   -614.62608   -1088.3631   -88.757108   -55.834935   -40.778723      46.7237      46.7237      46.7237           90           90           90     102002.7    -807.0279 
  971000       970498   -7100.8342    507.77638   -7608.6106    4219.7927   -11828.403    93.137482   -842.15449     -711.535   -1050.2986    25.229196    161.64053    18.623559      46.7237      46.7237      46.7237           90           90           90     102002.7   -867.99603 
  972000       971498   -7123.7478    491.26217     -7615.01    4204.2504    -11819.26    90.108407   -638.88471   -554.69795   -377.31003    71.635721   -52.474218    154.11014      46.7237      46.7237      46.7237           90           90           90     102002.7   -523.63089 
  973000       972498   -7131.3273     492.0874   -7623.4147    4184.1913   -11807.606    90.259772   -562.16389   -1044.2438   -989.69484   -98.117856   -149.54183    163.77644      46.7237      46.7237      46.7237           90           90           90     102002.7   -865.36752 
  974000       973498   -7115.2794    504.34608   -7619.6255    4188.9431   -11808.569    92.508288   -853.54252   -668.90609   -892.29469   -233.91819   -92.085739    314.78438      46.7237      46.7237      46.7237           90           90           90     102002.7   -804.91443 
  975000       974498   -7133.8437    496.67259   -7630.5163    4197.0777   -11827.594    91.100799   -855.56458   -351.23753   -527.79175   -173.87874   -211.07548    -30.42329      46.7237      46.7237      46.7237           90           90           90     102002.7   -578.19795 
  976000       975498   -7113.9959    499.90278   -7613.8987    4193.3627   -11807.261    91.693288   -1119.5539   -863.71563   -943.75829   -28.339359    164.62054   -149.67794      46.7237      46.7237      46.7237           90           90           90     102002.7   -975.67593 
  977000       976498    -7147.186    478.09752   -7625.2835    4187.8818   -11813.165    87.693718   -467.00369    -761.0382   -676.33713    27.273689    40.072298    87.779603      46.7237      46.7237      46.7237           90           90           90     102002.7   -634.79301 
  978000       977498   -7133.4262    487.50357   -7620.9298    4187.2219   -11808.152    89.418997   -847.85929   -864.30158   -739.70818   -146.56435    78.626605   -38.233387      46.7237      46.7237      46.7237           90           90           90     102002.7   -817.28969 
  979000       978498   -7119.6552    497.17955   -7616.8347    4200.3096   -11817.144    91.193787   -937.40456   -650.56043   -767.61646    106.31009   -105.96783    92.910067      46.7237      46.7237      46.7237           90           90           90     102002.7   -785.19382 
  980000       979498   -7107.2889    501.15272   -7608.4416    4201.4721   -11809.914    91.922554   -973.60839   -491.23459    -982.1842   -105.44305    21.870159    115.10956      46.7237      46.7237      46.7237           90           90           90     102002.7   -815.67573 
  981000       980498   -7133.1321    485.13491    -7618.267    4194.3752   -11812.642    88.984531   -559.70784   -734.27948   -764.47889   -69.279859   -1.0112362    85.307405      46.7237      46.7237      46.7237           90           90           90     102002.7    -686.1554 
  982000       981498   -7080.7661    513.49967   -7594.2658    4207.6348   -11801.901    94.187259    -949.9231   -1010.4498   -428.31008    19.345042    153.89182    37.650916      46.7237      46.7237      46.7237           90           90           90     102002.7   -796.22766 
  983000       982498   -7134.9103     493.3316   -7628.2419    4185.6424   -11813.884    90.487987   -661.82417   -688.75064   -848.57875    148.74305   -195.84703    158.70536      46.7237      46.7237      46.7237           90           90           90     102002.7   -733.05119 
  984000       983498   -7111.0656    493.78256   -7604.8481    4207.0411   -11811.889    90.570703   -323.58293   -683.68493   -1177.4855   -14.266871   -256.98794   -38.267973      46.7237      46.7237      46.7237           90           90           90     102002.7   -728.25113 
  985000       984498   -7115.8629    500.50012    -7616.363    4214.3505   -11830.714    91.802853   -813.78243   -654.73435   -1195.4103   -2.6576508   -21.067124   -86.142162      46.7237      46.7237      46.7237           90           90           90     102002.7    -887.9757 
  986000       985498   -7100.7265    502.87963   -7603.6061    4205.1891   -11808.795    92.239308   -730.20109   -735.13047   -842.45256   -27.557743   -63.740477   -53.288291      46.7237      46.7237      46.7237           90           90           90     102002.7   -769.26137 
  987000       986498   -7136.8946    492.60902   -7629.5036    4180.5506   -11810.054    90.355451   -886.35454   -391.00385   -572.55436   -44.426503   -111.15318    320.90634      46.7237      46.7237      46.7237           90           90           90     102002.7   -616.63758 
  988000       987498   -7098.2236    508.13983   -7606.3634    4202.1878   -11808.551    93.204145   -438.06445   -683.34043    -820.8776    -78.93063   -211.39483   -139.65659      46.7237      46.7237      46.7237           90           90           90     102002.7   -647.42749 
  989000       988498   -7113.9721    500.81857   -7614.7907    4203.3986   -11818.189    91.861264   -964.59942   -798.09054   -425.38142   -52.010952     124.8862    62.671044      46.7237      46.7237      46.7237           90           90           90     102002.7   -729.35713 
  990000       989498   -7124.6375    482.53932   -7607.1768      4214.81   -11821.987    88.508442   -782.94349   -520.70734    -257.5085    -59.36224    253.24501    100.67729      46.7237      46.7237      46.7237           90           90           90     102002.7   -520.38645 
  991000       990498   -7100.3893     507.0106   -7607.3998    4217.9104    -11825.31     92.99702   -455.26623   -624.00857    -334.7423    26.451242      68.1669   -97.416519      46.7237      46.7237      46.7237           90           90           90     102002.7   -471.33903 
  992000       991498   -7121.5061    496.46327   -7617.9694    4186.4098   -11804.379    91.062405   -980.26285   -524.83847   -846.60841    -79.17445    37.557785   -127.91106      46.7237      46.7237      46.7237           90           90           90     102002.7   -783.90325 
  993000       992498   -7091.5589    521.58718   -7613.1461     4192.525   -11805.671    95.670689    -788.8988   -538.87229    -734.6462    15.354425   -47.940762     75.07879      46.7237      46.7237      46.7237           90           90           90     102002.7   -687.47243 
  994000       993498   -7123.1593    505.30607   -7628.4654    4185.6988   -11814.164    92.684371   -596.31387   -883.11926   -802.00256    78.802069   -88.956323   -64.365207      46.7237      46.7237      46.7237           90           90           90     102002.7   -760.47856 
  995000       994498   -7158.9405    475.74919   -7634.6897    4172.8446   -11807.534    87.262982   -767.46534   -916.67352   -1432.5618    -175.6634     84.54076   -69.510512      46.7237      46.7237      46.7237           90           90           90     102002.7   -1038.9002 
  996000       995498   -7111.0536    502.14714   -7613.2008    4216.7176   -11829.918    92.104954   -253.89465   -412.19314   -960.97063    38.298613   -169.37611    83.760451      46.7237      46.7237      46.7237           90           90           90     102002.7   -542.35281 
  997000       996498   -7132.2913     501.2309   -7633.5222    4186.5043   -11820.026    91.936895   -1280.1239   -914.65405   -825.79461   -64.642874    7.2098476   -60.950755      46.7237      46.7237      46.7237           90           90           90     102002.7   -1006.8575 
  998000       997498   -7121.3982    497.99801   -7619.3962     4189.871   -11809.267    91.343911    -830.6436   -784.81988   -660.14534    13.148816     143.9349    -249.0666      46.7237      46.7237      46.7237           90           90           90     102002.7   -758.53628 
  999000       998498   -7101.3055    525.69558   -7627.0011    4195.9444   -11822.946     96.42426   -197.99551    -720.6779   -1003.2211   -34.764594    127.65484  -0.52444234      46.7237      46.7237      46.7237           90           90           90     102002.7   -640.63151 
 1000000       999498   -7115.1406    502.29615   -7617.4367    4194.1815   -11811.618    92.132285   -832.62819   -434.86627   -775.54979   -35.329321   -87.975863    53.870609      46.7237      46.7237      46.7237           90           90           90     102002.7   -681.01475 
 1000502      1000000   -7117.6211    509.53871   -7627.1598    4204.5729   -11831.733    93.460732    -409.8515   -586.99113   -999.00385   -98.213685   -85.810073   -85.919807      46.7237      46.7237      46.7237           90           90           90     102002.7   -665.28216 
Loop time of 1429.09 on 16 procs for 500000 steps with 1830 atoms

Performance: 30.229 ns/day, 0.794 hours/ns, 349.874 timesteps/s
99.8% CPU use with 16 MPI tasks x no OpenMP threads

MPI task timing breakdown:
Section |  min time  |  avg time  |  max time  |%varavg| %total
---------------------------------------------------------------
Pair    | 606.7      | 808.03     | 994.96     | 413.7 | 56.54
Bond    | 159.95     | 183.58     | 202.65     |  85.6 | 12.85
Neigh   | 4.6361     | 4.6653     | 4.7156     |   1.2 |  0.33
Comm    | 225.26     | 404.54     | 595.94     | 559.8 | 28.31
Output  | 0.098307   | 0.10324    | 0.10364    |   0.4 |  0.01
Modify  | 21.403     | 22.855     | 24.134     |  19.7 |  1.60
Other   |            | 5.319      |            |       |  0.37

Nlocal:    114.375 ave 149 max 99 min
Histogram: 2 2 4 3 4 0 0 0 0 1
Nghost:    2302.88 ave 2323 max 2268 min
Histogram: 1 0 0 1 2 1 6 1 3 1
Neighs:    11467.2 ave 14513 max 8089 min
Histogram: 1 2 2 2 0 1 2 2 3 1

Total # of neighbors = 183475
Ave neighs/atom = 100.26
Ave special neighs/atom = 6.29508
Neighbor list builds = 3635
Dangerous builds = 0
Total wall time: 0:45:19
