LAMMPS (30 Mar 2018)
Reading data file ...
  orthogonal box = (0 0 0) to (46.7237 46.7237 46.7237)
  2 by 2 by 4 MPI processor grid
  reading atoms ...
  1765 atoms
  scanning bonds ...
  5 = max bonds/atom
  scanning angles ...
  10 = max angles/atom
  scanning dihedrals ...
  32 = max dihedrals/atom
  scanning impropers ...
  3 = max impropers/atom
  reading bonds ...
  2064 bonds
  reading angles ...
  3696 angles
  reading dihedrals ...
  6240 dihedrals
  reading impropers ...
  1008 impropers
Finding 1-2 1-3 1-4 neighbors ...
  special bond factors lj:   0          0          0         
  special bond factors coul: 0          0          0         
  5 = max # of 1-2 neighbors
  8 = max # of 1-3 neighbors
  20 = max # of 1-4 neighbors
  19 = max # of special neighbors
Finding 1-2 1-3 1-4 neighbors ...
  special bond factors lj:   0          0          1         
  special bond factors coul: 1          1          1         
  5 = max # of 1-2 neighbors
  8 = max # of 1-3 neighbors
  19 = max # of special neighbors
WARNING: Using 'neigh_modify every 1 delay 0 check yes' setting during minimization (../min.cpp:168)
Neighbor list info ...
  update every 1 steps, delay 0 steps, check yes
  max neighbors/atom: 2000, page size: 100000
  master list distance cutoff = 16
  ghost atom cutoff = 16
  binsize = 8, bins = 6 6 6
  3 neighbor lists, perpetual/occasional/extra = 3 0 0
  (1) pair buck6d/coul/gauss/dsf, perpetual, skip from (3)
      attributes: half, newton on
      pair build: skip
      stencil: none
      bin: none
  (2) pair lj/cut, perpetual, skip from (3)
      attributes: half, newton on
      pair build: skip
      stencil: none
      bin: none
  (3) neighbor class addition, perpetual
      attributes: half, newton on
      pair build: half/bin/newton
      stencil: half/bin/3d/newton
      bin: standard
Setting up cg style minimization ...
  Unit style    : real
  Current step  : 0
WARNING: Inconsistent image flags (../domain.cpp:786)
Per MPI rank memory allocation (min/avg/max) = 22.89 | 23.35 | 23.79 Mbytes
Step Temp E_pair E_mol TotEng Press 
       0            0   -11622.492    6482.8914   -5139.6004    6245.1897 
     504            0   -11660.649    3742.8038   -7917.8452   -540.48979 
Loop time of 2.83329 on 16 procs for 504 steps with 1765 atoms

99.8% CPU use with 16 MPI tasks x no OpenMP threads

Minimization stats:
  Stopping criterion = max force evaluations
  Energy initial, next-to-last, final = 
        -5139.60041961     -7917.83902173     -7917.84516975
  Force two-norm initial, final = 2576.8 3.2659
  Force max component initial, final = 151.988 0.481116
  Final line search alpha, max atom move = 0.0168768 0.00811971
  Iterations, force evaluations = 504 1000

MPI task timing breakdown:
Section |  min time  |  avg time  |  max time  |%varavg| %total
---------------------------------------------------------------
Pair    | 1.1578     | 1.5959     | 2.0543     |  19.7 | 56.33
Bond    | 0.28391    | 0.35951    | 0.42392    |   6.3 | 12.69
Neigh   | 0.012877   | 0.012982   | 0.013063   |   0.0 |  0.46
Comm    | 0.34637    | 0.82489    | 1.2678     |  27.5 | 29.11
Output  | 0          | 0          | 0          |   0.0 |  0.00
Modify  | 0          | 0          | 0          |   0.0 |  0.00
Other   |            | 0.04002    |            |       |  1.41

Nlocal:    110.312 ave 128 max 98 min
Histogram: 2 3 2 2 0 2 3 0 0 2
Nghost:    2222.56 ave 2233 max 2207 min
Histogram: 2 0 2 1 0 2 2 1 2 4
Neighs:    11441.5 ave 15120 max 8007 min
Histogram: 2 1 4 1 0 1 3 0 2 2

Total # of neighbors = 183064
Ave neighs/atom = 103.719
Ave special neighs/atom = 6.52691
Neighbor list builds = 10
Dangerous builds = 0
Neighbor list info ...
  update every 1 steps, delay 10 steps, check yes
  max neighbors/atom: 2000, page size: 100000
  master list distance cutoff = 16
  ghost atom cutoff = 16
  binsize = 8, bins = 6 6 6
  3 neighbor lists, perpetual/occasional/extra = 3 0 0
  (1) pair buck6d/coul/gauss/dsf, perpetual, skip from (3)
      attributes: half, newton on
      pair build: skip
      stencil: none
      bin: none
  (2) pair lj/cut, perpetual, skip from (3)
      attributes: half, newton on
      pair build: skip
      stencil: none
      bin: none
  (3) neighbor class addition, perpetual
      attributes: half, newton on
      pair build: half/bin/newton
      stencil: half/bin/3d/newton
      bin: standard
Setting up Verlet run ...
  Unit style    : real
  Current step  : 504
  Time step     : 1
WARNING: Inconsistent image flags (../domain.cpp:786)
Per MPI rank memory allocation (min/avg/max) = 22.54 | 22.63 | 22.86 Mbytes
Step Temp PotEng TotEng Press Volume Lx Ly Lz 
     504           91   -7917.8452   -7439.3536   -326.05491     102002.7      46.7237      46.7237      46.7237 
    1000    83.532575   -7511.8935   -7072.6668    -788.7463     102002.7      46.7237      46.7237      46.7237 
    2000    92.825403   -7425.9892   -6937.8994   -610.81248     102002.7      46.7237      46.7237      46.7237 
    3000    87.828238   -7407.7868   -6945.9728   -1005.3935     102002.7      46.7237      46.7237      46.7237 
    4000    89.488742   -7437.4941   -6966.9489   -499.76912     102002.7      46.7237      46.7237      46.7237 
    5000    90.171338    -7419.268   -6945.1336   -956.17528     102002.7      46.7237      46.7237      46.7237 
    6000    91.083842   -7439.7293   -6960.7969   -647.78837     102002.7      46.7237      46.7237      46.7237 
    7000    91.792369   -7421.8441   -6939.1861   -557.57296     102002.7      46.7237      46.7237      46.7237 
    8000    88.928173   -7420.0599   -6952.4623   -677.25734     102002.7      46.7237      46.7237      46.7237 
    9000    92.488623   -7431.4075   -6945.0886   -618.61879     102002.7      46.7237      46.7237      46.7237 
   10000    89.628709   -7437.0431    -6965.762   -791.63401     102002.7      46.7237      46.7237      46.7237 
   11000    95.255353   -7430.7724   -6929.9055   -813.77716     102002.7      46.7237      46.7237      46.7237 
   12000    92.554829   -7428.2734   -6941.6063   -760.10342     102002.7      46.7237      46.7237      46.7237 
   13000    89.693903   -7443.7552   -6972.1313   -650.61132     102002.7      46.7237      46.7237      46.7237 
   14000    92.371373    -7430.866   -6945.1636   -690.91307     102002.7      46.7237      46.7237      46.7237 
   15000    88.405848   -7443.0166   -6978.1655    -568.5142     102002.7      46.7237      46.7237      46.7237 
   16000    90.067354   -7425.3093   -6951.7218   -491.12551     102002.7      46.7237      46.7237      46.7237 
   17000    93.618657   -7425.3479   -6933.0871   -387.86022     102002.7      46.7237      46.7237      46.7237 
   18000    91.850845   -7435.2824   -6952.3169   -523.06032     102002.7      46.7237      46.7237      46.7237 
   19000    91.678059   -7435.9215   -6953.8646    -450.3406     102002.7      46.7237      46.7237      46.7237 
   20000    90.770376   -7424.0123   -6946.7281    -819.1034     102002.7      46.7237      46.7237      46.7237 
   21000    90.874855   -7432.3794   -6954.5459   -543.04073     102002.7      46.7237      46.7237      46.7237 
   22000    91.191965   -7425.6354   -6946.1345   -775.92559     102002.7      46.7237      46.7237      46.7237 
   23000    93.261846   -7414.3734   -6923.9888   -503.90851     102002.7      46.7237      46.7237      46.7237 
   24000    89.195541   -7424.6483   -6955.6449   -605.69477     102002.7      46.7237      46.7237      46.7237 
   25000    88.706373   -7413.0873    -6946.656   -643.61443     102002.7      46.7237      46.7237      46.7237 
   26000    90.103382   -7427.3612   -6953.5842   -403.38642     102002.7      46.7237      46.7237      46.7237 
   27000    89.333532   -7445.4329   -6975.7039   -477.36248     102002.7      46.7237      46.7237      46.7237 
   28000    91.607018    -7428.063   -6946.3797   -658.13571     102002.7      46.7237      46.7237      46.7237 
   29000    93.338626   -7426.2941   -6935.5057   -728.87504     102002.7      46.7237      46.7237      46.7237 
   30000     90.19363   -7434.1596    -6959.908   -578.61636     102002.7      46.7237      46.7237      46.7237 
   31000    90.712616   -7422.2221   -6945.2417   -615.09091     102002.7      46.7237      46.7237      46.7237 
   32000    90.549506     -7429.57   -6953.4472   -662.05001     102002.7      46.7237      46.7237      46.7237 
   33000    92.279822    -7438.629    -6953.408   -662.37944     102002.7      46.7237      46.7237      46.7237 
   34000    92.796116   -7432.2827   -6944.3469   -676.34187     102002.7      46.7237      46.7237      46.7237 
   35000    89.525315   -7434.8218   -6964.0844   -487.11933     102002.7      46.7237      46.7237      46.7237 
   36000     92.77228   -7448.4198   -6960.6093   -705.76418     102002.7      46.7237      46.7237      46.7237 
   37000    92.310946    -7425.493   -6940.1083   -467.27606     102002.7      46.7237      46.7237      46.7237 
   38000     92.42737   -7435.0154   -6949.0186   -717.72357     102002.7      46.7237      46.7237      46.7237 
   39000    88.736403   -7420.9311   -6954.3419   -591.07418     102002.7      46.7237      46.7237      46.7237 
   40000    93.485883   -7422.3719   -6930.8092   -428.28781     102002.7      46.7237      46.7237      46.7237 
   41000    88.786784   -7418.8385   -6951.9843    -754.0541     102002.7      46.7237      46.7237      46.7237 
   42000    89.790759   -7429.4243   -6957.2912   -642.06962     102002.7      46.7237      46.7237      46.7237 
   43000    92.762982   -7440.6038   -6952.8423   -827.11229     102002.7      46.7237      46.7237      46.7237 
   44000    92.752408   -7448.5898   -6960.8839   -770.16142     102002.7      46.7237      46.7237      46.7237 
   45000    92.729075   -7431.5557   -6943.9724   -887.56003     102002.7      46.7237      46.7237      46.7237 
   46000    89.798213   -7413.2293   -6941.0569   -947.98882     102002.7      46.7237      46.7237      46.7237 
   47000    86.547792   -7441.1883   -6986.1071   -825.42473     102002.7      46.7237      46.7237      46.7237 
   48000    91.149924   -7421.4958   -6942.2159    -664.0287     102002.7      46.7237      46.7237      46.7237 
   49000    91.007829   -7406.9183   -6928.3855   -854.68506     102002.7      46.7237      46.7237      46.7237 
   50000    93.090833   -7415.5974    -6926.112   -873.78234     102002.7      46.7237      46.7237      46.7237 
   51000    90.965986   -7429.5873   -6951.2746   -821.10322     102002.7      46.7237      46.7237      46.7237 
   52000    92.235069   -7435.4062   -6950.4205   -728.63568     102002.7      46.7237      46.7237      46.7237 
   53000    90.338326   -7420.9452   -6945.9328   -516.34633     102002.7      46.7237      46.7237      46.7237 
   54000    92.775306   -7435.7205   -6947.8941   -851.16834     102002.7      46.7237      46.7237      46.7237 
   55000     86.83888   -7436.8438   -6980.2321   -511.99981     102002.7      46.7237      46.7237      46.7237 
   56000    91.462377   -7424.6046   -6943.6818   -676.21903     102002.7      46.7237      46.7237      46.7237 
   57000    91.412625   -7420.6032    -6939.942   -761.26778     102002.7      46.7237      46.7237      46.7237 
   58000    88.944769   -7428.5213   -6960.8364   -534.85359     102002.7      46.7237      46.7237      46.7237 
   59000    88.813417    -7426.625   -6959.6309   -507.70955     102002.7      46.7237      46.7237      46.7237 
   60000    92.746698   -7432.2079    -6944.532   -474.53121     102002.7      46.7237      46.7237      46.7237 
   61000    87.956054   -7433.6565   -6971.1705   -585.51664     102002.7      46.7237      46.7237      46.7237 
   62000    89.433506   -7428.5936   -6958.3389   -779.47489     102002.7      46.7237      46.7237      46.7237 
   63000    89.974413   -7429.1809    -6956.082   -674.05966     102002.7      46.7237      46.7237      46.7237 
   64000    93.144655   -7421.7679   -6931.9994   -619.08578     102002.7      46.7237      46.7237      46.7237 
   65000    91.483077   -7417.6797   -6936.6481   -1013.9584     102002.7      46.7237      46.7237      46.7237 
   66000     89.22151   -7424.0153   -6954.8753   -694.07984     102002.7      46.7237      46.7237      46.7237 
   67000    89.011097   -7438.3589   -6970.3253   -859.13276     102002.7      46.7237      46.7237      46.7237 
   68000    89.933931   -7423.4389   -6950.5529   -787.48641     102002.7      46.7237      46.7237      46.7237 
   69000    91.065141   -7419.0344   -6940.2003   -813.73803     102002.7      46.7237      46.7237      46.7237 
   70000    90.808144   -7444.2441   -6966.7614   -826.02497     102002.7      46.7237      46.7237      46.7237 
   71000    92.267137   -7425.9408   -6940.7865   -398.60809     102002.7      46.7237      46.7237      46.7237 
   72000    86.685661   -7423.7882   -6967.9821    -572.8595     102002.7      46.7237      46.7237      46.7237 
   73000    92.968462   -7432.6718   -6943.8298   -723.28361     102002.7      46.7237      46.7237      46.7237 
   74000    89.067262   -7419.3361   -6951.0072   -556.43658     102002.7      46.7237      46.7237      46.7237 
   75000     92.60552   -7430.9541   -6944.0205   -561.28868     102002.7      46.7237      46.7237      46.7237 
   76000    92.783313   -7426.9001   -6939.0316   -523.55093     102002.7      46.7237      46.7237      46.7237 
   77000    89.675226   -7426.8912   -6955.3655   -363.84288     102002.7      46.7237      46.7237      46.7237 
   78000    94.110933   -7410.3556   -6915.5063   -549.51793     102002.7      46.7237      46.7237      46.7237 
   79000    91.570982   -7438.7188   -6957.2249   -680.88627     102002.7      46.7237      46.7237      46.7237 
   80000    91.662179   -7428.2497   -6946.2763   -660.03304     102002.7      46.7237      46.7237      46.7237 
   81000     92.02923   -7449.1209   -6965.2175   -786.78016     102002.7      46.7237      46.7237      46.7237 
   82000    92.297313   -7438.7158   -6953.4028   -680.20405     102002.7      46.7237      46.7237      46.7237 
   83000    91.061454   -7436.2576    -6957.443   -745.06316     102002.7      46.7237      46.7237      46.7237 
   84000    95.548464   -7413.2991   -6910.8911   -763.31386     102002.7      46.7237      46.7237      46.7237 
   85000    91.495609   -7438.9775     -6957.88   -582.74649     102002.7      46.7237      46.7237      46.7237 
   86000    91.690246   -7422.9213   -6940.8003   -675.60985     102002.7      46.7237      46.7237      46.7237 
   87000    90.609764   -7413.5197     -6937.08   -980.31765     102002.7      46.7237      46.7237      46.7237 
   88000    90.067932   -7416.4949   -6942.9043   -861.89605     102002.7      46.7237      46.7237      46.7237 
   89000    90.594878   -7443.0424    -6966.681    -873.3173     102002.7      46.7237      46.7237      46.7237 
   90000    87.566615   -7425.8172   -6965.3789   -663.07384     102002.7      46.7237      46.7237      46.7237 
   91000    92.308376   -7442.4424   -6957.0713   -486.52123     102002.7      46.7237      46.7237      46.7237 
   92000    91.371367   -7421.5067   -6941.0625   -787.24655     102002.7      46.7237      46.7237      46.7237 
   93000     90.83023   -7438.2694   -6960.6705   -587.27757     102002.7      46.7237      46.7237      46.7237 
   94000    92.834964    -7438.889   -6950.7489   -721.33797     102002.7      46.7237      46.7237      46.7237 
   95000    91.352469   -7425.5272   -6945.1823   -808.29676     102002.7      46.7237      46.7237      46.7237 
   96000     89.53072   -7424.7171   -6953.9512   -711.87808     102002.7      46.7237      46.7237      46.7237 
   97000    91.406284   -7429.6658    -6949.038   -695.74539     102002.7      46.7237      46.7237      46.7237 
   98000    89.146018   -7424.8065   -6956.0635   -455.36998     102002.7      46.7237      46.7237      46.7237 
   99000    88.721917   -7423.9396   -6957.4266   -826.37878     102002.7      46.7237      46.7237      46.7237 
  100000     89.60122   -7439.1181   -6967.9816   -810.31627     102002.7      46.7237      46.7237      46.7237 
  101000    93.104655   -7425.4339   -6935.8757   -554.11915     102002.7      46.7237      46.7237      46.7237 
  102000    94.102768   -7419.6676   -6924.8612   -909.87552     102002.7      46.7237      46.7237      46.7237 
  103000    91.668732   -7430.5755   -6948.5677   -826.90211     102002.7      46.7237      46.7237      46.7237 
  104000    89.275318    -7435.754   -6966.3311   -869.49672     102002.7      46.7237      46.7237      46.7237 
  105000    90.658882   -7427.6298   -6950.9319   -601.12332     102002.7      46.7237      46.7237      46.7237 
  106000    90.646153   -7415.5888   -6938.9578   -659.45669     102002.7      46.7237      46.7237      46.7237 
  107000    90.664646   -7418.4253   -6941.6971   -822.09901     102002.7      46.7237      46.7237      46.7237 
  108000    90.620525   -7426.7926   -6950.2963   -724.43357     102002.7      46.7237      46.7237      46.7237 
  109000     92.76742   -7414.3551   -6926.5702   -796.03229     102002.7      46.7237      46.7237      46.7237 
  110000    93.155452   -7429.6946   -6939.8693   -733.05526     102002.7      46.7237      46.7237      46.7237 
  111000    88.960144   -7428.5406   -6960.7749   -904.02482     102002.7      46.7237      46.7237      46.7237 
  112000    87.734133   -7425.0451    -6963.726   -933.17654     102002.7      46.7237      46.7237      46.7237 
  113000    91.418817    -7424.808   -6944.1143   -594.31186     102002.7      46.7237      46.7237      46.7237 
  114000    91.849187   -7430.1402   -6947.1835   -783.30142     102002.7      46.7237      46.7237      46.7237 
  115000    89.235529   -7426.0158   -6956.8021   -678.98454     102002.7      46.7237      46.7237      46.7237 
  116000    91.150569   -7448.4768   -6969.1936   -903.83281     102002.7      46.7237      46.7237      46.7237 
  117000    88.736287   -7413.9983   -6947.4097   -783.29237     102002.7      46.7237      46.7237      46.7237 
  118000    92.230987   -7444.7463   -6959.7821    -1012.629     102002.7      46.7237      46.7237      46.7237 
  119000    88.539743   -7420.0085   -6954.4533   -660.87408     102002.7      46.7237      46.7237      46.7237 
  120000    90.841871   -7433.6304   -6955.9703   -639.10769     102002.7      46.7237      46.7237      46.7237 
  121000    89.376354   -7440.8506   -6970.8964   -607.02748     102002.7      46.7237      46.7237      46.7237 
  122000    92.472133   -7402.3788   -6916.1465   -827.37489     102002.7      46.7237      46.7237      46.7237 
  123000    91.950524   -7434.0325   -6950.5429    -928.0264     102002.7      46.7237      46.7237      46.7237 
  124000    88.651285   -7433.0821   -6966.9404    -718.8354     102002.7      46.7237      46.7237      46.7237 
  125000    90.735598   -7428.4739   -6951.3726   -936.56464     102002.7      46.7237      46.7237      46.7237 
  126000    92.085257   -7430.6634   -6946.4654   -740.92498     102002.7      46.7237      46.7237      46.7237 
  127000    89.333972   -7448.9752   -6979.2439    -773.1073     102002.7      46.7237      46.7237      46.7237 
  128000    91.019771   -7425.7148   -6947.1192   -782.19646     102002.7      46.7237      46.7237      46.7237 
  129000    89.391382   -7426.2678   -6956.2346    -992.6758     102002.7      46.7237      46.7237      46.7237 
  130000    89.478874   -7429.4308   -6958.9375   -587.36948     102002.7      46.7237      46.7237      46.7237 
  131000     91.31609   -7442.4754   -6962.3218   -665.07497     102002.7      46.7237      46.7237      46.7237 
  132000    91.293183   -7426.1531   -6946.1199   -840.32449     102002.7      46.7237      46.7237      46.7237 
  133000    90.575829   -7420.7082    -6944.447   -850.90317     102002.7      46.7237      46.7237      46.7237 
  134000    90.887036   -7442.8074   -6964.9098   -517.90991     102002.7      46.7237      46.7237      46.7237 
  135000    91.931668    -7431.466   -6948.0756   -772.22711     102002.7      46.7237      46.7237      46.7237 
  136000    92.724286   -7429.2754   -6941.7173   -582.88296     102002.7      46.7237      46.7237      46.7237 
  137000    90.424075    -7437.571   -6962.1077   -517.93635     102002.7      46.7237      46.7237      46.7237 
  138000    90.891556     -7440.46   -6962.5386   -695.36218     102002.7      46.7237      46.7237      46.7237 
  139000    93.637332   -7439.2957   -6946.9366   -669.57827     102002.7      46.7237      46.7237      46.7237 
  140000    90.417031   -7436.8092    -6961.383   -730.24817     102002.7      46.7237      46.7237      46.7237 
  141000    90.494107   -7423.9186   -6948.0871   -756.36978     102002.7      46.7237      46.7237      46.7237 
  142000    90.242345   -7427.5507    -6953.043   -808.72223     102002.7      46.7237      46.7237      46.7237 
  143000    92.372378   -7438.6333   -6952.9256   -874.23359     102002.7      46.7237      46.7237      46.7237 
  144000    91.130843   -7429.6024   -6950.4228   -588.45507     102002.7      46.7237      46.7237      46.7237 
  145000    90.717998   -7421.6671   -6944.6584   -980.34019     102002.7      46.7237      46.7237      46.7237 
  146000    91.805979   -7423.5941   -6940.8646    -790.3592     102002.7      46.7237      46.7237      46.7237 
  147000    87.683227   -7421.2991   -6960.2476   -822.58565     102002.7      46.7237      46.7237      46.7237 
  148000    94.486556   -7429.1592   -6932.3348   -1091.7911     102002.7      46.7237      46.7237      46.7237 
  149000    93.563505   -7437.1425   -6945.1717   -903.06752     102002.7      46.7237      46.7237      46.7237 
  150000    91.691114    -7445.026   -6962.9004   -752.71623     102002.7      46.7237      46.7237      46.7237 
  151000    93.500943    -7416.367   -6924.7252    -626.0894     102002.7      46.7237      46.7237      46.7237 
  152000    91.378409   -7423.2186   -6942.7373   -577.56253     102002.7      46.7237      46.7237      46.7237 
  153000    89.814671   -7432.6788   -6960.4199   -684.70924     102002.7      46.7237      46.7237      46.7237 
  154000    93.319403   -7412.6644   -6921.9771   -577.19806     102002.7      46.7237      46.7237      46.7237 
  155000    89.290812   -7426.4589   -6956.9545    -768.1944     102002.7      46.7237      46.7237      46.7237 
  156000    88.748768   -7432.4052    -6965.751   -665.27279     102002.7      46.7237      46.7237      46.7237 
  157000    91.362748   -7416.4234   -6936.0245   -822.96316     102002.7      46.7237      46.7237      46.7237 
  158000     88.54138   -7430.2527    -6964.689   -736.56391     102002.7      46.7237      46.7237      46.7237 
  159000    91.557846   -7417.7122   -6936.2874    -695.9286     102002.7      46.7237      46.7237      46.7237 
  160000     93.49051   -7424.4066   -6932.8196   -719.05579     102002.7      46.7237      46.7237      46.7237 
  161000    91.101381   -7428.5935   -6949.5689   -902.97729     102002.7      46.7237      46.7237      46.7237 
  162000     87.95044   -7433.2347   -6970.7781   -880.38984     102002.7      46.7237      46.7237      46.7237 
  163000    93.823491   -7434.5959    -6941.258   -770.46477     102002.7      46.7237      46.7237      46.7237 
  164000    88.289612   -7405.1852   -6940.9452    -863.7658     102002.7      46.7237      46.7237      46.7237 
  165000    90.424425   -7441.6137   -6966.1486   -800.40676     102002.7      46.7237      46.7237      46.7237 
  166000    92.480366   -7420.4584   -6934.1829   -717.12945     102002.7      46.7237      46.7237      46.7237 
  167000     90.32087   -7442.6002   -6967.6797   -554.85152     102002.7      46.7237      46.7237      46.7237 
  168000    91.407182   -7438.2728   -6957.6402   -574.97128     102002.7      46.7237      46.7237      46.7237 
  169000    92.838985   -7431.3312     -6943.17   -752.04644     102002.7      46.7237      46.7237      46.7237 
  170000    91.820758   -7450.0694   -6967.2622   -479.11243     102002.7      46.7237      46.7237      46.7237 
  171000    88.120907   -7407.4636   -6944.1107   -483.50196     102002.7      46.7237      46.7237      46.7237 
  172000    89.217848   -7436.0894   -6966.9686   -679.31548     102002.7      46.7237      46.7237      46.7237 
  173000    92.930056   -7419.4067   -6930.7666   -711.86317     102002.7      46.7237      46.7237      46.7237 
  174000    92.134736   -7420.7589   -6936.3008   -659.36606     102002.7      46.7237      46.7237      46.7237 
  175000    88.571385   -7428.3795    -6962.658   -889.56977     102002.7      46.7237      46.7237      46.7237 
  176000    93.894538   -7422.7055   -6928.9941   -610.35541     102002.7      46.7237      46.7237      46.7237 
  177000    90.765485   -7417.8957   -6940.6372   -698.37303     102002.7      46.7237      46.7237      46.7237 
  178000    89.723365   -7438.6232   -6966.8444   -605.04197     102002.7      46.7237      46.7237      46.7237 
  179000    91.315112    -7426.667   -6946.5186   -628.15915     102002.7      46.7237      46.7237      46.7237 
  180000    90.242182   -7416.4217   -6941.9149   -1027.5749     102002.7      46.7237      46.7237      46.7237 
  181000    90.954948   -7434.7615   -6956.5069     -381.246     102002.7      46.7237      46.7237      46.7237 
  182000    92.243439   -7430.2426   -6945.2129   -789.90519     102002.7      46.7237      46.7237      46.7237 
  183000    91.065652   -7432.7511   -6953.9144   -755.15187     102002.7      46.7237      46.7237      46.7237 
  184000     90.14879   -7401.6979   -6927.6822   -731.43012     102002.7      46.7237      46.7237      46.7237 
  185000    86.919355   -7422.5071   -6965.4722   -605.35731     102002.7      46.7237      46.7237      46.7237 
  186000    88.872224   -7421.9581   -6954.6547   -602.22542     102002.7      46.7237      46.7237      46.7237 
  187000    93.728179    -7422.751   -6929.9143   -769.97263     102002.7      46.7237      46.7237      46.7237 
  188000    91.885427    -7429.501   -6946.3537   -506.28471     102002.7      46.7237      46.7237      46.7237 
  189000    89.789721   -7421.9489   -6949.8212   -392.67869     102002.7      46.7237      46.7237      46.7237 
  190000    95.005284   -7425.0595   -6925.5075    -604.7062     102002.7      46.7237      46.7237      46.7237 
  191000    89.820118    -7410.417   -6938.1294   -674.18793     102002.7      46.7237      46.7237      46.7237 
  192000    89.277274   -7431.8027   -6962.3695   -682.59248     102002.7      46.7237      46.7237      46.7237 
  193000     89.67784   -7423.0727   -6951.5333   -539.32413     102002.7      46.7237      46.7237      46.7237 
  194000    92.091357   -7431.6674   -6947.4373   -826.26579     102002.7      46.7237      46.7237      46.7237 
  195000    89.436457   -7430.5321   -6960.2619   -744.55908     102002.7      46.7237      46.7237      46.7237 
  196000    90.375219   -7440.7099   -6965.5035   -663.72469     102002.7      46.7237      46.7237      46.7237 
  197000     91.34457    -7410.785   -6930.4817   -862.07769     102002.7      46.7237      46.7237      46.7237 
  198000    90.416052    -7423.105   -6947.6839   -422.11975     102002.7      46.7237      46.7237      46.7237 
  199000    89.296456   -7424.5593   -6955.0252   -903.51508     102002.7      46.7237      46.7237      46.7237 
  200000     89.46728   -7429.8634   -6959.4311   -822.84552     102002.7      46.7237      46.7237      46.7237 
  201000     92.29268   -7419.5039   -6934.2152   -797.93709     102002.7      46.7237      46.7237      46.7237 
  202000       94.172   -7437.6603   -6942.4898   -531.31036     102002.7      46.7237      46.7237      46.7237 
  203000    90.463007   -7434.8225   -6959.1545   -366.21389     102002.7      46.7237      46.7237      46.7237 
  204000    89.379828   -7421.6064    -6951.634   -618.53078     102002.7      46.7237      46.7237      46.7237 
  205000    92.811269   -7418.5263   -6930.5108   -364.54255     102002.7      46.7237      46.7237      46.7237 
  206000    91.150062   -7426.6973   -6947.4167   -736.15039     102002.7      46.7237      46.7237      46.7237 
  207000    90.463298   -7429.7388   -6954.0693   -884.63376     102002.7      46.7237      46.7237      46.7237 
  208000    91.511994   -7424.7307   -6943.5471   -610.10532     102002.7      46.7237      46.7237      46.7237 
  209000    90.138154   -7424.8343   -6950.8744   -643.61729     102002.7      46.7237      46.7237      46.7237 
  210000    86.105885   -7425.7907   -6973.0331   -612.87029     102002.7      46.7237      46.7237      46.7237 
  211000    92.311423    -7416.422   -6931.0348   -846.96645     102002.7      46.7237      46.7237      46.7237 
  212000    88.836075   -7409.7436   -6942.6303   -746.39535     102002.7      46.7237      46.7237      46.7237 
  213000    89.176391   -7426.0834   -6957.1807   -771.13601     102002.7      46.7237      46.7237      46.7237 
  214000    90.472663   -7426.4982   -6950.7795    -802.0535     102002.7      46.7237      46.7237      46.7237 
  215000    94.159822   -7423.5039   -6928.3975   -735.63438     102002.7      46.7237      46.7237      46.7237 
  216000     90.83415     -7430.88   -6953.2606   -696.64354     102002.7      46.7237      46.7237      46.7237 
  217000    90.090638   -7420.8869   -6947.1769   -694.57341     102002.7      46.7237      46.7237      46.7237 
  218000    93.117623    -7425.581   -6935.9547   -710.40046     102002.7      46.7237      46.7237      46.7237 
  219000    90.661964   -7436.0852   -6959.3711   -691.66499     102002.7      46.7237      46.7237      46.7237 
  220000    92.466993   -7425.2438   -6939.0386   -532.78466     102002.7      46.7237      46.7237      46.7237 
  221000     94.37747   -7425.9484   -6929.6976   -674.06817     102002.7      46.7237      46.7237      46.7237 
  222000    90.541297   -7428.7262   -6952.6466    -359.8383     102002.7      46.7237      46.7237      46.7237 
  223000    96.933675   -7437.2259   -6927.5342   -784.46191     102002.7      46.7237      46.7237      46.7237 
  224000    90.843831   -7420.0807   -6942.4103   -695.47169     102002.7      46.7237      46.7237      46.7237 
  225000    91.392966    -7428.407   -6947.8491   -911.69514     102002.7      46.7237      46.7237      46.7237 
  226000     90.31586   -7424.9875   -6950.0932   -532.08589     102002.7      46.7237      46.7237      46.7237 
  227000     92.16875   -7429.7123   -6945.0753    -718.9302     102002.7      46.7237      46.7237      46.7237 
  228000    90.490427   -7415.4408   -6939.6287   -413.10984     102002.7      46.7237      46.7237      46.7237 
  229000    90.466584   -7434.3543   -6958.6675   -523.90264     102002.7      46.7237      46.7237      46.7237 
  230000    91.434987   -7424.4303   -6943.6515   -785.13103     102002.7      46.7237      46.7237      46.7237 
  231000    89.837444   -7441.2241   -6968.8455   -896.01985     102002.7      46.7237      46.7237      46.7237 
  232000    90.415673   -7422.7909   -6947.3718   -941.07753     102002.7      46.7237      46.7237      46.7237 
  233000    90.153722   -7437.5922   -6963.5505   -750.35101     102002.7      46.7237      46.7237      46.7237 
  234000     90.66033   -7440.7533   -6964.0478   -874.48236     102002.7      46.7237      46.7237      46.7237 
  235000    89.966865   -7434.1686   -6961.1094   -700.89802     102002.7      46.7237      46.7237      46.7237 
  236000     89.57467   -7423.2513   -6952.2544   -584.17733     102002.7      46.7237      46.7237      46.7237 
  237000    93.641412    -7429.509   -6937.1285    -601.2144     102002.7      46.7237      46.7237      46.7237 
  238000    90.452275   -7440.8265   -6965.2149   -591.44554     102002.7      46.7237      46.7237      46.7237 
  239000     92.16571   -7415.1304   -6930.5094   -537.80722     102002.7      46.7237      46.7237      46.7237 
  240000    91.170269    -7434.522   -6955.1352   -741.13628     102002.7      46.7237      46.7237      46.7237 
  241000    92.060443   -7430.6967   -6946.6292   -633.50673     102002.7      46.7237      46.7237      46.7237 
  242000    90.239511   -7415.7869   -6941.2941   -523.27912     102002.7      46.7237      46.7237      46.7237 
  243000    92.863175   -7452.5699   -6964.2815   -606.46265     102002.7      46.7237      46.7237      46.7237 
  244000    90.423163   -7426.2636   -6950.8051   -869.89616     102002.7      46.7237      46.7237      46.7237 
  245000    93.002356   -7418.7082    -6929.688   -692.17402     102002.7      46.7237      46.7237      46.7237 
  246000    92.188268    -7428.115   -6943.3754   -699.11442     102002.7      46.7237      46.7237      46.7237 
  247000    90.741125   -7438.5352   -6961.4049   -742.97781     102002.7      46.7237      46.7237      46.7237 
  248000     93.30325   -7418.3444    -6927.742   -742.92485     102002.7      46.7237      46.7237      46.7237 
  249000     92.46165   -7425.1858   -6939.0087   -867.98149     102002.7      46.7237      46.7237      46.7237 
  250000    87.751567   -7440.7169    -6979.306   -942.28492     102002.7      46.7237      46.7237      46.7237 
  251000    90.414415    -7433.051   -6957.6385   -650.53511     102002.7      46.7237      46.7237      46.7237 
  252000    91.850119   -7417.8307   -6934.8691   -1055.3307     102002.7      46.7237      46.7237      46.7237 
  253000    93.312132   -7434.0781    -6943.429   -811.28825     102002.7      46.7237      46.7237      46.7237 
  254000    90.799184   -7431.2728   -6953.8372   -917.22441     102002.7      46.7237      46.7237      46.7237 
  255000    89.449529   -7426.2235   -6955.8846   -691.64659     102002.7      46.7237      46.7237      46.7237 
  256000    93.451784   -7428.8972   -6937.5138   -781.48032     102002.7      46.7237      46.7237      46.7237 
  257000    91.353722   -7427.7677   -6947.4162   -606.41671     102002.7      46.7237      46.7237      46.7237 
  258000    92.984493   -7421.0477   -6932.1214   -543.17665     102002.7      46.7237      46.7237      46.7237 
  259000    90.563673   -7423.5044   -6947.3071    -709.8918     102002.7      46.7237      46.7237      46.7237 
  260000    89.816265   -7439.7201   -6967.4528   -796.90852     102002.7      46.7237      46.7237      46.7237 
  261000    91.746929   -7427.2735   -6944.8545   -913.60183     102002.7      46.7237      46.7237      46.7237 
  262000    90.294779   -7435.0561   -6960.2728   -662.57719     102002.7      46.7237      46.7237      46.7237 
  263000     90.89813   -7428.2577   -6950.3018   -904.24386     102002.7      46.7237      46.7237      46.7237 
  264000    88.483545   -7435.9018   -6970.6421   -1180.4586     102002.7      46.7237      46.7237      46.7237 
  265000    89.906722   -7419.1632   -6946.4202   -672.08078     102002.7      46.7237      46.7237      46.7237 
  266000    88.489939   -7436.8899   -6971.5966   -845.70968     102002.7      46.7237      46.7237      46.7237 
  267000    91.141356   -7427.8871   -6948.6522   -748.93246     102002.7      46.7237      46.7237      46.7237 
  268000    91.553913   -7411.9113   -6930.5072   -1168.0329     102002.7      46.7237      46.7237      46.7237 
  269000    89.981817   -7420.7659   -6947.6281    -754.6822     102002.7      46.7237      46.7237      46.7237 
  270000    92.520425   -7426.9109   -6940.4247   -725.36145     102002.7      46.7237      46.7237      46.7237 
  271000    89.958587   -7424.1508   -6951.1352   -663.49845     102002.7      46.7237      46.7237      46.7237 
  272000    92.739283   -7428.6279   -6940.9909   -623.16086     102002.7      46.7237      46.7237      46.7237 
  273000    90.168842   -7431.6803   -6957.5591   -685.28222     102002.7      46.7237      46.7237      46.7237 
  274000    94.860347   -7413.1819   -6914.3921   -673.93619     102002.7      46.7237      46.7237      46.7237 
  275000    89.284337    -7437.854   -6968.3837   -747.33019     102002.7      46.7237      46.7237      46.7237 
  276000     92.46213    -7426.309   -6940.1293   -723.96967     102002.7      46.7237      46.7237      46.7237 
  277000    94.020754    -7425.591   -6931.2158   -585.96917     102002.7      46.7237      46.7237      46.7237 
  278000    89.492189    -7427.223   -6956.6597    -555.0248     102002.7      46.7237      46.7237      46.7237 
  279000    89.085542   -7417.8253   -6949.4002   -636.78087     102002.7      46.7237      46.7237      46.7237 
  280000    88.160858   -7422.9024   -6959.3395   -860.77884     102002.7      46.7237      46.7237      46.7237 
  281000    87.942639   -7415.2993   -6952.8838   -673.26263     102002.7      46.7237      46.7237      46.7237 
  282000    92.010164   -7402.4977   -6918.6945   -623.87925     102002.7      46.7237      46.7237      46.7237 
  283000    90.227194   -7431.9886   -6957.5606   -604.94961     102002.7      46.7237      46.7237      46.7237 
  284000    92.400426   -7430.9749   -6945.1197    -758.1719     102002.7      46.7237      46.7237      46.7237 
  285000     93.40462   -7427.9793   -6936.8439   -664.00396     102002.7      46.7237      46.7237      46.7237 
  286000    89.957915   -7433.5733   -6960.5612   -464.42067     102002.7      46.7237      46.7237      46.7237 
  287000    90.639445   -7419.4359   -6942.8402    -610.6158     102002.7      46.7237      46.7237      46.7237 
  288000    85.753785   -7424.0429   -6973.1367   -434.87338     102002.7      46.7237      46.7237      46.7237 
  289000    88.348625   -7409.7633    -6945.213   -798.23815     102002.7      46.7237      46.7237      46.7237 
  290000     90.57703   -7425.5722   -6949.3047   -472.76268     102002.7      46.7237      46.7237      46.7237 
  291000    86.834691   -7430.4601   -6973.8703   -783.28236     102002.7      46.7237      46.7237      46.7237 
  292000     89.89935     -7410.55   -6937.8459   -883.08808     102002.7      46.7237      46.7237      46.7237 
  293000    90.582496    -7439.642   -6963.3457   -331.91544     102002.7      46.7237      46.7237      46.7237 
  294000    93.999778   -7434.8172   -6940.5524   -614.37418     102002.7      46.7237      46.7237      46.7237 
  295000      90.5663   -7437.8507   -6961.6396   -550.50396     102002.7      46.7237      46.7237      46.7237 
  296000    91.827358   -7421.7498   -6938.9079   -835.98018     102002.7      46.7237      46.7237      46.7237 
  297000    89.460243   -7429.8333    -6959.438   -774.67375     102002.7      46.7237      46.7237      46.7237 
  298000    89.774629   -7442.1452   -6970.0968   -482.37249     102002.7      46.7237      46.7237      46.7237 
  299000    92.380855   -7420.5276   -6934.7753   -889.07112     102002.7      46.7237      46.7237      46.7237 
  300000    90.417255   -7415.6155   -6940.1881   -673.29903     102002.7      46.7237      46.7237      46.7237 
  301000    90.535584   -7450.2719   -6974.2223   -710.09674     102002.7      46.7237      46.7237      46.7237 
  302000    90.318333    -7422.209   -6947.3017   -966.60445     102002.7      46.7237      46.7237      46.7237 
  303000     88.74982   -7427.0243   -6960.3646   -673.45561     102002.7      46.7237      46.7237      46.7237 
  304000    90.684858   -7443.8222   -6966.9877   -1060.7463     102002.7      46.7237      46.7237      46.7237 
  305000    91.340501   -7428.0788   -6947.7968   -888.35058     102002.7      46.7237      46.7237      46.7237 
  306000    92.663507   -7427.2482   -6940.0097   -715.89253     102002.7      46.7237      46.7237      46.7237 
  307000    90.037607   -7431.6194   -6958.1883     -826.191     102002.7      46.7237      46.7237      46.7237 
  308000    93.088483   -7408.4558   -6918.9827   -761.35277     102002.7      46.7237      46.7237      46.7237 
  309000    91.905555   -7434.2121    -6950.959   -517.14656     102002.7      46.7237      46.7237      46.7237 
  310000    90.284318   -7436.0641   -6961.3357   -682.92762     102002.7      46.7237      46.7237      46.7237 
  311000    93.808685   -7434.7875   -6941.5274   -753.36073     102002.7      46.7237      46.7237      46.7237 
  312000    91.065641   -7441.9947    -6963.158   -800.25892     102002.7      46.7237      46.7237      46.7237 
  313000    93.163839   -7424.3276   -6934.4583   -930.09625     102002.7      46.7237      46.7237      46.7237 
  314000    88.024434   -7424.4329   -6961.5873    -753.0656     102002.7      46.7237      46.7237      46.7237 
  315000    89.129743   -7452.7761   -6984.1186   -630.21199     102002.7      46.7237      46.7237      46.7237 
  316000     92.40155   -7429.2906   -6943.4295    -519.2194     102002.7      46.7237      46.7237      46.7237 
  317000    90.151495    -7428.576    -6954.546   -498.02967     102002.7      46.7237      46.7237      46.7237 
  318000    90.221471   -7428.6624   -6954.2645   -431.27924     102002.7      46.7237      46.7237      46.7237 
  319000    91.117653   -7429.6451   -6950.5349   -582.46555     102002.7      46.7237      46.7237      46.7237 
  320000    91.378041   -7430.4815   -6950.0022     -738.814     102002.7      46.7237      46.7237      46.7237 
  321000    90.569039   -7434.7024   -6958.4769    -583.7107     102002.7      46.7237      46.7237      46.7237 
  322000    90.254852   -7422.3381   -6947.7647    -874.2223     102002.7      46.7237      46.7237      46.7237 
  323000    93.380912   -7425.4005   -6934.3898     -758.748     102002.7      46.7237      46.7237      46.7237 
  324000    91.774185   -7439.9475   -6957.3852   -728.08908     102002.7      46.7237      46.7237      46.7237 
  325000    90.704305   -7408.6868   -6931.7501   -580.76626     102002.7      46.7237      46.7237      46.7237 
  326000    89.332864   -7432.2548   -6962.5293   -866.24687     102002.7      46.7237      46.7237      46.7237 
  327000    95.319499   -7441.2112   -6940.0071   -1008.1155     102002.7      46.7237      46.7237      46.7237 
  328000    91.301884    -7431.639   -6951.5601   -1073.6764     102002.7      46.7237      46.7237      46.7237 
  329000    92.587328    -7433.052    -6946.214   -1066.1077     102002.7      46.7237      46.7237      46.7237 
  330000    91.548654   -7421.0567   -6939.6802   -744.25097     102002.7      46.7237      46.7237      46.7237 
  331000    95.039925   -7426.1908   -6926.4567    -975.9557     102002.7      46.7237      46.7237      46.7237 
  332000    89.229025   -7427.2652   -6958.0857   -848.48549     102002.7      46.7237      46.7237      46.7237 
  333000    91.456431   -7434.5064   -6953.6148   -963.79488     102002.7      46.7237      46.7237      46.7237 
  334000     91.18777   -7422.3472   -6942.8683   -819.96954     102002.7      46.7237      46.7237      46.7237 
  335000    90.402614   -7440.8077   -6965.4573   -716.07322     102002.7      46.7237      46.7237      46.7237 
  336000    91.490209   -7404.1812   -6923.1121   -785.74194     102002.7      46.7237      46.7237      46.7237 
  337000    93.667619   -7436.5313    -6944.013   -843.52542     102002.7      46.7237      46.7237      46.7237 
  338000    92.928468   -7425.1383   -6936.5066   -896.58275     102002.7      46.7237      46.7237      46.7237 
  339000    89.491079   -7434.2031   -6963.6457   -733.86021     102002.7      46.7237      46.7237      46.7237 
  340000    93.023394   -7419.1825   -6930.0516   -787.14424     102002.7      46.7237      46.7237      46.7237 
  341000    92.019068   -7429.9753   -6946.1253   -721.96903     102002.7      46.7237      46.7237      46.7237 
  342000    90.269603    -7433.794    -6959.143   -785.63324     102002.7      46.7237      46.7237      46.7237 
  343000    89.890433   -7423.1362   -6950.4789   -815.29599     102002.7      46.7237      46.7237      46.7237 
  344000    89.393541   -7423.4348   -6953.3903   -714.11967     102002.7      46.7237      46.7237      46.7237 
  345000    90.187398   -7420.2976   -6946.0788   -811.32869     102002.7      46.7237      46.7237      46.7237 
  346000    92.915432   -7444.6113   -6956.0481   -496.47507     102002.7      46.7237      46.7237      46.7237 
  347000     90.72956   -7426.1524   -6949.0829   -804.41465     102002.7      46.7237      46.7237      46.7237 
  348000    90.738679   -7418.5333   -6941.4158   -578.57169     102002.7      46.7237      46.7237      46.7237 
  349000    92.292051   -7418.0949   -6932.8095   -614.16366     102002.7      46.7237      46.7237      46.7237 
  350000     92.89784   -7430.7555   -6942.2848   -600.50259     102002.7      46.7237      46.7237      46.7237 
  351000    90.605888   -7446.8436   -6970.4244   -439.25281     102002.7      46.7237      46.7237      46.7237 
  352000    91.396242   -7428.8392   -6948.2641   -750.76333     102002.7      46.7237      46.7237      46.7237 
  353000    88.872306   -7439.1613   -6971.8575   -574.90004     102002.7      46.7237      46.7237      46.7237 
  354000    90.590158   -7422.5133   -6946.1767   -570.10768     102002.7      46.7237      46.7237      46.7237 
  355000     90.89354   -7448.1478    -6970.216    -706.2813     102002.7      46.7237      46.7237      46.7237 
  356000    88.350671   -7437.6776   -6973.1166   -650.53155     102002.7      46.7237      46.7237      46.7237 
  357000    91.493214   -7424.2758   -6943.1908   -701.02957     102002.7      46.7237      46.7237      46.7237 
  358000    90.681121   -7417.6585   -6940.8437   -855.97717     102002.7      46.7237      46.7237      46.7237 
  359000    90.238928   -7442.0171   -6967.5274   -697.01578     102002.7      46.7237      46.7237      46.7237 
  360000    90.966379   -7441.1628    -6962.848   -603.02328     102002.7      46.7237      46.7237      46.7237 
  361000    90.237913   -7424.0662   -6949.5818   -664.82946     102002.7      46.7237      46.7237      46.7237 
  362000    89.495998   -7440.4053    -6969.822   -690.64103     102002.7      46.7237      46.7237      46.7237 
  363000     90.13312   -7421.1264    -6947.193   -543.24809     102002.7      46.7237      46.7237      46.7237 
  364000    90.111578   -7427.0955   -6953.2754   -578.47227     102002.7      46.7237      46.7237      46.7237 
  365000      90.1944   -7437.4335   -6963.1779    -754.4212     102002.7      46.7237      46.7237      46.7237 
  366000    92.416648   -7410.9067   -6924.9662   -711.05025     102002.7      46.7237      46.7237      46.7237 
  367000    89.491945    -7424.389   -6953.8271    -799.2995     102002.7      46.7237      46.7237      46.7237 
  368000    88.268748   -7436.0078   -6971.8776   -729.23803     102002.7      46.7237      46.7237      46.7237 
  369000     91.59493   -7415.8839   -6934.2641   -470.59909     102002.7      46.7237      46.7237      46.7237 
  370000    90.988627   -7419.8787   -6941.4469   -612.87096     102002.7      46.7237      46.7237      46.7237 
  371000    88.901341   -7438.1109   -6970.6544    -656.0952     102002.7      46.7237      46.7237      46.7237 
  372000    93.043493   -7425.8189   -6936.5824   -881.01468     102002.7      46.7237      46.7237      46.7237 
  373000    94.789176   -7422.6085   -6924.1929   -632.36164     102002.7      46.7237      46.7237      46.7237 
  374000    87.418516   -7421.1464   -6961.4868   -434.65186     102002.7      46.7237      46.7237      46.7237 
  375000    91.186137   -7428.2801   -6948.8098   -616.56492     102002.7      46.7237      46.7237      46.7237 
  376000    90.637642   -7446.3516   -6969.7653   -703.29511     102002.7      46.7237      46.7237      46.7237 
  377000    90.913725   -7424.1873   -6946.1494   -509.21395     102002.7      46.7237      46.7237      46.7237 
  378000    93.196495   -7444.2459   -6954.2048   -533.65949     102002.7      46.7237      46.7237      46.7237 
  379000    88.285459   -7431.9419   -6967.7238   -545.17398     102002.7      46.7237      46.7237      46.7237 
  380000    91.535962   -7415.0321   -6933.7224   -617.10209     102002.7      46.7237      46.7237      46.7237 
  381000    91.893359   -7439.5544   -6956.3655   -588.87228     102002.7      46.7237      46.7237      46.7237 
  382000    88.659735    -7440.222   -6974.0359   -724.46214     102002.7      46.7237      46.7237      46.7237 
  383000    90.744743   -7420.9693   -6943.8199   -664.10543     102002.7      46.7237      46.7237      46.7237 
  384000    93.234962   -7423.2843   -6933.0409   -676.92303     102002.7      46.7237      46.7237      46.7237 
  385000     91.32296   -7422.8002   -6942.6104   -410.35636     102002.7      46.7237      46.7237      46.7237 
  386000    92.132543   -7422.3412   -6937.8946   -554.34617     102002.7      46.7237      46.7237      46.7237 
  387000    94.438626   -7419.0703    -6922.498   -597.32178     102002.7      46.7237      46.7237      46.7237 
  388000    90.984249   -7435.3258   -6956.9171    -701.4101     102002.7      46.7237      46.7237      46.7237 
  389000     92.97637   -7416.8812   -6927.9976   -856.54222     102002.7      46.7237      46.7237      46.7237 
  390000    92.088036   -7435.7039   -6951.4913   -732.06111     102002.7      46.7237      46.7237      46.7237 
  391000     88.68464   -7434.9174   -6968.6003   -687.79873     102002.7      46.7237      46.7237      46.7237 
  392000    91.399121   -7436.6108   -6956.0206   -602.07388     102002.7      46.7237      46.7237      46.7237 
  393000    88.299416   -7436.9482   -6972.6567   -829.26353     102002.7      46.7237      46.7237      46.7237 
  394000    91.752573   -7422.3723   -6939.9236    -918.3171     102002.7      46.7237      46.7237      46.7237 
  395000    90.930416   -7444.9665   -6966.8408   -630.84421     102002.7      46.7237      46.7237      46.7237 
  396000    89.181622   -7423.5412   -6954.6109   -902.54838     102002.7      46.7237      46.7237      46.7237 
  397000    92.327392    -7404.939   -6919.4678   -510.34316     102002.7      46.7237      46.7237      46.7237 
  398000    90.568133   -7433.6613   -6957.4406   -734.24838     102002.7      46.7237      46.7237      46.7237 
  399000    90.533073   -7435.6912   -6959.6548   -855.03878     102002.7      46.7237      46.7237      46.7237 
  400000    93.076447   -7423.9223   -6934.5124   -601.42347     102002.7      46.7237      46.7237      46.7237 
  401000    92.107507   -7423.0882   -6938.7732   -909.76232     102002.7      46.7237      46.7237      46.7237 
  402000    90.586315   -7423.9679   -6947.6515   -669.29655     102002.7      46.7237      46.7237      46.7237 
  403000    89.412223   -7437.1683   -6967.0255   -679.42065     102002.7      46.7237      46.7237      46.7237 
  404000    92.017742   -7421.1733   -6937.3304   -877.04372     102002.7      46.7237      46.7237      46.7237 
  405000    94.725488    -7420.036   -6921.9552    -822.4156     102002.7      46.7237      46.7237      46.7237 
  406000    92.910292   -7439.3675   -6950.8314   -592.14907     102002.7      46.7237      46.7237      46.7237 
  407000    92.215592   -7432.0771   -6947.1938   -701.69056     102002.7      46.7237      46.7237      46.7237 
  408000    90.081154   -7429.6848   -6956.0247    -875.7577     102002.7      46.7237      46.7237      46.7237 
  409000    91.220017   -7434.9613   -6955.3128   -653.79637     102002.7      46.7237      46.7237      46.7237 
  410000    87.485244   -7424.8761   -6964.8657   -735.54548     102002.7      46.7237      46.7237      46.7237 
  411000    90.767377   -7423.2887   -6946.0204   -763.36625     102002.7      46.7237      46.7237      46.7237 
  412000    91.162636   -7422.6348   -6943.2881   -664.27422     102002.7      46.7237      46.7237      46.7237 
  413000    88.657572    -7422.342   -6956.1673   -698.81887     102002.7      46.7237      46.7237      46.7237 
  414000    89.240446   -7419.8596   -6950.6201   -551.25076     102002.7      46.7237      46.7237      46.7237 
  415000    89.775079   -7424.9318    -6952.881   -705.95178     102002.7      46.7237      46.7237      46.7237 
  416000    93.318254   -7461.0972   -6970.4159   -374.10397     102002.7      46.7237      46.7237      46.7237 
  417000     91.02537   -7445.6623   -6967.0374   -880.36065     102002.7      46.7237      46.7237      46.7237 
  418000    91.365632   -7426.0557   -6945.6416   -894.59051     102002.7      46.7237      46.7237      46.7237 
  419000     92.47861   -7436.4129   -6950.1466   -656.69255     102002.7      46.7237      46.7237      46.7237 
  420000    88.905201   -7431.7521   -6964.2753   -926.25351     102002.7      46.7237      46.7237      46.7237 
  421000    92.937335   -7436.0534    -6947.375   -674.79981     102002.7      46.7237      46.7237      46.7237 
  422000    87.545464   -7436.0589   -6975.7318   -900.63855     102002.7      46.7237      46.7237      46.7237 
  423000    89.896814   -7415.9064   -6943.2156   -862.11479     102002.7      46.7237      46.7237      46.7237 
  424000      87.8574   -7426.5915   -6964.6242   -804.55092     102002.7      46.7237      46.7237      46.7237 
  425000    88.118433   -7429.6002   -6966.2603   -972.13579     102002.7      46.7237      46.7237      46.7237 
  426000    90.473562   -7411.2263   -6935.5029    -824.1728     102002.7      46.7237      46.7237      46.7237 
  427000    87.632494   -7426.0598   -6965.2751   -1047.1618     102002.7      46.7237      46.7237      46.7237 
  428000    89.736673   -7417.5185   -6945.6697   -1048.5977     102002.7      46.7237      46.7237      46.7237 
  429000    91.128816   -7435.8246   -6956.6557   -883.59115     102002.7      46.7237      46.7237      46.7237 
  430000    90.068318   -7417.5048   -6943.9122   -865.06032     102002.7      46.7237      46.7237      46.7237 
  431000    93.612072   -7418.3653   -6926.1391   -838.64927     102002.7      46.7237      46.7237      46.7237 
  432000    89.905982   -7437.7025   -6964.9634   -994.18394     102002.7      46.7237      46.7237      46.7237 
  433000    92.003165   -7429.1317   -6945.3653   -912.24906     102002.7      46.7237      46.7237      46.7237 
  434000     88.95009   -7424.2324   -6956.5196   -511.78458     102002.7      46.7237      46.7237      46.7237 
  435000    92.189777   -7442.1317   -6957.3841   -642.35163     102002.7      46.7237      46.7237      46.7237 
  436000    92.059553   -7419.1485   -6935.0857   -515.04397     102002.7      46.7237      46.7237      46.7237 
  437000     92.85438   -7437.1994   -6948.9572   -608.38362     102002.7      46.7237      46.7237      46.7237 
  438000    91.151541   -7444.6845   -6965.3961   -705.51799     102002.7      46.7237      46.7237      46.7237 
  439000    90.350401   -7422.0738   -6946.9979   -283.29882     102002.7      46.7237      46.7237      46.7237 
  440000     90.91103   -7433.4033   -6955.3796   -586.33223     102002.7      46.7237      46.7237      46.7237 
  441000    91.189967   -7433.4477   -6953.9572   -747.98002     102002.7      46.7237      46.7237      46.7237 
  442000     94.64241   -7414.6124   -6916.9685   -599.45048     102002.7      46.7237      46.7237      46.7237 
  443000    91.135577   -7431.1887   -6951.9842   -608.16298     102002.7      46.7237      46.7237      46.7237 
  444000    92.063476   -7425.5611   -6941.4776   -948.85514     102002.7      46.7237      46.7237      46.7237 
  445000    90.589166   -7415.9902   -6939.6589   -509.31279     102002.7      46.7237      46.7237      46.7237 
  446000    90.601584   -7437.7715   -6961.3749    -775.6467     102002.7      46.7237      46.7237      46.7237 
  447000    88.962762   -7425.5322   -6957.7527   -592.78058     102002.7      46.7237      46.7237      46.7237 
  448000    91.791951   -7421.3408    -6938.685   -751.66256     102002.7      46.7237      46.7237      46.7237 
  449000    90.969662   -7442.0926   -6963.7606   -609.43415     102002.7      46.7237      46.7237      46.7237 
  450000    91.507998   -7420.0532   -6938.8906   -889.81243     102002.7      46.7237      46.7237      46.7237 
  451000    92.117316   -7424.4899   -6940.1233   -812.40282     102002.7      46.7237      46.7237      46.7237 
  452000    90.536655   -7429.8378   -6953.7826   -432.84914     102002.7      46.7237      46.7237      46.7237 
  453000    89.842788   -7434.1846   -6961.7778   -667.27327     102002.7      46.7237      46.7237      46.7237 
  454000    92.773822   -7426.6389   -6938.8204   -700.81921     102002.7      46.7237      46.7237      46.7237 
  455000    91.529896   -7423.7151   -6942.4373   -609.90444     102002.7      46.7237      46.7237      46.7237 
  456000    93.917411   -7443.6937    -6949.862   -678.90735     102002.7      46.7237      46.7237      46.7237 
  457000    89.894054   -7432.8456   -6960.1693   -600.35053     102002.7      46.7237      46.7237      46.7237 
  458000    88.868708     -7436.78   -6969.4951   -813.52697     102002.7      46.7237      46.7237      46.7237 
  459000    91.498955   -7420.9625   -6939.8474   -828.91504     102002.7      46.7237      46.7237      46.7237 
  460000    91.114652   -7431.7462   -6952.6518   -772.93147     102002.7      46.7237      46.7237      46.7237 
  461000    90.782946   -7432.2574   -6954.9071   -649.55921     102002.7      46.7237      46.7237      46.7237 
  462000    91.707666   -7427.8799   -6945.6674   -548.19432     102002.7      46.7237      46.7237      46.7237 
  463000    90.943456   -7447.6685   -6969.4742   -692.87683     102002.7      46.7237      46.7237      46.7237 
  464000    87.612059   -7408.5602   -6947.8829   -878.98301     102002.7      46.7237      46.7237      46.7237 
  465000    92.425142   -7432.7689   -6946.7837   -679.38483     102002.7      46.7237      46.7237      46.7237 
  466000    94.331945   -7429.0752   -6933.0638   -829.96232     102002.7      46.7237      46.7237      46.7237 
  467000    89.654591   -7422.9787   -6951.5615   -805.60221     102002.7      46.7237      46.7237      46.7237 
  468000    91.261904   -7419.9956    -6940.127   -815.12362     102002.7      46.7237      46.7237      46.7237 
  469000    90.527194   -7453.4356   -6977.4301   -598.78569     102002.7      46.7237      46.7237      46.7237 
  470000     90.37513   -7426.7368   -6951.5309    -707.8595     102002.7      46.7237      46.7237      46.7237 
  471000    91.388045   -7416.6011   -6936.0691    -741.3532     102002.7      46.7237      46.7237      46.7237 
  472000    87.612341   -7417.3017   -6956.6229   -596.74622     102002.7      46.7237      46.7237      46.7237 
  473000    95.036327   -7420.7717   -6921.0565   -901.94572     102002.7      46.7237      46.7237      46.7237 
  474000    92.165833   -7428.1551   -6943.5334   -591.78915     102002.7      46.7237      46.7237      46.7237 
  475000    87.622714   -7432.2577   -6971.5244   -931.20221     102002.7      46.7237      46.7237      46.7237 
  476000    90.944228   -7429.3293    -6951.131   -684.94722     102002.7      46.7237      46.7237      46.7237 
  477000     92.55715   -7427.3096   -6940.6303   -578.99099     102002.7      46.7237      46.7237      46.7237 
  478000    90.723779   -7441.6611    -6964.622   -601.78158     102002.7      46.7237      46.7237      46.7237 
  479000    90.705363   -7431.8166   -6954.8743   -546.46327     102002.7      46.7237      46.7237      46.7237 
  480000    92.670226   -7424.1817   -6936.9079   -633.33416     102002.7      46.7237      46.7237      46.7237 
  481000    91.142936   -7416.7987   -6937.5556   -661.20736     102002.7      46.7237      46.7237      46.7237 
  482000    88.666011   -7436.3456   -6970.1266   -874.22676     102002.7      46.7237      46.7237      46.7237 
  483000    93.794085   -7434.1596   -6940.9763   -776.05282     102002.7      46.7237      46.7237      46.7237 
  484000    93.514453   -7425.0905   -6933.3776   -798.28076     102002.7      46.7237      46.7237      46.7237 
  485000    91.354212   -7423.2198   -6942.8657   -627.22372     102002.7      46.7237      46.7237      46.7237 
  486000    91.978482   -7429.2035   -6945.5669   -620.48517     102002.7      46.7237      46.7237      46.7237 
  487000    92.438664   -7426.3495   -6940.2933   -667.78317     102002.7      46.7237      46.7237      46.7237 
  488000    91.759748    -7434.507   -6952.0206   -651.35915     102002.7      46.7237      46.7237      46.7237 
  489000    93.098423    -7427.206   -6937.6806    -500.3404     102002.7      46.7237      46.7237      46.7237 
  490000    90.251752   -7427.8405   -6953.2833   -791.92104     102002.7      46.7237      46.7237      46.7237 
  491000    91.390464   -7436.2211   -6955.6765   -687.37371     102002.7      46.7237      46.7237      46.7237 
  492000    90.334833   -7445.0385   -6970.0445   -662.34607     102002.7      46.7237      46.7237      46.7237 
  493000    91.111297   -7421.3018   -6942.2251   -704.52941     102002.7      46.7237      46.7237      46.7237 
  494000    89.370592   -7422.9879    -6953.064   -691.74141     102002.7      46.7237      46.7237      46.7237 
  495000    94.358887   -7414.8084   -6918.6554   -597.37147     102002.7      46.7237      46.7237      46.7237 
  496000    91.932259   -7420.5177   -6937.1242   -618.04562     102002.7      46.7237      46.7237      46.7237 
  497000    90.873499   -7417.0789   -6939.2525   -472.92962     102002.7      46.7237      46.7237      46.7237 
  498000     91.83604   -7406.5649   -6923.6773   -611.06783     102002.7      46.7237      46.7237      46.7237 
  499000    89.624379    -7425.252   -6953.9937   -487.28411     102002.7      46.7237      46.7237      46.7237 
  500000     92.47257   -7399.1125    -6912.878   -661.88216     102002.7      46.7237      46.7237      46.7237 
  500504    91.158869   -7420.6372   -6941.3103   -745.25915     102002.7      46.7237      46.7237      46.7237 
Loop time of 1292.1 on 16 procs for 500000 steps with 1765 atoms

Performance: 33.434 ns/day, 0.718 hours/ns, 386.968 timesteps/s
99.8% CPU use with 16 MPI tasks x no OpenMP threads

MPI task timing breakdown:
Section |  min time  |  avg time  |  max time  |%varavg| %total
---------------------------------------------------------------
Pair    | 513.99     | 692.34     | 898.75     | 466.9 | 53.58
Bond    | 164.19     | 174.01     | 185.08     |  42.1 | 13.47
Neigh   | 3.9206     | 3.9642     | 3.9973     |   1.2 |  0.31
Comm    | 195.68     | 408.54     | 585.93     | 611.9 | 31.62
Output  | 0.020916   | 0.021292   | 0.024505   |   0.6 |  0.00
Modify  | 7.253      | 7.9166     | 8.6877     |  17.4 |  0.61
Other   |            | 5.302      |            |       |  0.41

Nlocal:    110.312 ave 134 max 85 min
Histogram: 1 1 1 4 0 2 2 3 1 1
Nghost:    2236.81 ave 2268 max 2210 min
Histogram: 1 2 2 2 1 3 2 1 1 1
Neighs:    11443.4 ave 17192 max 8339 min
Histogram: 4 3 1 1 3 1 1 0 1 1

Total # of neighbors = 183095
Ave neighs/atom = 103.737
Ave special neighs/atom = 6.52691
Neighbor list builds = 3272
Dangerous builds = 0
Neighbor list info ...
  update every 1 steps, delay 10 steps, check yes
  max neighbors/atom: 2000, page size: 100000
  master list distance cutoff = 16
  ghost atom cutoff = 16
  binsize = 8, bins = 6 6 6
  3 neighbor lists, perpetual/occasional/extra = 3 0 0
  (1) pair buck6d/coul/gauss/dsf, perpetual, skip from (3)
      attributes: half, newton on
      pair build: skip
      stencil: none
      bin: none
  (2) pair lj/cut, perpetual, skip from (3)
      attributes: half, newton on
      pair build: skip
      stencil: none
      bin: none
  (3) neighbor class addition, perpetual
      attributes: half, newton on
      pair build: half/bin/newton
      stencil: half/bin/3d/newton
      bin: standard
Setting up Verlet run ...
  Unit style    : real
  Current step  : 500504
  Time step     : 1
WARNING: Inconsistent image flags (../domain.cpp:786)
Per MPI rank memory allocation (min/avg/max) = 23.15 | 23.31 | 23.34 Mbytes
Step Time TotEng KinEng PotEng E_mol E_pair Temp Pxx Pyy Pzz Pxy Pxz Pyz Cella Cellb Cellc CellAlpha CellBeta CellGamma Volume Press 
  500504       500000   -6941.3103    479.32691   -7420.6372    4231.3834   -11652.021    91.158869   -705.56543    -897.9556   -632.25643   -184.11315    148.59067   -41.177967      46.7237      46.7237      46.7237           90           90           90     102002.7   -745.25915 
  501000       500496   -6949.0302     489.6761   -7438.7063    4202.1148   -11640.821    93.127088   -645.23515   -891.60054   -569.26105    -107.9706    -274.0643   0.87926444      46.7237      46.7237      46.7237           90           90           90     102002.7   -702.03224 
  502000       501496   -6964.4668    466.30761   -7430.7744    4216.8595   -11647.634    88.682846   -388.40676    -324.8678   -593.78548   -25.236401   -121.42668   -91.192387      46.7237      46.7237      46.7237           90           90           90     102002.7   -435.68668 
  503000       502496   -6941.7688    474.69592   -7416.4647    4223.3751    -11639.84    90.278144   -1200.7446   -511.66941   -574.50959   -39.654686   -58.010705   -82.639147      46.7237      46.7237      46.7237           90           90           90     102002.7   -762.30788 
  504000       503496   -6927.6671    494.14313   -7421.8102     4226.734   -11648.544    93.976632   -480.75069   -804.48642   -724.28616    170.31901   -68.180786    250.64662      46.7237      46.7237      46.7237           90           90           90     102002.7   -669.84109 
  505000       504496   -6961.1068    465.07517   -7426.1819    4216.3042   -11642.486    88.448459   -854.45424   -678.76469   -514.87707    111.76135   -214.10368    69.076868      46.7237      46.7237      46.7237           90           90           90     102002.7   -682.69866 
  506000       505496   -6947.2283     473.7714   -7420.9997    4217.3599    -11638.36    90.102318    -594.4929   -814.94787   -948.24502   -42.344504   -129.51969    150.96566      46.7237      46.7237      46.7237           90           90           90     102002.7   -785.89526 
  507000       506496    -6949.575     478.6916   -7428.2666    4214.3809   -11642.648    91.038045     -531.193   -817.25366   -947.35602    101.03472    142.55808   -194.80115      46.7237      46.7237      46.7237           90           90           90     102002.7   -765.26756 
  508000       507496   -6950.6453    482.98866   -7433.6339    4195.5042   -11629.138    91.855263   -630.83555    -678.3335   -836.80711    34.515137    137.81537    141.13237      46.7237      46.7237      46.7237           90           90           90     102002.7   -715.32539 
  509000       508496   -6932.9398    479.57418    -7412.514    4218.5777   -11631.092    91.205894   -462.14898   -1032.7844   -509.75852    87.481788   -170.55046   -44.885489      46.7237      46.7237      46.7237           90           90           90     102002.7   -668.23063 
  510000       509496   -6954.1715    480.59526   -7434.7668    4202.8377   -11637.604    91.400086   -861.10137   -823.31072   -572.85147     136.9282   -87.401599   -140.19971      46.7237      46.7237      46.7237           90           90           90     102002.7   -752.42119 
  511000       510496   -6925.9906    493.20035    -7419.191    4228.0159   -11647.207    93.797334   -620.68235   -684.32677   -657.75141    230.32246      96.9173   -95.046437      46.7237      46.7237      46.7237           90           90           90     102002.7   -654.25351 
  512000       511496   -6953.0895    473.67639   -7426.7659    4212.0405   -11638.806    90.084247   -601.39556   -843.66917   -590.57974   -201.95006     20.81652    199.92124      46.7237      46.7237      46.7237           90           90           90     102002.7   -678.54816 
  513000       512496    -6948.271    474.68002    -7422.951    4229.7648   -11652.716    90.275119   -453.95335   -530.63413   -859.67729   -6.6476257    81.437463   -271.73145      46.7237      46.7237      46.7237           90           90           90     102002.7   -614.75492 
  514000       513496   -6945.2582    489.58427   -7434.8425    4201.8165   -11636.659    93.109625   -906.80466   -1000.9942   -512.42492   -112.30454   -113.35637    21.572936      46.7237      46.7237      46.7237           90           90           90     102002.7   -806.74127 
  515000       514496   -6956.9235    476.58401   -7433.5075    4212.4508   -11645.958    90.637222   -766.05463   -189.12152   -1287.8407    155.62542     258.7785    38.414271      46.7237      46.7237      46.7237           90           90           90     102002.7    -747.6723 
  516000       515496   -6924.6654      489.808   -7414.4734    4227.4821   -11641.955    93.152173   -575.62096   -579.35373   -962.44331    172.09182    132.68622    59.043037      46.7237      46.7237      46.7237           90           90           90     102002.7     -705.806 
  517000       516496   -6936.4937    486.88461   -7423.3783    4212.3679   -11635.746    92.596201     -1121.95   -916.26131   -877.06933   -45.944166    19.492281    121.68042      46.7237      46.7237      46.7237           90           90           90     102002.7   -971.76022 
  518000       517496   -6942.3147    493.69951   -7436.0142    4214.9165   -11650.931    93.892264   -541.25727   -788.81321   -1043.6708    151.05073    307.09353     -39.6824      46.7237      46.7237      46.7237           90           90           90     102002.7    -791.2471 
  519000       518496   -6961.2463    472.36284   -7433.6091    4195.3495   -11628.959    89.834436    -645.1954   -1049.5793   -878.76718    142.03545   -214.15094    73.647733      46.7237      46.7237      46.7237           90           90           90     102002.7   -857.84728 
  520000       519496   -6954.0311    484.88041   -7438.9115    4220.8688    -11659.78     92.21504   -1035.8845   -548.55424   -872.69208   -161.29917    48.857087    -180.7336      46.7237      46.7237      46.7237           90           90           90     102002.7   -819.04362 
  521000       520496    -6908.889    486.26407   -7395.1531    4259.6806   -11654.834    92.478186    -929.4145   -927.16455   -621.64915   -46.705707    46.613894   -61.180442      46.7237      46.7237      46.7237           90           90           90     102002.7   -826.07606 
  522000       521496   -6953.7129    475.34759   -7429.0605    4217.6427   -11646.703    90.402079   -505.58667    -480.3635    -831.1749    211.87064   -99.938604   -122.66387      46.7237      46.7237      46.7237           90           90           90     102002.7   -605.70835 
  523000       522496   -6950.5111    482.76082    -7433.272     4212.874   -11646.146    91.811934   -1035.1527   -477.38879    -876.6626   -85.360446    44.180245    44.840411      46.7237      46.7237      46.7237           90           90           90     102002.7   -796.40137 
  524000       523496   -6926.9279    485.41307   -7412.3409    4227.5058   -11639.847    92.316341   -665.48441   -631.94869   -1164.2432   -176.86486   -4.6519796    244.57287      46.7237      46.7237      46.7237           90           90           90     102002.7   -820.55878 
  525000       524496   -6950.2482    468.77445   -7419.0227     4227.264   -11646.287    89.151991   -737.13503   -1080.5067   -698.07859   -182.52199   -139.15258   0.62524777      46.7237      46.7237      46.7237           90           90           90     102002.7   -838.57343 
  526000       525496   -6960.5775    466.72807   -7427.3056     4214.797   -11642.103    88.762808   -524.57226   -523.12029   -983.99996   -294.31713   -48.672821    219.42553      46.7237      46.7237      46.7237           90           90           90     102002.7   -677.23084 
  527000       526496   -6935.5273    489.47433   -7425.0016    4228.8698   -11653.871    93.088715   -436.97402   -503.59897   -523.90309   -5.0809335   -27.186294    92.789306      46.7237      46.7237      46.7237           90           90           90     102002.7   -488.15869 
  528000       527496      -6937.9    483.54484   -7421.4448    4234.2514   -11655.696    91.961039   -893.20528   -1056.1699   -1173.9394   -32.717407   -55.842329    412.22156      46.7237      46.7237      46.7237           90           90           90     102002.7   -1041.1049 
  529000       528496    -6946.959    487.13505    -7434.094    4201.5511   -11635.645     92.64383   -735.69327   -436.64176   -789.18667   -125.00178    144.63332    3.8343479      46.7237      46.7237      46.7237           90           90           90     102002.7   -653.84057 
  530000       529496   -6955.0657    474.95061   -7430.0163    4204.3839     -11634.4    90.326579   -379.75025   -721.58844   -564.80086    72.730533   -147.09494    159.28331      46.7237      46.7237      46.7237           90           90           90     102002.7   -555.37985 
  531000       530496   -6967.5508    481.04392   -7448.5947    4204.6118   -11653.207    91.485412   -896.22099   -910.16335   -1188.6632    155.43322   -31.276291    114.11637      46.7237      46.7237      46.7237           90           90           90     102002.7   -998.34919 
  532000       531496    -6938.478    476.97464   -7415.4526    4243.5853   -11659.038    90.711512    -416.4285   -46.864499   -792.44436   -159.89019   -107.61769    265.29765      46.7237      46.7237      46.7237           90           90           90     102002.7   -418.57912 
  533000       532496   -6951.6404    478.13377   -7429.7742    4220.0042   -11649.778    90.931957   -1130.9204   -1018.1095   -994.52357    1.8264736    137.89211    111.30793      46.7237      46.7237      46.7237           90           90           90     102002.7   -1047.8511 
  534000       533496   -6928.0114    471.27267   -7399.2841    4259.1586   -11658.443    89.627106   -716.80394     -917.791   -859.71124    79.492351     44.41147     92.71018      46.7237      46.7237      46.7237           90           90           90     102002.7   -831.43539 
  535000       534496   -6946.1663     490.6278   -7436.7941    4209.9817   -11646.776    93.308084   -469.10184   -204.76887   -715.68768   -195.72717    75.738015   -91.813052      46.7237      46.7237      46.7237           90           90           90     102002.7   -463.18613 
  536000       535496   -6935.2741    492.58006   -7427.8542    4237.2083   -11665.063    93.679366   -957.72721    -834.1156   -891.28136   -166.14024    147.25348    156.43713      46.7237      46.7237      46.7237           90           90           90     102002.7   -894.37472 
  537000       536496   -6982.4337    468.29636     -7450.73    4191.9868   -11642.717    89.061068   -320.01611   -1096.0978   -296.86231    83.925724   -92.630796   -77.990761      46.7237      46.7237      46.7237           90           90           90     102002.7   -570.99208 
  538000       537496   -6943.5077    486.54262   -7430.0503    4205.1677   -11635.218    92.531159   -749.10834    -776.9217   -737.78852   -105.26017    -74.82631    36.408817      46.7237      46.7237      46.7237           90           90           90     102002.7   -754.60619 
  539000       538496   -6953.5138     475.9438   -7429.4576    4216.4638   -11645.921    90.515466   -722.81229   -652.11687   -680.46241   -13.621027     25.70882    22.472783      46.7237      46.7237      46.7237           90           90           90     102002.7   -685.13052 
  540000       539496   -6962.4626    472.72705   -7435.1896    4194.3814   -11629.571    89.903702   -581.81058    -730.0611    -550.1491   -57.375099    149.18786   -13.053566      46.7237      46.7237      46.7237           90           90           90     102002.7   -620.67359 
  541000       540496   -6955.6702    468.80089   -7424.4711    4224.0053   -11648.476    89.157021    -597.3192   -695.34759   -853.82487    3.5998899    320.09386   -243.76723      46.7237      46.7237      46.7237           90           90           90     102002.7   -715.49722 
  542000       541496   -6941.1809    473.25839   -7414.4392    4227.0873   -11641.527    90.004752   -580.81762   -834.69594   -613.44222   -157.23966   -121.12629   -51.086339      46.7237      46.7237      46.7237           90           90           90     102002.7    -676.3186 
  543000       542496   -6968.2579     460.7359   -7428.9938    4237.8082   -11666.802    87.623213   -845.42007    -1138.428   -671.51148    74.889019    83.662392    151.25207      46.7237      46.7237      46.7237           90           90           90     102002.7   -885.11984 
  544000       543496   -6955.5895    472.72714   -7428.3166    4211.7303   -11640.047    89.903719   -512.93752   -528.96751   -171.16648   -62.438738   -282.92424   -201.06476      46.7237      46.7237      46.7237           90           90           90     102002.7   -404.35717 
  545000       544496   -6965.4886    479.33325   -7444.8219    4194.6059   -11639.428    91.160076   -352.77298   -955.29561   -1132.7801   -29.566759   -196.48887    12.660288      46.7237      46.7237      46.7237           90           90           90     102002.7   -813.61624 
  546000       545496   -6934.4072    484.26655   -7418.6737    4233.4882   -11652.162    92.098294   -692.59575   -623.33113   -684.04097    140.26583   -93.801452   -93.000447      46.7237      46.7237      46.7237           90           90           90     102002.7   -666.65595 
  547000       546496   -6970.8775    462.98299   -7433.8605    4210.4045   -11644.265    88.050566   -684.99538   -798.34347   -631.85432    170.21996   -122.31573   -222.33123      46.7237      46.7237      46.7237           90           90           90     102002.7   -705.06439 
  548000       547496   -6957.7977      480.001   -7437.7987    4195.6331   -11633.432    91.287069   -534.54309   -897.03617     -947.145   -147.77818    29.613841   -173.13458      46.7237      46.7237      46.7237           90           90           90     102002.7   -792.90808 
  549000       548496   -6895.8498     492.0024   -7387.8522    4254.3059   -11642.158    93.569506   -650.69788   -683.06681   -581.21728     170.0085    70.740558   -126.71147      46.7237      46.7237      46.7237           90           90           90     102002.7   -638.32732 
  550000       549496   -6975.0244    470.39945   -7445.4238    4183.2158    -11628.64    89.461036   -1069.2172   -665.79096   -1108.6761   -112.05021    -82.14985   -314.97608      46.7237      46.7237      46.7237           90           90           90     102002.7   -947.89475 
  551000       550496   -6942.7764    489.21454    -7431.991    4216.8802   -11648.871    93.039308   -399.75926   -736.42991   -877.30699   -52.786231    44.279133     -30.7605      46.7237      46.7237      46.7237           90           90           90     102002.7   -671.16539 
  552000       551496   -6971.7006    473.34816   -7445.0488    4193.8676   -11638.916    90.021825   -713.25364   -465.54569     -946.772   -144.32224   -53.012895    67.801402      46.7237      46.7237      46.7237           90           90           90     102002.7   -708.52378 
  553000       552496   -6955.6422    474.47859   -7430.1208     4228.367   -11658.488    90.236811   -1079.9323   -624.62383   -1064.0147   -134.78678   -22.663365    35.732656      46.7237      46.7237      46.7237           90           90           90     102002.7   -922.85696 
  554000       553496   -6945.6598    478.65548   -7424.3153    4224.7183   -11649.034    91.031175   -508.67896   -1149.4762   -1123.4631   -93.481212   -57.173168   -48.831036      46.7237      46.7237      46.7237           90           90           90     102002.7    -927.2061 
  555000       554496   -6946.0349    479.55003   -7425.5849    4198.3628   -11623.948    91.201303   -637.49631   -773.92929   -1020.1355   -106.59867   -198.67566    25.420807      46.7237      46.7237      46.7237           90           90           90     102002.7   -810.52035 
[...]
  936000       935496   -6979.3214    451.37463    -7430.696    4221.5629   -11652.259    85.842876   -1263.7655   -714.82173   -481.49863     38.33626    221.19735   -96.997029      46.7237      46.7237      46.7237           90           90           90     102002.7   -820.02863 
  937000       936496   -6936.2893     491.3056   -7427.5949    4223.6605   -11651.255    93.436989   -829.65298   -543.07203   -355.36295   -211.22035   -99.533873    150.30094      46.7237      46.7237      46.7237           90           90           90     102002.7   -576.02932 
  938000       937496    -6947.692    476.79135   -7424.4833    4225.7366    -11650.22    90.676654   -833.36866    -1069.712   -292.99717    173.19894    229.59476     145.9859      46.7237      46.7237      46.7237           90           90           90     102002.7   -732.02593 
  939000       938496   -6921.8812    496.62921   -7418.5104    4222.6221   -11641.132    94.449438   -964.36305   -395.01589    -480.1253    36.282388   -15.891333   -7.1199314      46.7237      46.7237      46.7237           90           90           90     102002.7   -613.16808 
  940000       939496    -6941.958    474.05258   -7416.0106    4222.5535   -11638.564    90.155792    -561.8487   -553.52524   -632.68573    79.975208   -206.41948    168.04894      46.7237      46.7237      46.7237           90           90           90     102002.7   -582.68656 
  941000       940496   -6965.4011    484.35319   -7449.7543    4193.0741   -11642.828    92.114773   -640.58989   -937.52095   -396.53996    40.717655    191.15864    14.621022      46.7237      46.7237      46.7237           90           90           90     102002.7   -658.21693 
  942000       941496   -6956.3122    472.53933   -7428.8515    4219.1919   -11648.043    89.868001   -857.79742   -350.97955    -853.1106    49.575049   -87.767092   -20.739205      46.7237      46.7237      46.7237           90           90           90     102002.7   -687.29586 
  943000       942496   -6966.3434    469.99359    -7436.337    4196.9297   -11633.267    89.383849   -421.01224   -398.69858   -916.66047    311.71567    55.564317  -0.43639947      46.7237      46.7237      46.7237           90           90           90     102002.7   -578.79043 
  944000       943496   -6948.4593     477.5463   -7426.0056    4215.0201   -11641.026    90.820231   -540.09228   -628.28321   -576.88251   -13.646794   -7.0335613   -45.548285      46.7237      46.7237      46.7237           90           90           90     102002.7   -581.75267 
  945000       944496   -6949.8484     471.4114   -7421.2599     4225.568   -11646.828     89.65349   -447.72887   -771.85149   -464.38984   -4.3264954    28.461911    191.62259      46.7237      46.7237      46.7237           90           90           90     102002.7    -561.3234 
  946000       945496   -6929.4949    487.39242   -7416.8873    4229.2374   -11646.125    92.692777   -245.74471   -200.12946    -889.1037    85.605406   -50.380242    228.27809      46.7237      46.7237      46.7237           90           90           90     102002.7   -444.99262 
  947000       946496   -6954.2455    470.01643    -7424.262     4198.519   -11622.781    89.388192   -360.20906   -576.72763   -874.75747   -234.65687    100.54514    133.98384      46.7237      46.7237      46.7237           90           90           90     102002.7   -603.89805 
  948000       947496   -6974.0327    475.12866   -7449.1614    4185.5692   -11634.731    90.360442   -535.79707   -987.75438   -460.46402   -7.7000989    46.641823    162.45378      46.7237      46.7237      46.7237           90           90           90     102002.7   -661.33849 
  949000       948496   -6958.7651    482.66507   -7441.4302    4219.0558   -11660.486    91.793724   -863.16481   -883.67115   -771.00175   -27.739129    163.77091    7.7046039      46.7237      46.7237      46.7237           90           90           90     102002.7   -839.27924 
  950000       949496   -6913.2389    510.83509   -7424.0739    4215.3355   -11639.409    97.151126    -832.5764   -355.50928   -952.52086   -166.68207    27.092357    63.353127      46.7237      46.7237      46.7237           90           90           90     102002.7   -713.53551 
  951000       950496   -6950.5148    479.20088   -7429.7157    4208.3978   -11638.114    91.134901   -687.18878   -523.97494   -667.63707   -60.996493    1.2651437    29.207041      46.7237      46.7237      46.7237           90           90           90     102002.7   -626.26693 
  952000       951496   -6936.6554    487.37741   -7424.0329    4207.6741   -11631.707     92.68992   -332.76024   -661.70706   -620.61864    185.22365     149.2576    89.306458      46.7237      46.7237      46.7237           90           90           90     102002.7   -538.36198 
  953000       952496   -6952.2576    476.80117   -7429.0587    4225.6113    -11654.67    90.678521   -657.45984   -639.07853   -350.40509   -105.74528    130.47926    112.81289      46.7237      46.7237      46.7237           90           90           90     102002.7   -548.98115 
  954000       953496    -6946.706    480.85379   -7427.5597    4218.8608   -11646.421    91.449252   -887.77776   -405.99072   -632.84603    -3.667773   -126.26421     88.42189      46.7237      46.7237      46.7237           90           90           90     102002.7   -642.20484 
  955000       954496   -6954.7784    481.06164   -7435.8401    4206.5736   -11642.414    91.488781   -326.14501     -1059.16   -583.57527   -30.701612   -14.332221   -6.9470324      46.7237      46.7237      46.7237           90           90           90     102002.7   -656.29341 
  956000       955496   -6943.7365     483.0374   -7426.7738    4216.2509   -11643.025    91.864533   -892.10031   -550.99821   -890.32588   -141.95912   -39.848037    -132.7346      46.7237      46.7237      46.7237           90           90           90     102002.7   -777.80813 
  957000       956496   -6965.4808    471.27828   -7436.7591    4217.7982   -11654.557    89.628173   -647.03819   -569.20724   -577.51569   -63.236921    64.564001    53.064087      46.7237      46.7237      46.7237           90           90           90     102002.7   -597.92037 
  958000       957496    -6944.341     475.4696   -7419.8106    4217.8956   -11637.706    90.425282   -789.61215   -1093.1521    -538.6716   -200.92217   -71.551607    135.06117      46.7237      46.7237      46.7237           90           90           90     102002.7   -807.14528 
  959000       958496   -6969.7614    470.48835   -7440.2498    4205.4653   -11645.715    89.477942   -762.66121   -928.85472   -512.02061    47.764023    25.619664   -29.637929      46.7237      46.7237      46.7237           90           90           90     102002.7   -734.51218 
  960000       959496   -6945.0271    487.88741   -7432.9145    4220.4492   -11653.364    92.786913   -614.38393   -1077.7523    -956.8188    276.60997    18.528775    149.25468      46.7237      46.7237      46.7237           90           90           90     102002.7   -882.98502 
  961000       960496   -6972.6265    471.55013   -7444.1767    4206.2193   -11650.396    89.679873   -758.07137   -737.99703   -757.94464   -87.726247   -156.62865    161.63354      46.7237      46.7237      46.7237           90           90           90     102002.7   -751.33768 
  962000       961496   -6947.3032      478.999   -7426.3022    4220.8283    -11647.13    91.096506   -528.21286   -1016.6119   -582.59534    63.241986   -42.799465    -183.2319      46.7237      46.7237      46.7237           90           90           90     102002.7   -709.14002 
  963000       962496   -6956.0356    476.63334   -7432.6689    4218.3268   -11650.996    90.646603   -747.64191   -473.72781   -1323.1919    237.87451    38.370962   -197.39781      46.7237      46.7237      46.7237           90           90           90     102002.7   -848.18722 
  964000       963496   -6925.9319      481.141   -7407.0729    4235.1189   -11642.192    91.503875   -876.58177    -900.2556   -895.07584    8.4306647     95.77959    44.343503      46.7237      46.7237      46.7237           90           90           90     102002.7   -890.63774 
  965000       964496   -6953.8029     473.2645   -7427.0674    4224.3311   -11651.399    90.005914   -879.77192   -827.08071    -1101.455    271.50776    193.91704    28.637321      46.7237      46.7237      46.7237           90           90           90     102002.7   -936.10256 
  966000       965496   -6939.3185    478.07476   -7417.3933    4214.3139   -11631.707    90.920734   -890.59917   -679.23052   -532.49919    48.632745    18.231491    110.58167      46.7237      46.7237      46.7237           90           90           90     102002.7   -700.77629 
  967000       966496   -6946.8931     487.5138   -7434.4069    4207.5344   -11641.941     92.71586   -676.30229   -206.30648   -415.13951    84.302584   -66.287245    167.32704      46.7237      46.7237      46.7237           90           90           90     102002.7   -432.58276 
  968000       967496   -6934.9011    484.70436   -7419.6055    4227.4753   -11647.081    92.181557   -996.75889   -754.86106   -588.60602    38.067549    130.92433   -21.975967      46.7237      46.7237      46.7237           90           90           90     102002.7   -780.07533 
  969000       968496   -6933.6316    492.99054   -7426.6222    4222.3984   -11649.021    93.757431   -781.24887   -440.36519   -932.60419   -193.60452    18.861789   -108.84263      46.7237      46.7237      46.7237           90           90           90     102002.7   -718.07275 
  970000       969496   -6943.5505    464.37143   -7407.9219    4218.9115   -11626.833    88.314622   -898.15206   -815.73522   -432.48367   -245.23226   -32.460357   -22.560689      46.7237      46.7237      46.7237           90           90           90     102002.7   -715.45698 
  971000       970496   -6953.6316    470.71507   -7424.3467    4237.0845   -11661.431     89.52106   -636.72762    -823.4823    -855.3845    8.0251054    48.483541     61.98111      46.7237      46.7237      46.7237           90           90           90     102002.7   -771.86481 
  972000       971496   -6939.1868    480.98706   -7420.1739    4221.3108   -11641.485    91.474598   -980.94372      -411.61   -472.12525   -101.95175   -104.19714   -64.857835      46.7237      46.7237      46.7237           90           90           90     102002.7   -621.55966 
  973000       972496    -6985.647    456.70643   -7442.3535    4205.1475   -11647.501    86.856883   -641.89085   -635.76429   -268.35198   -112.05968    249.20801     196.0606      46.7237      46.7237      46.7237           90           90           90     102002.7    -515.3357 
  974000       973496     -6944.86    485.70238   -7430.5624    4199.6851   -11630.247    92.371362   -559.85771   -691.20461   -124.98776   -320.55774   -81.907007    105.47303      46.7237      46.7237      46.7237           90           90           90     102002.7   -458.68336 
  975000       974496   -6938.5007    489.15117   -7427.6519    4213.1784    -11640.83    93.027257   -812.93308   -888.21818   -652.53306    4.1772099   -118.00462    212.40867      46.7237      46.7237      46.7237           90           90           90     102002.7   -784.56144 
  976000       975496   -6956.8392    476.04048   -7432.8797     4209.356   -11642.236    90.533853   -474.62948   -565.43227   -530.27389    253.03067    40.335047   -87.473073      46.7237      46.7237      46.7237           90           90           90     102002.7   -523.44521 
  977000       976496    -6925.522    498.59125   -7424.1133    4228.2304   -11652.344    94.822581   -656.12938   -786.66409   -410.11341   -202.05421   -93.463554    49.804491      46.7237      46.7237      46.7237           90           90           90     102002.7   -617.63562 
  978000       977496   -6962.6563    473.57949   -7436.2358    4212.4035   -11648.639    90.065819   -907.35085   -898.60573   -900.39035    64.458517    223.29186     190.0684      46.7237      46.7237      46.7237           90           90           90     102002.7   -902.11565 
  979000       978496   -6942.6702    482.99491   -7425.6651     4225.933   -11651.598    91.856452   -737.40613   -613.42259   -651.75166   -25.927556   -82.709226   -8.7817263      46.7237      46.7237      46.7237           90           90           90     102002.7   -667.52679 
  980000       979496   -6951.5858     490.2346   -7441.8204     4196.213   -11638.033    93.233304    -901.6121   -700.80598   -605.21827    130.65553   -56.057602      137.884      46.7237      46.7237      46.7237           90           90           90     102002.7   -735.87878 
  981000       980496   -6950.7622    495.10256   -7445.8647    4201.4979   -11647.363    94.159098   -543.40818   -64.682188   -573.58958     197.6484   -138.18693    213.88641      46.7237      46.7237      46.7237           90           90           90     102002.7   -393.89332 
  982000       981496   -6962.5181    461.03233   -7423.5504    4227.0922   -11650.643    87.679588   -796.60042   -381.43108   -732.79057    80.803088    33.405757    142.17074      46.7237      46.7237      46.7237           90           90           90     102002.7   -636.94069 
  983000       982496   -6954.2842    465.37025   -7419.6545    4226.3604   -11646.015    88.504577    -916.1251    -851.7811   -748.32908    88.624798    88.644465    295.14065      46.7237      46.7237      46.7237           90           90           90     102002.7   -838.74509 
  984000       983496   -6936.5495    467.36229   -7403.9118    4229.5958   -11633.508    88.883427   -720.16365   -370.63805   -880.10205   -113.98338     13.83691    9.9298064      46.7237      46.7237      46.7237           90           90           90     102002.7   -656.96791 
  985000       984496   -6947.9111    483.07895     -7430.99    4219.0969   -11650.087    91.872435   -1008.4477   -501.21372   -1238.5586   -159.40575    34.024709   -248.85701      46.7237      46.7237      46.7237           90           90           90     102002.7   -916.07335 
  986000       985496    -6961.446    476.07288   -7437.5188    4215.6814     -11653.2    90.540014   -615.26788   -711.58504   -603.59343    49.856177   -293.15475   -291.33604      46.7237      46.7237      46.7237           90           90           90     102002.7   -643.48212 
  987000       986496   -6931.3581    489.36358   -7420.7217    4224.7911   -11645.513    93.067653   -310.46854    -576.4718   -995.52035    164.11275   -187.74221   -179.78038      46.7237      46.7237      46.7237           90           90           90     102002.7    -627.4869 
  988000       987496   -6969.7341    467.73936   -7437.4734    4190.7233   -11628.197    88.955137   -864.76393   -464.42617   -280.09612    212.36663    -98.78639    151.46476      46.7237      46.7237      46.7237           90           90           90     102002.7   -536.42874 
  989000       988496   -6955.0396    476.36393   -7431.4035    4222.4422   -11653.846    90.595366   -1027.3488   -558.29435   -536.45751   -94.444393    3.0935948    116.88001      46.7237      46.7237      46.7237           90           90           90     102002.7    -707.3669 
  990000       989496   -6903.6078    496.60479   -7400.2126    4260.1201   -11660.333    94.444793    -379.9115   -1366.8351   -961.31051    156.87138   -43.002835   -158.26225      46.7237      46.7237      46.7237           90           90           90     102002.7    -902.6857 
  991000       990496   -6949.1198    474.90816   -7424.0279    4231.7375   -11655.765    90.318507   -1004.0897   -843.51301   -777.78267   -39.197773   -87.332863    35.314397      46.7237      46.7237      46.7237           90           90           90     102002.7   -875.12846 
  992000       991496   -6940.0753     483.2719   -7423.3472    4225.6824    -11649.03    91.909131   -1178.4922   -1117.1683    -545.2889   -138.47152   -137.99252   -129.26947      46.7237      46.7237      46.7237           90           90           90     102002.7   -946.98314 
  993000       992496   -6939.5156    486.65387   -7426.1694    4222.6884   -11648.858    92.552318   -463.99259   -910.21262   -581.56971    93.551912    295.61378    170.60246      46.7237      46.7237      46.7237           90           90           90     102002.7   -651.92497 
  994000       993496   -6963.9064    477.92431   -7441.8307    4215.6078   -11657.439    90.892122    -969.4555   -581.03665   -1037.9881   -250.57928   -152.88877   -53.960273      46.7237      46.7237      46.7237           90           90           90     102002.7   -862.82675 
  995000       994496   -6941.4879    484.63476   -7426.1227     4221.254   -11647.377    92.168321   -766.03464   -689.09963    -515.2989    64.321782   -55.660502    133.94711      46.7237      46.7237      46.7237           90           90           90     102002.7   -656.81106 
  996000       995496   -6929.0922    491.75299   -7420.8452     4231.763   -11652.608    93.522073   -775.30118   -435.20084    -910.1836    118.94625    28.191877    102.97037      46.7237      46.7237      46.7237           90           90           90     102002.7    -706.8952 
  997000       996496   -6945.7856    479.24426   -7425.0298    4234.8244   -11659.854    91.143151   -1064.1226    -939.7492   -983.15204    182.40589      124.847    11.267159      46.7237      46.7237      46.7237           90           90           90     102002.7    -995.6746 
  998000       997496   -6923.6305    483.66977   -7407.3003    4238.0364   -11645.337    91.984799   -959.58817   -799.82422   -959.82691    363.44414   -1.8009494    29.097792      46.7237      46.7237      46.7237           90           90           90     102002.7    -906.4131 
  999000       998496   -6959.2159    471.48596   -7430.7019    4218.6628   -11649.365     89.66767   -734.08701   -1042.1735   -800.46911   -29.898738     108.6972   -34.107146      46.7237      46.7237      46.7237           90           90           90     102002.7   -858.90986 
 1000000       999496   -6942.5957    479.17168   -7421.7674    4226.6877   -11648.455    91.129347   -924.10736   -965.86487   -684.28612   -145.54552     11.12277    88.158963      46.7237      46.7237      46.7237           90           90           90     102002.7   -858.08612 
 1000504      1000000   -6942.0137    484.28171   -7426.2954    4221.2443    -11647.54    92.101178   -560.82024   -508.20785   -773.72182    177.10456    151.95738    90.868122      46.7237      46.7237      46.7237           90           90           90     102002.7   -614.24997 
Loop time of 1468 on 16 procs for 500000 steps with 1765 atoms

Performance: 29.428 ns/day, 0.816 hours/ns, 340.599 timesteps/s
99.8% CPU use with 16 MPI tasks x no OpenMP threads

MPI task timing breakdown:
Section |  min time  |  avg time  |  max time  |%varavg| %total
---------------------------------------------------------------
Pair    | 553.93     | 780.02     | 1016.5     | 533.5 | 53.13
Bond    | 172.15     | 183.3      | 191.72     |  39.3 | 12.49
Neigh   | 3.9918     | 4.035      | 4.0694     |   1.2 |  0.27
Comm    | 229.53     | 472.69     | 706.2      | 703.4 | 32.20
Output  | 0.09848    | 0.10408    | 0.10455    |   0.4 |  0.01
Modify  | 21.792     | 22.483     | 23.033     |   9.5 |  1.53
Other   |            | 5.368      |            |       |  0.37

Nlocal:    110.312 ave 128 max 87 min
Histogram: 1 0 1 4 0 1 3 2 3 1
Nghost:    2234.94 ave 2262 max 2205 min
Histogram: 1 0 1 2 5 1 2 2 1 1
Neighs:    11449.6 ave 15791 max 7630 min
Histogram: 2 2 2 1 2 0 4 1 1 1

Total # of neighbors = 183193
Ave neighs/atom = 103.792
Ave special neighs/atom = 6.52691
Neighbor list builds = 3318
Dangerous builds = 0
Total wall time: 0:46:03
