LAMMPS (30 Mar 2018)
Reading data file ...
  orthogonal box = (0 0 0) to (46.7237 46.7237 46.7237)
  2 by 3 by 4 MPI processor grid
  reading atoms ...
  2209 atoms
  scanning bonds ...
  5 = max bonds/atom
  scanning angles ...
  10 = max angles/atom
  scanning dihedrals ...
  32 = max dihedrals/atom
  scanning impropers ...
  3 = max impropers/atom
  reading bonds ...
  2064 bonds
  reading angles ...
  3696 angles
  reading dihedrals ...
  6240 dihedrals
  reading impropers ...
  1008 impropers
Finding 1-2 1-3 1-4 neighbors ...
  special bond factors lj:   0          0          0         
  special bond factors coul: 0          0          0         
  5 = max # of 1-2 neighbors
  8 = max # of 1-3 neighbors
  20 = max # of 1-4 neighbors
  19 = max # of special neighbors
Finding 1-2 1-3 1-4 neighbors ...
  special bond factors lj:   0          0          1         
  special bond factors coul: 1          1          1         
  5 = max # of 1-2 neighbors
  8 = max # of 1-3 neighbors
  19 = max # of special neighbors
WARNING: Using 'neigh_modify every 1 delay 0 check yes' setting during minimization (../min.cpp:168)
Neighbor list info ...
  update every 1 steps, delay 0 steps, check yes
  max neighbors/atom: 2000, page size: 100000
  master list distance cutoff = 16
  ghost atom cutoff = 16
  binsize = 8, bins = 6 6 6
  3 neighbor lists, perpetual/occasional/extra = 3 0 0
  (1) pair buck6d/coul/gauss/dsf, perpetual, skip from (3)
      attributes: half, newton on
      pair build: skip
      stencil: none
      bin: none
  (2) pair lj/cut, perpetual, skip from (3)
      attributes: half, newton on
      pair build: skip
      stencil: none
      bin: none
  (3) neighbor class addition, perpetual
      attributes: half, newton on
      pair build: half/bin/newton
      stencil: half/bin/3d/newton
      bin: standard
Setting up cg style minimization ...
  Unit style    : real
  Current step  : 0
WARNING: Inconsistent image flags (../domain.cpp:786)
Per MPI rank memory allocation (min/avg/max) = 22.9 | 23.31 | 24.45 Mbytes
Step Temp E_pair E_mol TotEng Press 
       0            0   -12892.905    6482.8914   -6410.0138    5992.3547 
     500            0   -13072.568    3719.8725   -9352.6955   -693.03508 
Loop time of 1.41946 on 24 procs for 500 steps with 2209 atoms

99.2% CPU use with 24 MPI tasks x no OpenMP threads

Minimization stats:
  Stopping criterion = max force evaluations
  Energy initial, next-to-last, final = 
        -6410.01382769      -9352.6136009     -9352.69549992
  Force two-norm initial, final = 2574.42 13.0523
  Force max component initial, final = 151.995 2.00829
  Final line search alpha, max atom move = 0.00481242 0.00966473
  Iterations, force evaluations = 500 1000

MPI task timing breakdown:
Section |  min time  |  avg time  |  max time  |%varavg| %total
---------------------------------------------------------------
Pair    | 0.52421    | 0.74696    | 0.97448    |  13.6 | 52.62
Bond    | 0.10322    | 0.1581     | 0.19145    |   5.9 | 11.14
Neigh   | 0.012262   | 0.013674   | 0.015028   |   1.0 |  0.96
Comm    | 0.235      | 0.47705    | 0.69161    |  17.5 | 33.61
Output  | 0          | 0          | 0          |   0.0 |  0.00
Modify  | 0          | 0          | 0          |   0.0 |  0.00
Other   |            | 0.02367    |            |       |  1.67

Nlocal:    92.0417 ave 110 max 67 min
Histogram: 1 0 0 4 2 5 5 4 1 2
Nghost:    2459.58 ave 2630 max 2362 min
Histogram: 10 6 0 0 0 0 0 0 1 7
Neighs:    7640.92 ave 12355 max 4138 min
Histogram: 1 2 5 4 4 3 2 2 0 1

Total # of neighbors = 183382
Ave neighs/atom = 83.0158
Ave special neighs/atom = 5.21503
Neighbor list builds = 14
Dangerous builds = 0
Neighbor list info ...
  update every 1 steps, delay 10 steps, check yes
  max neighbors/atom: 2000, page size: 100000
  master list distance cutoff = 16
  ghost atom cutoff = 16
  binsize = 8, bins = 6 6 6
  3 neighbor lists, perpetual/occasional/extra = 3 0 0
  (1) pair buck6d/coul/gauss/dsf, perpetual, skip from (3)
      attributes: half, newton on
      pair build: skip
      stencil: none
      bin: none
  (2) pair lj/cut, perpetual, skip from (3)
      attributes: half, newton on
      pair build: skip
      stencil: none
      bin: none
  (3) neighbor class addition, perpetual
      attributes: half, newton on
      pair build: half/bin/newton
      stencil: half/bin/3d/newton
      bin: standard
Setting up Verlet run ...
  Unit style    : real
  Current step  : 500
  Time step     : 1
WARNING: Inconsistent image flags (../domain.cpp:786)
Per MPI rank memory allocation (min/avg/max) = 22.55 | 22.72 | 23.33 Mbytes
Step Temp PotEng TotEng Press Volume Lx Ly Lz 
     500          110   -9352.6955   -8628.7164   -368.58549     102002.7      46.7237      46.7237      46.7237 
    1000    91.965791   -8701.0517    -8095.767   -513.45436     102002.7      46.7237      46.7237      46.7237 
    2000    112.87555   -8585.8085   -7842.9036   -933.06656     102002.7      46.7237      46.7237      46.7237 
    3000      112.542   -8603.3168   -7862.6071   -1032.1699     102002.7      46.7237      46.7237      46.7237 
    4000    111.74803   -8605.3496   -7869.8655   -827.36561     102002.7      46.7237      46.7237      46.7237 
    5000     111.6898   -8597.1305   -7862.0298   -860.26754     102002.7      46.7237      46.7237      46.7237 
    6000    105.11911   -8605.8386   -7913.9836    -591.3778     102002.7      46.7237      46.7237      46.7237 
    7000    110.30069   -8582.1192    -7856.161   -854.01657     102002.7      46.7237      46.7237      46.7237 
    8000      111.756   -8586.1796   -7850.6431   -708.77181     102002.7      46.7237      46.7237      46.7237 
    9000    108.94233   -8592.9895   -7875.9716   -848.07345     102002.7      46.7237      46.7237      46.7237 
   10000    109.22227   -8578.3472   -7859.4868   -767.94199     102002.7      46.7237      46.7237      46.7237 
   11000    109.08611   -8582.2594   -7864.2952    -616.1044     102002.7      46.7237      46.7237      46.7237 
   12000    108.52173   -8602.4704   -7888.2206   -991.36241     102002.7      46.7237      46.7237      46.7237 
   13000    111.07946   -8584.5226   -7853.4389   -412.55485     102002.7      46.7237      46.7237      46.7237 
   14000    111.06342   -8579.3557   -7848.3775   -901.41153     102002.7      46.7237      46.7237      46.7237 
   15000     112.0878   -8591.3772   -7853.6569     -818.546     102002.7      46.7237      46.7237      46.7237 
   16000      111.301   -8618.9501   -7886.4082   -780.02409     102002.7      46.7237      46.7237      46.7237 
   17000    107.16753   -8592.8343   -7887.4974   -931.14307     102002.7      46.7237      46.7237      46.7237 
   18000    110.61528   -8595.7031   -7867.6744   -898.51913     102002.7      46.7237      46.7237      46.7237 
   19000    112.63433   -8594.6717   -7853.3543   -672.14942     102002.7      46.7237      46.7237      46.7237 
   20000    111.24745    -8604.274   -7872.0846   -577.85203     102002.7      46.7237      46.7237      46.7237 
   21000    113.87026    -8589.877   -7840.4252   -690.40721     102002.7      46.7237      46.7237      46.7237 
   22000    111.69062   -8599.8317   -7864.7255   -723.02227     102002.7      46.7237      46.7237      46.7237 
   23000    108.47547   -8595.8126   -7881.8674   -766.48344     102002.7      46.7237      46.7237      46.7237 
   24000    110.96794   -8590.8834   -7860.5336   -600.27136     102002.7      46.7237      46.7237      46.7237 
   25000      113.652   -8569.9791   -7821.9638   -898.67076     102002.7      46.7237      46.7237      46.7237 
   26000    111.34745   -8584.3824   -7851.5348   -729.14673     102002.7      46.7237      46.7237      46.7237 
   27000     106.8163   -8577.6728   -7874.6476   -1047.4383     102002.7      46.7237      46.7237      46.7237 
   28000    112.50424   -8568.3194   -7827.8583   -767.65522     102002.7      46.7237      46.7237      46.7237 
   29000    111.74949   -8589.2155   -7853.7218    -591.0041     102002.7      46.7237      46.7237      46.7237 
   30000    109.05507   -8575.8887   -7858.1287   -624.41199     102002.7      46.7237      46.7237      46.7237 
   31000    110.95983   -8581.9187   -7851.6223   -562.01841     102002.7      46.7237      46.7237      46.7237 
   32000     109.8764   -8616.8656      -7893.7    -708.3003     102002.7      46.7237      46.7237      46.7237 
   33000    113.14497   -8584.2598   -7839.5816   -703.31405     102002.7      46.7237      46.7237      46.7237 
   34000    107.71577   -8593.3218   -7884.3767   -829.89409     102002.7      46.7237      46.7237      46.7237 
   35000    108.93876     -8598.27   -7881.2756   -993.52239     102002.7      46.7237      46.7237      46.7237 
   36000     110.3062   -8589.6617   -7863.6673    -547.1805     102002.7      46.7237      46.7237      46.7237 
   37000    108.79886   -8602.9458   -7886.8721   -683.23388     102002.7      46.7237      46.7237      46.7237 
   38000    109.68345   -8593.9173   -7872.0216   -1062.6672     102002.7      46.7237      46.7237      46.7237 
   39000    110.98667   -8622.2722   -7891.7992   -584.27057     102002.7      46.7237      46.7237      46.7237 
   40000    108.32392   -8588.6609   -7875.7131   -824.08706     102002.7      46.7237      46.7237      46.7237 
   41000    112.93123   -8581.5383   -7838.2668   -502.56743     102002.7      46.7237      46.7237      46.7237 
   42000    110.22315   -8598.8648    -7873.417   -1020.9781     102002.7      46.7237      46.7237      46.7237 
   43000    110.21879   -8586.4078   -7860.9887   -772.42019     102002.7      46.7237      46.7237      46.7237 
   44000    106.38438     -8605.67   -7905.4876   -632.70682     102002.7      46.7237      46.7237      46.7237 
   45000     107.9199    -8609.076   -7898.7873   -842.20413     102002.7      46.7237      46.7237      46.7237 
   46000    112.44182   -8604.8287   -7864.7785   -437.95931     102002.7      46.7237      46.7237      46.7237 
   47000    106.85488   -8586.3615   -7883.0824   -756.13828     102002.7      46.7237      46.7237      46.7237 
   48000    109.94058   -8588.6623   -7865.0742   -600.06403     102002.7      46.7237      46.7237      46.7237 
   49000    109.67352   -8579.9061   -7858.0757   -615.14347     102002.7      46.7237      46.7237      46.7237 
   50000    107.96458   -8590.7091   -7880.1263   -792.42117     102002.7      46.7237      46.7237      46.7237 
   51000    109.99962   -8598.9415   -7874.9648   -1033.0523     102002.7      46.7237      46.7237      46.7237 
   52000    109.34467    -8577.358    -7857.692   -804.60683     102002.7      46.7237      46.7237      46.7237 
   53000    109.73166   -8576.4057   -7854.1927   -1079.9002     102002.7      46.7237      46.7237      46.7237 
   54000    109.71093   -8578.6434   -7856.5668   -738.11171     102002.7      46.7237      46.7237      46.7237 
   55000    110.12388   -8588.6036   -7863.8092   -701.29769     102002.7      46.7237      46.7237      46.7237 
   56000    110.35649   -8601.2616   -7874.9362   -711.92338     102002.7      46.7237      46.7237      46.7237 
   57000    109.97207    -8587.125   -7863.3297   -436.76878     102002.7      46.7237      46.7237      46.7237 
   58000    112.03586   -8588.9603   -7851.5819    -618.4541     102002.7      46.7237      46.7237      46.7237 
   59000    106.96374   -8572.2302   -7868.2346   -780.45955     102002.7      46.7237      46.7237      46.7237 
   60000     115.2729   -8580.2861   -7821.6027   -580.72474     102002.7      46.7237      46.7237      46.7237 
   61000    109.47095    -8584.795   -7864.2978   -1128.4081     102002.7      46.7237      46.7237      46.7237 
   62000     111.9044   -8587.9624   -7851.4491    -576.2862     102002.7      46.7237      46.7237      46.7237 
   63000    113.55546   -8569.9805   -7822.6006   -529.45862     102002.7      46.7237      46.7237      46.7237 
   64000    111.17506   -8603.8031   -7872.0902   -518.34679     102002.7      46.7237      46.7237      46.7237 
   65000    113.91559   -8617.5377   -7867.7876   -611.45898     102002.7      46.7237      46.7237      46.7237 
   66000    107.03549   -8604.1302   -7899.6624   -571.22163     102002.7      46.7237      46.7237      46.7237 
   67000    110.19768   -8583.3143   -7858.0341   -839.04359     102002.7      46.7237      46.7237      46.7237 
   68000    112.93135   -8605.9431   -7862.6709   -629.42044     102002.7      46.7237      46.7237      46.7237 
   69000    110.17278   -8573.1743    -7848.058   -733.46895     102002.7      46.7237      46.7237      46.7237 
   70000    110.84198   -8605.0919   -7875.5711   -667.20639     102002.7      46.7237      46.7237      46.7237 
   71000    109.33533   -8599.6553   -7880.0507   -724.82316     102002.7      46.7237      46.7237      46.7237 
   72000    113.12433    -8624.636   -7880.0936   -623.62935     102002.7      46.7237      46.7237      46.7237 
   73000    111.46949   -8589.7208     -7856.07   -508.23882     102002.7      46.7237      46.7237      46.7237 
   74000    112.53949   -8591.5686   -7850.8754   -337.76004     102002.7      46.7237      46.7237      46.7237 
   75000    106.53708   -8590.0246   -7888.8371   -713.16055     102002.7      46.7237      46.7237      46.7237 
   76000    109.44882   -8583.7189   -7863.3674   -904.64077     102002.7      46.7237      46.7237      46.7237 
   77000    106.13067   -8603.3615   -7904.8488   -801.60778     102002.7      46.7237      46.7237      46.7237 
   78000      113.524   -8578.4549   -7831.2821   -512.52005     102002.7      46.7237      46.7237      46.7237 
   79000    112.88867    -8595.307   -7852.3156   -1036.5387     102002.7      46.7237      46.7237      46.7237 
   80000    109.87957   -8593.3584   -7870.1718   -623.41568     102002.7      46.7237      46.7237      46.7237 
   81000    110.68244   -8621.9268   -7893.4561   -930.95047     102002.7      46.7237      46.7237      46.7237 
   82000    109.29706   -8576.1931   -7856.8404   -645.02411     102002.7      46.7237      46.7237      46.7237 
   83000    109.36941   -8600.1137   -7880.2849   -698.78233     102002.7      46.7237      46.7237      46.7237 
   84000    108.85777   -8590.8436   -7874.3822   -917.54777     102002.7      46.7237      46.7237      46.7237 
   85000    113.85393   -8612.7949   -7863.4506   -663.16967     102002.7      46.7237      46.7237      46.7237 
   86000     110.5238   -8579.7682   -7852.3416    -842.7864     102002.7      46.7237      46.7237      46.7237 
   87000    109.37422   -8606.5026   -7886.6421   -726.30362     102002.7      46.7237      46.7237      46.7237 
   88000    110.05859   -8584.8995   -7860.5347    -968.8285     102002.7      46.7237      46.7237      46.7237 
   89000    107.70704   -8583.8627   -7874.9749   -839.75132     102002.7      46.7237      46.7237      46.7237 
   90000     109.4868   -8598.3181   -7877.7166   -627.52791     102002.7      46.7237      46.7237      46.7237 
   91000    108.56482   -8598.6525   -7884.1192   -849.98682     102002.7      46.7237      46.7237      46.7237 
   92000    108.34425   -8576.3797   -7863.2981    -674.7396     102002.7      46.7237      46.7237      46.7237 
   93000    106.73093   -8602.5546   -7900.0912   -701.60629     102002.7      46.7237      46.7237      46.7237 
   94000    109.10896   -8597.9517    -7879.837   -795.88427     102002.7      46.7237      46.7237      46.7237 
   95000    110.66545   -8607.8351   -7879.4762   -465.78809     102002.7      46.7237      46.7237      46.7237 
   96000      109.562      -8585.1   -7864.0035   -626.87634     102002.7      46.7237      46.7237      46.7237 
   97000    111.32385   -8580.4486   -7847.7563   -828.08172     102002.7      46.7237      46.7237      46.7237 
   98000    107.10535   -8561.6122   -7856.6846   -800.23529     102002.7      46.7237      46.7237      46.7237 
   99000    110.40772   -8575.3442   -7848.6816   -549.43188     102002.7      46.7237      46.7237      46.7237 
  100000    114.37237   -8604.5747   -7851.8183   -662.80828     102002.7      46.7237      46.7237      46.7237 
  101000    106.86821   -8591.4909    -7888.124   -704.13406     102002.7      46.7237      46.7237      46.7237 
  102000    107.65401    -8610.353   -7901.8143   -565.38203     102002.7      46.7237      46.7237      46.7237 
  103000      110.397   -8590.8758   -7864.2838   -676.15961     102002.7      46.7237      46.7237      46.7237 
  104000     108.5325   -8591.5347   -7877.2142   -419.69846     102002.7      46.7237      46.7237      46.7237 
  105000    107.84538   -8596.4397   -7886.6415   -1015.4298     102002.7      46.7237      46.7237      46.7237 
  106000    111.71601   -8603.0116   -7867.7383   -484.59781     102002.7      46.7237      46.7237      46.7237 
  107000    111.85662   -8602.5549   -7866.3561   -510.40075     102002.7      46.7237      46.7237      46.7237 
  108000    107.67349   -8600.1924   -7891.5255   -1029.0568     102002.7      46.7237      46.7237      46.7237 
  109000    109.54537   -8570.7611   -7849.7741   -597.79203     102002.7      46.7237      46.7237      46.7237 
  110000    113.03552   -8579.8689   -7835.9111   -887.56955     102002.7      46.7237      46.7237      46.7237 
  111000    108.87141   -8584.1053   -7867.5541   -664.58564     102002.7      46.7237      46.7237      46.7237 
  112000    109.96538   -8576.6085   -7852.8572   -696.44844     102002.7      46.7237      46.7237      46.7237 
  113000    107.59054   -8589.6467   -7881.5258   -1123.5095     102002.7      46.7237      46.7237      46.7237 
  114000    106.77649   -8575.6575   -7872.8942   -653.21578     102002.7      46.7237      46.7237      46.7237 
  115000    107.95627   -8584.5926   -7874.0646   -785.67883     102002.7      46.7237      46.7237      46.7237 
  116000    108.93105   -8596.1094   -7879.1657    -794.1791     102002.7      46.7237      46.7237      46.7237 
  117000    111.36478   -8584.9667   -7852.0051   -832.76106     102002.7      46.7237      46.7237      46.7237 
  118000    107.77618   -8587.4967   -7878.1539   -627.31216     102002.7      46.7237      46.7237      46.7237 
  119000    109.17019   -8571.9527   -7853.4351   -690.16479     102002.7      46.7237      46.7237      46.7237 
  120000    111.63997   -8564.4095   -7829.6367   -611.15114     102002.7      46.7237      46.7237      46.7237 
  121000    110.62242   -8606.1815   -7878.1059   -945.12963     102002.7      46.7237      46.7237      46.7237 
  122000    107.43448   -8593.7289   -7886.6351   -726.37148     102002.7      46.7237      46.7237      46.7237 
  123000    111.77565   -8607.7459   -7872.0801   -845.09444     102002.7      46.7237      46.7237      46.7237 
  124000    110.71381   -8584.8962    -7856.219   -914.23594     102002.7      46.7237      46.7237      46.7237 
  125000     111.3053   -8586.4419   -7853.8717   -764.30573     102002.7      46.7237      46.7237      46.7237 
  126000    109.54265   -8572.6366   -7851.6675   -1130.0353     102002.7      46.7237      46.7237      46.7237 
  127000    109.77332   -8591.1891   -7868.7019    -943.7067     102002.7      46.7237      46.7237      46.7237 
  128000    111.30776   -8580.9792   -7848.3929   -636.42627     102002.7      46.7237      46.7237      46.7237 
  129000    110.05726   -8594.0436   -7869.6876   -788.27674     102002.7      46.7237      46.7237      46.7237 
  130000    108.27431   -8594.1382   -7881.5169   -899.73055     102002.7      46.7237      46.7237      46.7237 
  131000    110.58563    -8586.258   -7858.4244   -594.84602     102002.7      46.7237      46.7237      46.7237 
  132000    109.48688   -8579.8473   -7859.2453   -739.36946     102002.7      46.7237      46.7237      46.7237 
  133000    109.81995   -8565.9404   -7843.1463   -724.84689     102002.7      46.7237      46.7237      46.7237 
  134000    107.43816   -8564.5164   -7857.3983   -857.25224     102002.7      46.7237      46.7237      46.7237 
  135000    111.36656   -8585.7718   -7852.7985   -911.25882     102002.7      46.7237      46.7237      46.7237 
  136000    109.16439   -8575.6562   -7857.1767   -795.23751     102002.7      46.7237      46.7237      46.7237 
  137000    109.03002   -8575.7794   -7858.1842   -704.74935     102002.7      46.7237      46.7237      46.7237 
  138000    111.42354   -8568.3047   -7834.9563   -722.36056     102002.7      46.7237      46.7237      46.7237 
  139000    109.24098   -8578.7244   -7859.7409   -760.48291     102002.7      46.7237      46.7237      46.7237 
  140000    109.40732   -8572.0229   -7851.9446   -825.32572     102002.7      46.7237      46.7237      46.7237 
  141000    110.29031    -8586.555   -7860.6651   -691.80704     102002.7      46.7237      46.7237      46.7237 
  142000    107.50255   -8579.2209    -7871.679   -956.40992     102002.7      46.7237      46.7237      46.7237 
  143000     114.1059   -8581.0891   -7830.0864   -945.35586     102002.7      46.7237      46.7237      46.7237 
  144000    108.85779   -8583.9223   -7867.4608   -906.02186     102002.7      46.7237      46.7237      46.7237 
  145000    110.77512   -8594.4072   -7865.3264   -594.67042     102002.7      46.7237      46.7237      46.7237 
  146000    112.47151   -8597.5831   -7857.3374   -761.17626     102002.7      46.7237      46.7237      46.7237 
  147000    111.19067   -8601.9818   -7870.1661   -533.82989     102002.7      46.7237      46.7237      46.7237 
  148000    103.30736   -8596.1239   -7916.1932   -723.74843     102002.7      46.7237      46.7237      46.7237 
  149000    109.82856   -8580.0119   -7857.1611   -615.14657     102002.7      46.7237      46.7237      46.7237 
  150000     110.4734   -8565.5538   -7838.4589   -864.05944     102002.7      46.7237      46.7237      46.7237 
  151000    112.15517   -8604.2504   -7866.0868   -606.05912     102002.7      46.7237      46.7237      46.7237 
  152000    111.13201   -8560.9689   -7829.5393   -603.82597     102002.7      46.7237      46.7237      46.7237 
  153000    109.63698   -8594.9331   -7873.3432   -574.98133     102002.7      46.7237      46.7237      46.7237 
  154000    109.04586   -8592.4543   -7874.7549   -481.74556     102002.7      46.7237      46.7237      46.7237 
  155000    106.71657   -8579.8022   -7877.4334   -1074.7439     102002.7      46.7237      46.7237      46.7237 
  156000    110.08769   -8554.5459   -7829.9897   -703.26817     102002.7      46.7237      46.7237      46.7237 
  157000    109.19993   -8595.2024    -7876.489   -786.67554     102002.7      46.7237      46.7237      46.7237 
  158000    108.69706   -8577.4912   -7862.0876   -1071.3957     102002.7      46.7237      46.7237      46.7237 
  159000    111.08499   -8577.7588   -7846.6387   -834.47339     102002.7      46.7237      46.7237      46.7237 
  160000    108.45964   -8585.1442   -7871.3031   -623.42716     102002.7      46.7237      46.7237      46.7237 
  161000      110.396   -8576.9589   -7850.3735   -708.26451     102002.7      46.7237      46.7237      46.7237 
  162000    109.80916   -8590.7009   -7867.9778    -536.6086     102002.7      46.7237      46.7237      46.7237 
  163000    110.86705   -8569.3838   -7839.6981   -492.22254     102002.7      46.7237      46.7237      46.7237 
  164000    111.38301   -8572.8004   -7839.7188   -921.06175     102002.7      46.7237      46.7237      46.7237 
  165000    109.61393   -8609.6602    -7888.222   -665.47708     102002.7      46.7237      46.7237      46.7237 
  166000     110.4022    -8571.101   -7844.4747   -699.17767     102002.7      46.7237      46.7237      46.7237 
  167000    113.30307   -8574.3955   -7828.6768   -688.67135     102002.7      46.7237      46.7237      46.7237 
  168000    110.27426    -8581.164   -7855.3798   -774.16058     102002.7      46.7237      46.7237      46.7237 
  169000     107.5603   -8591.3294   -7883.4075   -630.55717     102002.7      46.7237      46.7237      46.7237 
  170000    112.99743   -8597.2056   -7853.4984   -521.24215     102002.7      46.7237      46.7237      46.7237 
  171000    112.29643   -8567.3973   -7828.3039   -624.92329     102002.7      46.7237      46.7237      46.7237 
  172000    107.12901   -8578.0924    -7873.009   -768.14876     102002.7      46.7237      46.7237      46.7237 
  173000    110.09572   -8585.7769   -7861.1678   -374.82131     102002.7      46.7237      46.7237      46.7237 
  174000    112.34884   -8582.0219   -7842.5836   -656.46707     102002.7      46.7237      46.7237      46.7237 
  175000    109.09884   -8593.0947   -7875.0466   -648.30275     102002.7      46.7237      46.7237      46.7237 
  176000    110.58394   -8600.4273   -7872.6049   -465.53418     102002.7      46.7237      46.7237      46.7237 
  177000    109.56234   -8583.9114   -7862.8128   -621.30864     102002.7      46.7237      46.7237      46.7237 
  178000    108.40685   -8590.3614   -7876.8678   -610.55752     102002.7      46.7237      46.7237      46.7237 
  179000    112.48518   -8608.1867    -7867.851    -607.3907     102002.7      46.7237      46.7237      46.7237 
  180000    113.16282   -8556.3142   -7811.5186   -559.08414     102002.7      46.7237      46.7237      46.7237 
  181000    108.54046    -8584.923     -7870.55   -871.45387     102002.7      46.7237      46.7237      46.7237 
  182000    113.02513   -8572.2359   -7828.3465   -837.20612     102002.7      46.7237      46.7237      46.7237 
  183000    112.82116   -8576.5901   -7834.0431   -604.70738     102002.7      46.7237      46.7237      46.7237 
  184000    106.06647   -8584.8946   -7886.8045   -946.89182     102002.7      46.7237      46.7237      46.7237 
  185000    111.51036   -8590.0684   -7856.1487   -633.83957     102002.7      46.7237      46.7237      46.7237 
  186000    109.87933   -8597.3526   -7874.1677   -809.49813     102002.7      46.7237      46.7237      46.7237 
  187000    109.83597   -8597.3364   -7874.4369   -674.49666     102002.7      46.7237      46.7237      46.7237 
  188000    107.24399   -8613.8374   -7907.9973   -570.54932     102002.7      46.7237      46.7237      46.7237 
  189000    113.91963   -8597.0903   -7847.3136   -801.42439     102002.7      46.7237      46.7237      46.7237 
  190000    109.44829   -8605.1151   -7884.7672   -724.93837     102002.7      46.7237      46.7237      46.7237 
  191000    110.18317   -8586.0647     -7860.88   -828.78346     102002.7      46.7237      46.7237      46.7237 
  192000    111.98616   -8609.3515   -7872.3001   -856.48746     102002.7      46.7237      46.7237      46.7237 
  193000    109.85138    -8577.973    -7854.972   -643.79548     102002.7      46.7237      46.7237      46.7237 
  194000    110.93956   -8573.2934   -7843.1304   -861.40778     102002.7      46.7237      46.7237      46.7237 
  195000    107.98939   -8585.0735   -7874.3274   -670.97392     102002.7      46.7237      46.7237      46.7237 
  196000    109.78154   -8567.6626   -7845.1212   -493.89253     102002.7      46.7237      46.7237      46.7237 
  197000    111.58278   -8598.2372   -7863.8408   -573.50276     102002.7      46.7237      46.7237      46.7237 
  198000    112.37401   -8600.2458   -7860.6418   -802.02714     102002.7      46.7237      46.7237      46.7237 
  199000    111.11442   -8580.9986   -7849.6847   -562.36233     102002.7      46.7237      46.7237      46.7237 
  200000     112.7837   -8594.9477   -7852.6472   -578.70134     102002.7      46.7237      46.7237      46.7237 
  201000    112.37773   -8570.8314   -7831.2029   -763.07632     102002.7      46.7237      46.7237      46.7237 
  202000    106.95389   -8595.4255   -7891.4947   -931.52022     102002.7      46.7237      46.7237      46.7237 
  203000    108.36569   -8579.1462   -7865.9235   -615.60461     102002.7      46.7237      46.7237      46.7237 
  204000    109.50511   -8590.8282   -7870.1063   -656.33917     102002.7      46.7237      46.7237      46.7237 
  205000    110.45276   -8605.0491     -7878.09   -647.82524     102002.7      46.7237      46.7237      46.7237 
  206000    105.87073   -8571.2547   -7874.4529   -425.17083     102002.7      46.7237      46.7237      46.7237 
  207000    109.16519   -8579.7265   -7861.2418   -468.09781     102002.7      46.7237      46.7237      46.7237 
  208000    109.03345   -8566.9538   -7849.3362   -899.81153     102002.7      46.7237      46.7237      46.7237 
  209000    108.78634   -8584.5661   -7868.5748   -703.26135     102002.7      46.7237      46.7237      46.7237 
  210000    111.79962   -8578.7328   -7842.9092   -708.11708     102002.7      46.7237      46.7237      46.7237 
  211000     110.5828   -8589.0785   -7861.2636   -646.17349     102002.7      46.7237      46.7237      46.7237 
  212000    106.10299   -8601.3372   -7903.0067   -772.48836     102002.7      46.7237      46.7237      46.7237 
  213000    110.87073   -8582.4888   -7852.7789   -645.84234     102002.7      46.7237      46.7237      46.7237 
  214000    114.31117   -8592.6662   -7840.3125   -578.72175     102002.7      46.7237      46.7237      46.7237 
  215000    109.82106   -8596.8722   -7874.0708   -755.26023     102002.7      46.7237      46.7237      46.7237 
  216000    108.71696   -8596.4489   -7880.9143   -729.27286     102002.7      46.7237      46.7237      46.7237 
  217000    110.98309   -8602.0182   -7871.5687   -861.61058     102002.7      46.7237      46.7237      46.7237 
  218000    113.48577   -8591.7707   -7844.8495   -872.90615     102002.7      46.7237      46.7237      46.7237 
  219000    113.45055   -8578.1928   -7831.5034   -582.90773     102002.7      46.7237      46.7237      46.7237 
  220000    108.39876   -8603.2905   -7889.8501   -1160.3503     102002.7      46.7237      46.7237      46.7237 
  221000    107.79106   -8591.9642   -7882.5235   -1065.1945     102002.7      46.7237      46.7237      46.7237 
  222000    109.04211   -8600.8447   -7883.1701   -909.79376     102002.7      46.7237      46.7237      46.7237 
  223000     109.9449    -8607.085   -7883.4685   -933.21423     102002.7      46.7237      46.7237      46.7237 
  224000    111.83849   -8580.2318   -7844.1523   -790.72538     102002.7      46.7237      46.7237      46.7237 
  225000    111.13808   -8613.7653   -7882.2957   -996.03868     102002.7      46.7237      46.7237      46.7237 
  226000     111.0812   -8598.7063   -7867.6111   -739.92045     102002.7      46.7237      46.7237      46.7237 
  227000    108.80754   -8604.7991   -7888.6682    -778.9984     102002.7      46.7237      46.7237      46.7237 
  228000     108.2878   -8587.2612   -7874.5511   -600.97551     102002.7      46.7237      46.7237      46.7237 
  229000    111.15504   -8625.3353   -7893.7541   -472.01124     102002.7      46.7237      46.7237      46.7237 
  230000    109.37327   -8596.4551   -7876.6008   -968.39239     102002.7      46.7237      46.7237      46.7237 
  231000    108.66376   -8605.9777   -7890.7932   -879.13218     102002.7      46.7237      46.7237      46.7237 
  232000    108.79649   -8607.4442   -7891.3861    -552.2373     102002.7      46.7237      46.7237      46.7237 
  233000    109.70719   -8596.2107   -7874.1587   -775.75296     102002.7      46.7237      46.7237      46.7237 
  234000    108.02772    -8588.073   -7877.0747   -686.98611     102002.7      46.7237      46.7237      46.7237 
  235000    111.38348   -8613.7451   -7880.6604   -721.94178     102002.7      46.7237      46.7237      46.7237 
  236000    106.98952   -8615.4069   -7911.2416   -552.24406     102002.7      46.7237      46.7237      46.7237 
  237000    113.05653    -8599.541   -7855.4449   -738.54204     102002.7      46.7237      46.7237      46.7237 
  238000    109.78957   -8610.8646   -7888.2705   -728.49584     102002.7      46.7237      46.7237      46.7237 
  239000    105.50299   -8610.7476   -7916.3661   -670.41789     102002.7      46.7237      46.7237      46.7237 
  240000    110.27264   -8601.6939   -7875.9204    -602.6697     102002.7      46.7237      46.7237      46.7237 
  241000    110.97427   -8583.5043   -7853.1129   -555.15841     102002.7      46.7237      46.7237      46.7237 
  242000    110.17725   -8604.2366   -7879.0908   -656.83376     102002.7      46.7237      46.7237      46.7237 
  243000    109.99933    -8587.191   -7863.2162   -597.54123     102002.7      46.7237      46.7237      46.7237 
  244000     104.9004   -8555.6206   -7865.2051   -548.67067     102002.7      46.7237      46.7237      46.7237 
  245000    109.55631   -8599.7146   -7878.6556    -671.2124     102002.7      46.7237      46.7237      46.7237 
  246000    106.77154   -8604.9478   -7902.2172   -450.21032     102002.7      46.7237      46.7237      46.7237 
  247000     110.4516   -8583.4071   -7856.4557   -571.17493     102002.7      46.7237      46.7237      46.7237 
  248000    108.32247   -8570.2313   -7857.2931   -512.56499     102002.7      46.7237      46.7237      46.7237 
  249000    110.08595   -8573.7839   -7849.2391   -463.85526     102002.7      46.7237      46.7237      46.7237 
  250000    109.36367   -8570.0656   -7850.2745    -550.7411     102002.7      46.7237      46.7237      46.7237 
  251000    108.10786   -8608.6938   -7897.1681   -646.05649     102002.7      46.7237      46.7237      46.7237 
  252000    110.14837   -8585.0044   -7860.0487   -558.05449     102002.7      46.7237      46.7237      46.7237 
  253000    112.46526   -8563.9183   -7823.7137   -311.42236     102002.7      46.7237      46.7237      46.7237 
  254000    112.00126   -8572.2008   -7835.0502   -625.88704     102002.7      46.7237      46.7237      46.7237 
  255000    108.33028   -8591.8597     -7878.87   -902.41764     102002.7      46.7237      46.7237      46.7237 
  256000    109.29224   -8597.1662   -7877.8452   -653.71409     102002.7      46.7237      46.7237      46.7237 
  257000    106.72058   -8594.8668   -7892.4716   -736.23254     102002.7      46.7237      46.7237      46.7237 
  258000     110.6511   -8611.2413   -7882.9768   -490.45671     102002.7      46.7237      46.7237      46.7237 
  259000    109.44044    -8606.816   -7886.5197   -585.54749     102002.7      46.7237      46.7237      46.7237 
  260000    110.64662   -8585.9946   -7857.7596   -608.62752     102002.7      46.7237      46.7237      46.7237 
  261000    113.20742   -8590.0431   -7844.9538   -732.97175     102002.7      46.7237      46.7237      46.7237 
  262000    107.07978   -8635.5192   -7930.7598   -778.76146     102002.7      46.7237      46.7237      46.7237 
  263000    108.12068   -8581.2459   -7869.6358    -1071.143     102002.7      46.7237      46.7237      46.7237 
  264000    110.45314   -8563.3004   -7836.3388   -827.26314     102002.7      46.7237      46.7237      46.7237 
  265000    110.76969   -8557.5307   -7828.4858   -942.72279     102002.7      46.7237      46.7237      46.7237 
  266000    110.35788   -8578.4468   -7852.1122   -534.59261     102002.7      46.7237      46.7237      46.7237 
  267000    108.15005   -8614.0249   -7902.2214   -612.99038     102002.7      46.7237      46.7237      46.7237 
  268000    111.41998   -8576.0827   -7842.7578   -693.71506     102002.7      46.7237      46.7237      46.7237 
  269000    109.80486    -8584.047   -7861.3522   -611.33655     102002.7      46.7237      46.7237      46.7237 
  270000    108.93158   -8597.7789   -7880.8317   -769.96392     102002.7      46.7237      46.7237      46.7237 
  271000    111.24226   -8597.8337   -7865.6784   -472.32827     102002.7      46.7237      46.7237      46.7237 
  272000     112.2749   -8588.4631   -7849.5114   -576.97817     102002.7      46.7237      46.7237      46.7237 
  273000    108.20808   -8593.5655   -7881.3801   -900.53247     102002.7      46.7237      46.7237      46.7237 
  274000    109.41915   -8589.7919   -7869.6358   -436.15796     102002.7      46.7237      46.7237      46.7237 
  275000    109.10565   -8550.3165   -7832.2236   -412.08168     102002.7      46.7237      46.7237      46.7237 
  276000    110.64759   -8587.8679   -7859.6265   -1078.2607     102002.7      46.7237      46.7237      46.7237 
  277000    110.19612    -8590.843   -7865.5731     -669.231     102002.7      46.7237      46.7237      46.7237 
  278000    106.84403   -8594.3394   -7891.1317   -910.69713     102002.7      46.7237      46.7237      46.7237 
  279000    107.74131   -8578.1891   -7869.0758   -980.50423     102002.7      46.7237      46.7237      46.7237 
  280000    110.67796   -8607.4768   -7879.0356   -764.07972     102002.7      46.7237      46.7237      46.7237 
  281000    109.83461   -8569.1077   -7846.2171   -388.25591     102002.7      46.7237      46.7237      46.7237 
  282000      108.075   -8600.6743   -7889.3648   -723.33351     102002.7      46.7237      46.7237      46.7237 
  283000    108.27304   -8580.1658   -7867.5528   -715.38233     102002.7      46.7237      46.7237      46.7237 
  284000     109.5348   -8579.3192   -7858.4019   -1043.5823     102002.7      46.7237      46.7237      46.7237 
  285000    107.73572   -8574.3617   -7865.2852   -553.58004     102002.7      46.7237      46.7237      46.7237 
  286000     109.3418   -8575.5162   -7855.8691   -690.01228     102002.7      46.7237      46.7237      46.7237 
  287000    110.63936   -8616.8436   -7888.6564   -754.24704     102002.7      46.7237      46.7237      46.7237 
  288000    108.86221   -8572.6555   -7856.1648   -602.92183     102002.7      46.7237      46.7237      46.7237 
  289000    108.50517   -8591.2572   -7877.1165    -965.6814     102002.7      46.7237      46.7237      46.7237 
  290000    109.85188   -8593.5679   -7870.5637   -680.97719     102002.7      46.7237      46.7237      46.7237 
  291000    103.82557   -8597.0459   -7913.7046    -709.5627     102002.7      46.7237      46.7237      46.7237 
  292000    112.55112    -8577.905   -7837.1353   -622.85164     102002.7      46.7237      46.7237      46.7237 
  293000    112.11856   -8587.4654   -7849.5427   -673.44114     102002.7      46.7237      46.7237      46.7237 
  294000    110.35001   -8596.3273   -7870.0445   -947.78122     102002.7      46.7237      46.7237      46.7237 
  295000    110.28099   -8576.2127   -7850.3841    -659.0962     102002.7      46.7237      46.7237      46.7237 
  296000    105.86489   -8590.2469   -7893.4835   -1002.3824     102002.7      46.7237      46.7237      46.7237 
  297000    112.33846    -8585.978    -7846.608   -892.09393     102002.7      46.7237      46.7237      46.7237 
  298000    110.11129   -8592.6511   -7867.9395   -840.04905     102002.7      46.7237      46.7237      46.7237 
  299000    109.22253   -8568.0522   -7849.1901   -777.49118     102002.7      46.7237      46.7237      46.7237 
  300000    107.71977   -8561.1961   -7852.2246   -864.39623     102002.7      46.7237      46.7237      46.7237 
  301000    110.26797   -8578.2553   -7852.5124   -947.44894     102002.7      46.7237      46.7237      46.7237 
  302000    110.39858   -8570.8703   -7844.2678   -679.56405     102002.7      46.7237      46.7237      46.7237 
  303000    110.27638   -8577.2618   -7851.4637   -580.56321     102002.7      46.7237      46.7237      46.7237 
  304000    111.16847    -8554.904   -7823.2344   -601.09059     102002.7      46.7237      46.7237      46.7237 
  305000    111.64898   -8605.2207   -7870.3886   -573.43641     102002.7      46.7237      46.7237      46.7237 
  306000    109.29531   -8583.5745   -7864.2333   -822.23075     102002.7      46.7237      46.7237      46.7237 
  307000    106.76978   -8576.5713   -7873.8522   -959.33599     102002.7      46.7237      46.7237      46.7237 
  308000    111.47627   -8555.9965   -7822.3011   -723.15686     102002.7      46.7237      46.7237      46.7237 
  309000    109.42503   -8563.3232   -7843.1282   -859.67172     102002.7      46.7237      46.7237      46.7237 
  310000    111.42343   -8591.0459   -7857.6982   -598.27424     102002.7      46.7237      46.7237      46.7237 
  311000     109.8907   -8580.6599   -7857.4002    -604.8323     102002.7      46.7237      46.7237      46.7237 
  312000    111.38033   -8615.5867   -7882.5227   -944.09572     102002.7      46.7237      46.7237      46.7237 
  313000     110.0028    -8572.783   -7848.7854   -474.87791     102002.7      46.7237      46.7237      46.7237 
  314000    109.34979    -8574.564   -7854.8643   -742.28722     102002.7      46.7237      46.7237      46.7237 
  315000    112.41851   -8558.1888   -7818.2919   -832.70264     102002.7      46.7237      46.7237      46.7237 
  316000    107.80875   -8574.1937   -7864.6366   -440.85155     102002.7      46.7237      46.7237      46.7237 
  317000    109.35798   -8613.1772   -7893.4236   -782.80633     102002.7      46.7237      46.7237      46.7237 
  318000    111.30367   -8589.9232   -7857.3638   -773.61387     102002.7      46.7237      46.7237      46.7237 
  319000    109.68334   -8599.0601   -7877.1652   -979.62405     102002.7      46.7237      46.7237      46.7237 
  320000    110.21229   -8578.9053    -7853.529   -816.46225     102002.7      46.7237      46.7237      46.7237 
  321000    107.11949   -8589.7288   -7884.7081   -770.96148     102002.7      46.7237      46.7237      46.7237 
  322000    108.67164   -8572.8129   -7857.5765   -910.52883     102002.7      46.7237      46.7237      46.7237 
  323000    107.25757   -8608.1518   -7902.2223   -982.53784     102002.7      46.7237      46.7237      46.7237 
  324000     109.5069    -8566.706   -7845.9722   -875.79374     102002.7      46.7237      46.7237      46.7237 
  325000    108.34445   -8591.8334   -7878.7505   -794.71014     102002.7      46.7237      46.7237      46.7237 
  326000    109.55876    -8582.766    -7861.691    -697.9621     102002.7      46.7237      46.7237      46.7237 
  327000    109.83712   -8600.1678   -7877.2607   -725.14468     102002.7      46.7237      46.7237      46.7237 
  328000    110.71803   -8614.6623   -7885.9574    -644.9414     102002.7      46.7237      46.7237      46.7237 
  329000    107.84652   -8570.0075   -7860.2017   -443.11341     102002.7      46.7237      46.7237      46.7237 
  330000    112.62254   -8587.6411   -7846.4013   -707.39685     102002.7      46.7237      46.7237      46.7237 
  331000    112.15946   -8583.7482   -7845.5563   -749.38647     102002.7      46.7237      46.7237      46.7237 
  332000    110.12129   -8612.2517   -7887.4743   -631.61835     102002.7      46.7237      46.7237      46.7237 
  333000    108.40883   -8598.5563   -7885.0497   -658.29434     102002.7      46.7237      46.7237      46.7237 
  334000    112.70757   -8606.7435   -7864.9441   -720.49623     102002.7      46.7237      46.7237      46.7237 
  335000    108.81589    -8599.143   -7882.9572   -614.71758     102002.7      46.7237      46.7237      46.7237 
  336000    108.56599   -8587.5425   -7873.0014   -867.98587     102002.7      46.7237      46.7237      46.7237 
  337000    108.84357   -8607.3624   -7890.9944   -727.53104     102002.7      46.7237      46.7237      46.7237 
  338000    112.76062    -8597.618   -7855.4695   -805.25885     102002.7      46.7237      46.7237      46.7237 
  339000     111.8811   -8611.3381   -7874.9782   -781.72847     102002.7      46.7237      46.7237      46.7237 
  340000    111.47641   -8604.8325   -7871.1362   -862.50922     102002.7      46.7237      46.7237      46.7237 
  341000    109.01365   -8597.6758   -7880.1884   -690.43364     102002.7      46.7237      46.7237      46.7237 
  342000    111.75277   -8580.8144   -7845.2992   -639.01482     102002.7      46.7237      46.7237      46.7237 
  343000    109.24049   -8613.8234   -7894.8431   -754.43845     102002.7      46.7237      46.7237      46.7237 
  344000    111.82713    -8598.408   -7862.4034   -925.69811     102002.7      46.7237      46.7237      46.7237 
  345000    110.44365   -8590.1991   -7863.3001   -517.00291     102002.7      46.7237      46.7237      46.7237 
  346000    110.48311   -8606.1502   -7878.9913   -722.71963     102002.7      46.7237      46.7237      46.7237 
  347000    103.52854   -8599.0202   -7917.6338   -745.76168     102002.7      46.7237      46.7237      46.7237 
  348000     110.8452   -8611.4478   -7881.9058   -636.22177     102002.7      46.7237      46.7237      46.7237 
  349000      113.691   -8607.4451   -7859.1732   -798.40048     102002.7      46.7237      46.7237      46.7237 
  350000    108.58946   -8582.9727   -7868.2772   -797.74157     102002.7      46.7237      46.7237      46.7237 
  351000    110.58804   -8615.2502   -7887.4008   -1118.9139     102002.7      46.7237      46.7237      46.7237 
  352000    107.02851   -8582.4388   -7878.0169   -728.32162     102002.7      46.7237      46.7237      46.7237 
  353000    110.57831   -8590.6023   -7862.8169   -511.99113     102002.7      46.7237      46.7237      46.7237 
  354000    109.12863   -8596.6102   -7878.3661    -681.3818     102002.7      46.7237      46.7237      46.7237 
  355000     112.8293   -8596.3056   -7853.7051   -654.23403     102002.7      46.7237      46.7237      46.7237 
  356000    108.29904   -8586.7217   -7873.9377   -716.87129     102002.7      46.7237      46.7237      46.7237 
  357000    109.65945   -8593.7597   -7872.0219    -696.6433     102002.7      46.7237      46.7237      46.7237 
  358000    112.65037   -8606.9143   -7865.4914   -698.82077     102002.7      46.7237      46.7237      46.7237 
  359000    106.12516   -8605.7168   -7907.2404   -579.50508     102002.7      46.7237      46.7237      46.7237 
  360000    108.88242   -8593.4276   -7876.8039   -720.22281     102002.7      46.7237      46.7237      46.7237 
  361000    111.23885    -8588.608   -7856.4752   -856.51787     102002.7      46.7237      46.7237      46.7237 
  362000    111.55137   -8588.1899   -7854.0002   -740.64883     102002.7      46.7237      46.7237      46.7237 
  363000    109.35617   -8599.8546   -7880.1129   -728.24288     102002.7      46.7237      46.7237      46.7237 
  364000    112.45685   -8588.3791   -7848.2299   -876.82658     102002.7      46.7237      46.7237      46.7237 
  365000    114.06854   -8588.4513   -7837.6945     -1030.25     102002.7      46.7237      46.7237      46.7237 
  366000    112.41908    -8615.754   -7875.8533   -888.11084     102002.7      46.7237      46.7237      46.7237 
  367000    108.60346   -8598.0798   -7883.2922   -628.42378     102002.7      46.7237      46.7237      46.7237 
  368000    110.56996   -8597.8513   -7870.1209    -455.4127     102002.7      46.7237      46.7237      46.7237 
  369000    110.51794   -8629.5321   -7902.1441   -725.61879     102002.7      46.7237      46.7237      46.7237 
  370000    110.98781   -8598.5908   -7868.1102   -871.42099     102002.7      46.7237      46.7237      46.7237 
  371000    109.42432   -8604.3011   -7884.1109   -1036.6195     102002.7      46.7237      46.7237      46.7237 
  372000    109.70022   -8596.5399   -7874.5338   -848.27755     102002.7      46.7237      46.7237      46.7237 
  373000    112.38073   -8599.0724   -7859.4241   -668.53482     102002.7      46.7237      46.7237      46.7237 
  374000    109.69067   -8583.2618   -7861.3186   -1050.1321     102002.7      46.7237      46.7237      46.7237 
  375000    107.44867   -8588.4596   -7881.2723   -824.00929     102002.7      46.7237      46.7237      46.7237 
  376000     111.0437   -8565.1982   -7834.3498   -966.40758     102002.7      46.7237      46.7237      46.7237 
  377000    111.41108   -8616.2636   -7882.9973   -748.40448     102002.7      46.7237      46.7237      46.7237 
  378000    112.58299   -8594.5682   -7853.5888   -956.36751     102002.7      46.7237      46.7237      46.7237 
  379000    109.73531   -8581.1473   -7858.9102    -909.5263     102002.7      46.7237      46.7237      46.7237 
  380000    110.09576   -8564.9481   -7840.3387   -743.75482     102002.7      46.7237      46.7237      46.7237 
  381000    109.95185   -8558.3684   -7834.7062   -763.11129     102002.7      46.7237      46.7237      46.7237 
  382000    107.98303   -8583.5532    -7872.849    -651.6419     102002.7      46.7237      46.7237      46.7237 
  383000    110.46999   -8612.9056   -7885.8332   -852.54747     102002.7      46.7237      46.7237      46.7237 
  384000    110.49013    -8570.703    -7843.498   -961.04408     102002.7      46.7237      46.7237      46.7237 
  385000    106.51932   -8591.8306     -7890.76   -870.54517     102002.7      46.7237      46.7237      46.7237 
  386000    110.36527   -8574.8324   -7848.4491   -855.56446     102002.7      46.7237      46.7237      46.7237 
  387000     111.3855   -8574.0585   -7840.9605    -549.7311     102002.7      46.7237      46.7237      46.7237 
  388000    108.82383   -8605.5685   -7889.3305   -598.68464     102002.7      46.7237      46.7237      46.7237 
  389000    112.79994   -8586.0209   -7843.6136   -679.73724     102002.7      46.7237      46.7237      46.7237 
  390000    110.32452   -8598.5645   -7872.4495   -467.43981     102002.7      46.7237      46.7237      46.7237 
  391000    110.71104   -8599.3347   -7870.6758   -851.03014     102002.7      46.7237      46.7237      46.7237 
  392000    109.53586   -8590.2822   -7869.3579   -837.71638     102002.7      46.7237      46.7237      46.7237 
  393000    107.36042   -8591.8859   -7885.2795   -639.07129     102002.7      46.7237      46.7237      46.7237 
  394000    111.61501   -8589.8245    -7855.216   -957.26865     102002.7      46.7237      46.7237      46.7237 
  395000    112.29864   -8611.9623   -7872.8544   -754.20855     102002.7      46.7237      46.7237      46.7237 
  396000    108.19758   -8602.8809   -7890.7646   -924.66862     102002.7      46.7237      46.7237      46.7237 
  397000    109.19484   -8574.3422   -7855.6623   -560.11713     102002.7      46.7237      46.7237      46.7237 
  398000    111.41595   -8601.9585   -7868.6601   -541.99194     102002.7      46.7237      46.7237      46.7237 
  399000    114.35263   -8592.0512   -7839.4247   -645.05483     102002.7      46.7237      46.7237      46.7237 
  400000    111.22704   -8598.5974   -7866.5424   -783.80941     102002.7      46.7237      46.7237      46.7237 
  401000    107.51149    -8616.478   -7908.8773   -651.11666     102002.7      46.7237      46.7237      46.7237 
  402000    110.48412   -8612.0899   -7884.9245   -641.72145     102002.7      46.7237      46.7237      46.7237 
  403000    112.41069   -8575.1848   -7835.3393   -472.75386     102002.7      46.7237      46.7237      46.7237 
  404000    112.31805   -8592.7212   -7853.4855   -760.34247     102002.7      46.7237      46.7237      46.7237 
  405000    110.34151   -8617.4492   -7891.2224   -669.79967     102002.7      46.7237      46.7237      46.7237 
  406000    107.98979   -8590.4675   -7879.7188    -824.3423     102002.7      46.7237      46.7237      46.7237 
  407000    107.20303   -8559.4009   -7853.8304   -848.58596     102002.7      46.7237      46.7237      46.7237 
  408000    107.96822   -8603.7687    -7893.162   -635.80921     102002.7      46.7237      46.7237      46.7237 
  409000    110.58439   -8575.8406   -7848.0152   -733.40644     102002.7      46.7237      46.7237      46.7237 
  410000     110.4321   -8577.3716   -7850.5485   -749.80321     102002.7      46.7237      46.7237      46.7237 
  411000    111.21191   -8583.2268   -7851.2713   -756.54064     102002.7      46.7237      46.7237      46.7237 
  412000    109.73195   -8594.1964   -7871.9815   -962.49745     102002.7      46.7237      46.7237      46.7237 
  413000    110.23837   -8575.3154   -7849.7674   -793.43823     102002.7      46.7237      46.7237      46.7237 
  414000    113.48234   -8581.6648   -7834.7661   -925.12642     102002.7      46.7237      46.7237      46.7237 
  415000    111.45553    -8581.569   -7848.0101   -459.79593     102002.7      46.7237      46.7237      46.7237 
  416000    111.31387   -8583.4194   -7850.7928   -611.68155     102002.7      46.7237      46.7237      46.7237 
  417000    111.86913   -8606.6635   -7870.3825   -1057.8346     102002.7      46.7237      46.7237      46.7237 
  418000    109.58638   -8586.9082   -7865.6513    -672.3974     102002.7      46.7237      46.7237      46.7237 
  419000    108.14317   -8570.7565   -7858.9983   -690.74164     102002.7      46.7237      46.7237      46.7237 
  420000    108.46754    -8595.042    -7881.149   -654.41839     102002.7      46.7237      46.7237      46.7237 
  421000     110.6269   -8603.1065   -7875.0013   -426.42556     102002.7      46.7237      46.7237      46.7237 
  422000    111.04131   -8568.0904   -7837.2577    -847.5161     102002.7      46.7237      46.7237      46.7237 
  423000     107.5987   -8586.7352   -7878.5605   -1030.1391     102002.7      46.7237      46.7237      46.7237 
  424000    111.42316   -8604.3659     -7871.02   -936.06164     102002.7      46.7237      46.7237      46.7237 
  425000    108.21479   -8580.6528   -7868.4233   -912.59213     102002.7      46.7237      46.7237      46.7237 
  426000    109.69503   -8602.5695   -7880.5975   -420.16841     102002.7      46.7237      46.7237      46.7237 
  427000    108.65336   -8591.7355   -7876.6195    -792.2706     102002.7      46.7237      46.7237      46.7237 
  428000    111.10521   -8611.9016   -7880.6484    -717.3509     102002.7      46.7237      46.7237      46.7237 
  429000    111.75069   -8591.7442   -7856.2426   -593.47912     102002.7      46.7237      46.7237      46.7237 
  430000    110.68763   -8607.1151   -7878.6103    -692.3562     102002.7      46.7237      46.7237      46.7237 
  431000    110.40376   -8613.4531   -7886.8165   -553.43117     102002.7      46.7237      46.7237      46.7237 
  432000    109.03396   -8593.8862   -7876.2652   -653.25942     102002.7      46.7237      46.7237      46.7237 
  433000    109.64742   -8582.2908   -7860.6322   -867.38079     102002.7      46.7237      46.7237      46.7237 
  434000    109.45415   -8577.6364   -7857.2498   -707.47981     102002.7      46.7237      46.7237      46.7237 
  435000    112.91716   -8572.9129    -7829.734   -647.62446     102002.7      46.7237      46.7237      46.7237 
  436000    111.28965   -8599.0838   -7866.6166   -651.87252     102002.7      46.7237      46.7237      46.7237 
  437000    109.69378   -8568.9182   -7846.9545   -758.47601     102002.7      46.7237      46.7237      46.7237 
  438000    109.64754    -8591.298   -7869.6386   -663.96302     102002.7      46.7237      46.7237      46.7237 
  439000    110.32636   -8576.2772     -7850.15   -392.95183     102002.7      46.7237      46.7237      46.7237 
  440000    108.93216    -8585.431     -7868.48   -653.80725     102002.7      46.7237      46.7237      46.7237 
  441000    107.97366   -8598.1377   -7887.4952   -760.80598     102002.7      46.7237      46.7237      46.7237 
  442000    106.20034   -8591.1218   -7892.1506   -887.44087     102002.7      46.7237      46.7237      46.7237 
  443000    109.05674   -8595.1434   -7877.3725    -547.6204     102002.7      46.7237      46.7237      46.7237 
  444000    111.60346   -8578.6194   -7844.0869   -886.64839     102002.7      46.7237      46.7237      46.7237 
  445000    110.47748   -8589.6908   -7862.5691    -578.1959     102002.7      46.7237      46.7237      46.7237 
  446000    110.38352   -8605.3755   -7878.8722   -693.64448     102002.7      46.7237      46.7237      46.7237 
  447000    105.89097   -8582.4369   -7885.5019   -1098.6372     102002.7      46.7237      46.7237      46.7237 
  448000    110.15432   -8605.5572   -7880.5623    -599.5223     102002.7      46.7237      46.7237      46.7237 
  449000    109.98504   -8579.2937    -7855.413   -997.19747     102002.7      46.7237      46.7237      46.7237 
  450000    111.06912   -8581.3431   -7850.3274   -886.71222     102002.7      46.7237      46.7237      46.7237 
  451000    104.50916   -8574.3512   -7886.5107   -928.26496     102002.7      46.7237      46.7237      46.7237 
  452000    112.47851   -8594.7403   -7854.4486   -883.18334     102002.7      46.7237      46.7237      46.7237 
  453000    112.35249   -8584.5397   -7845.0773   -665.34889     102002.7      46.7237      46.7237      46.7237 
  454000    108.83353   -8594.6829    -7878.381   -858.91143     102002.7      46.7237      46.7237      46.7237 
  455000    112.27817   -8579.0855   -7840.1123   -785.43404     102002.7      46.7237      46.7237      46.7237 
  456000    108.41722   -8587.7828   -7874.2209   -708.47846     102002.7      46.7237      46.7237      46.7237 
  457000    108.44912   -8585.6328    -7871.861   -978.48951     102002.7      46.7237      46.7237      46.7237 
  458000    109.02191   -8599.8903   -7882.3486   -753.24068     102002.7      46.7237      46.7237      46.7237 
  459000    109.21818   -8604.5739   -7885.7404   -615.27559     102002.7      46.7237      46.7237      46.7237 
  460000    109.52512   -8586.4798   -7865.6262   -799.08472     102002.7      46.7237      46.7237      46.7237 
  461000    108.50783   -8588.5896   -7874.4313   -556.69063     102002.7      46.7237      46.7237      46.7237 
  462000    107.40784   -8591.8785     -7884.96   -815.93466     102002.7      46.7237      46.7237      46.7237 
  463000    110.34702   -8569.8784   -7843.6153   -676.75917     102002.7      46.7237      46.7237      46.7237 
  464000    109.24561   -8602.0602   -7883.0462   -488.55302     102002.7      46.7237      46.7237      46.7237 
  465000    109.60684   -8565.1587   -7843.7672   -953.05765     102002.7      46.7237      46.7237      46.7237 
  466000    113.07959   -8569.5207   -7825.2728   -719.83382     102002.7      46.7237      46.7237      46.7237 
  467000    110.58722   -8570.6501   -7842.8061   -963.72379     102002.7      46.7237      46.7237      46.7237 
  468000    108.15258    -8589.351   -7877.5309   -714.51781     102002.7      46.7237      46.7237      46.7237 
  469000    109.49799   -8604.9031    -7884.228    -697.6459     102002.7      46.7237      46.7237      46.7237 
  470000    109.90251   -8563.9557   -7840.6182    -696.7076     102002.7      46.7237      46.7237      46.7237 
  471000    107.28673   -8589.9117   -7883.7903   -453.05864     102002.7      46.7237      46.7237      46.7237 
  472000    110.26362   -8572.0479   -7846.3336   -801.42259     102002.7      46.7237      46.7237      46.7237 
  473000    108.86831   -8606.8895   -7890.3587   -890.91983     102002.7      46.7237      46.7237      46.7237 
  474000    110.10192   -8629.9951   -7905.3451   -845.69403     102002.7      46.7237      46.7237      46.7237 
  475000    107.76492   -8580.0848   -7870.8161   -763.55142     102002.7      46.7237      46.7237      46.7237 
  476000     110.8966   -8612.9214   -7883.0411   -748.72866     102002.7      46.7237      46.7237      46.7237 
  477000    109.94893   -8594.0556   -7870.4126   -627.27662     102002.7      46.7237      46.7237      46.7237 
  478000    105.58844   -8583.5568   -7888.6129   -724.95094     102002.7      46.7237      46.7237      46.7237 
  479000    109.16661   -8590.3321    -7871.838   -666.70689     102002.7      46.7237      46.7237      46.7237 
  480000    110.80949   -8601.7576   -7872.4507   -1003.6967     102002.7      46.7237      46.7237      46.7237 
  481000    108.48453   -8584.3376   -7870.3327   -924.47603     102002.7      46.7237      46.7237      46.7237 
  482000    109.38897   -8571.5495   -7851.5919    -615.4833     102002.7      46.7237      46.7237      46.7237 
  483000    109.59032   -8608.2528     -7886.97   -872.72907     102002.7      46.7237      46.7237      46.7237 
  484000    108.19537   -8593.5115   -7881.4098    -776.5924     102002.7      46.7237      46.7237      46.7237 
  485000     109.4565   -8588.3019   -7867.8999   -862.76423     102002.7      46.7237      46.7237      46.7237 
  486000    106.61515   -8614.1316   -7912.4303   -904.38591     102002.7      46.7237      46.7237      46.7237 
  487000    112.80827   -8600.4962    -7858.034   -802.27758     102002.7      46.7237      46.7237      46.7237 
  488000    110.45627   -8596.3284   -7869.3462   -921.70206     102002.7      46.7237      46.7237      46.7237 
  489000    107.32235   -8592.6701   -7886.3143   -412.95077     102002.7      46.7237      46.7237      46.7237 
  490000    111.42074   -8593.3127   -7859.9827   -606.52219     102002.7      46.7237      46.7237      46.7237 
  491000    108.14173   -8611.0398   -7899.2912   -625.98024     102002.7      46.7237      46.7237      46.7237 
  492000    110.49897   -8607.9376   -7880.6744    -683.8448     102002.7      46.7237      46.7237      46.7237 
  493000    113.81706   -8598.8222   -7849.7206   -717.98394     102002.7      46.7237      46.7237      46.7237 
  494000    112.96613   -8584.4342   -7840.9331   -759.40595     102002.7      46.7237      46.7237      46.7237 
  495000    107.82841   -8578.3373   -7868.6508   -801.61796     102002.7      46.7237      46.7237      46.7237 
  496000    106.55041   -8593.9456   -7892.6703   -672.16038     102002.7      46.7237      46.7237      46.7237 
  497000    108.55714   -8595.6461   -7881.1633   -699.90443     102002.7      46.7237      46.7237      46.7237 
  498000    107.40476   -8606.1842    -7899.286   -896.96521     102002.7      46.7237      46.7237      46.7237 
  499000    108.78337   -8581.1188    -7865.147   -717.51609     102002.7      46.7237      46.7237      46.7237 
  500000    112.93506   -8582.4746    -7839.178   -750.55936     102002.7      46.7237      46.7237      46.7237 
  500500    107.80671   -8583.9051   -7874.3613   -857.61246     102002.7      46.7237      46.7237      46.7237 
Loop time of 678.013 on 24 procs for 500000 steps with 2209 atoms

Performance: 63.716 ns/day, 0.377 hours/ns, 737.449 timesteps/s
99.0% CPU use with 24 MPI tasks x no OpenMP threads

MPI task timing breakdown:
Section |  min time  |  avg time  |  max time  |%varavg| %total
---------------------------------------------------------------
Pair    | 220.07     | 326.75     | 443.81     | 409.1 | 48.19
Bond    | 59.344     | 78.794     | 104.14     | 130.0 | 11.62
Neigh   | 4.1694     | 4.1836     | 4.1961     |   0.4 |  0.62
Comm    | 118.08     | 258.69     | 380.87     | 501.9 | 38.15
Output  | 0.36652    | 0.36683    | 0.37079    |   0.1 |  0.05
Modify  | 3.7745     | 4.3511     | 4.8299     |  12.3 |  0.64
Other   |            | 4.88       |            |       |  0.72

Nlocal:    92.0417 ave 129 max 54 min
Histogram: 2 0 2 5 2 5 3 1 3 1
Nghost:    2476.17 ave 2568 max 2395 min
Histogram: 1 4 5 4 0 2 1 1 1 5
Neighs:    7641.92 ave 13222 max 2098 min
Histogram: 1 1 8 0 2 2 5 2 1 2

Total # of neighbors = 183406
Ave neighs/atom = 83.0267
Ave special neighs/atom = 5.21503
Neighbor list builds = 4503
Dangerous builds = 0
Neighbor list info ...
  update every 1 steps, delay 10 steps, check yes
  max neighbors/atom: 2000, page size: 100000
  master list distance cutoff = 16
  ghost atom cutoff = 16
  binsize = 8, bins = 6 6 6
  3 neighbor lists, perpetual/occasional/extra = 3 0 0
  (1) pair buck6d/coul/gauss/dsf, perpetual, skip from (3)
      attributes: half, newton on
      pair build: skip
      stencil: none
      bin: none
  (2) pair lj/cut, perpetual, skip from (3)
      attributes: half, newton on
      pair build: skip
      stencil: none
      bin: none
  (3) neighbor class addition, perpetual
      attributes: half, newton on
      pair build: half/bin/newton
      stencil: half/bin/3d/newton
      bin: standard
Setting up Verlet run ...
  Unit style    : real
  Current step  : 500500
  Time step     : 1
WARNING: Inconsistent image flags (../domain.cpp:786)
Per MPI rank memory allocation (min/avg/max) = 24.29 | 24.53 | 24.61 Mbytes
Step Time TotEng KinEng PotEng E_mol E_pair Temp Pxx Pyy Pzz Pxy Pxz Pyz Cella Cellb Cellc CellAlpha CellBeta CellGamma Volume Press 
  500500       500000   -7874.3613    709.54376   -8583.9051    4286.1629   -12870.068    107.80671   -860.87962   -1111.6027   -600.35505      71.0123    20.115092    138.76919      46.7237      46.7237      46.7237           90           90           90     102002.7   -857.61246 
  501000       500500   -7876.0141    702.95172   -8578.9658    4305.0891   -12884.055    106.80513   -938.36652   -991.12792   -692.54897   -139.59262  -0.11615073    24.247388      46.7237      46.7237      46.7237           90           90           90     102002.7   -874.01447 
  502000       501500   -7851.9253    741.05575    -8592.981    4284.9178   -12877.899    112.59459   -714.08904   -690.17472   -598.89109    13.913025   -110.11744   -18.024297      46.7237      46.7237      46.7237           90           90           90     102002.7   -667.71828 
  503000       502500   -7856.3087    714.76837   -8571.0771    4288.6734    -12859.75    108.60053   -569.79042   -638.17105   -923.51794   -1.9963749    -81.68249   -269.06446      46.7237      46.7237      46.7237           90           90           90     102002.7   -710.49313 
  504000       503500   -7876.7939    723.27085   -8600.0648    4274.7246   -12874.789    109.89238   -1177.4735   -902.53305   -812.54935   -333.66466   -257.34341    60.232302      46.7237      46.7237      46.7237           90           90           90     102002.7    -964.1853 
  505000       504500   -7847.8718    750.38532   -8598.2572    4290.7783   -12889.036     114.0121   -763.05032   -577.77053   -549.12689    -55.64799    17.985072   -245.60219      46.7237      46.7237      46.7237           90           90           90     102002.7   -629.98258 
  506000       505500   -7860.6537    712.25268   -8572.9064    4298.8815   -12871.788     108.2183   -866.18847   -1433.7135   -1304.3631   -122.04022    68.047201    -131.4054      46.7237      46.7237      46.7237           90           90           90     102002.7   -1201.4217 
  507000       506500   -7866.1563    721.04169   -8587.1979    4298.9999   -12886.198    109.55369   -760.11195   -508.00659   -710.40902   -176.77656   -48.745726   -109.46328      46.7237      46.7237      46.7237           90           90           90     102002.7   -659.50919 
  508000       507500   -7873.7404      738.625   -8612.3654    4257.2689   -12869.634    112.22526   -797.83335    -681.5504   -591.80667   -119.33993   -253.61088    63.233268      46.7237      46.7237      46.7237           90           90           90     102002.7   -690.39681 
  509000       508500   -7893.8004    716.47346   -8610.2738    4279.7011   -12889.975     108.8596   -563.37325   -944.87473   -896.75835   -37.312648   -76.236279    232.04804      46.7237      46.7237      46.7237           90           90           90     102002.7   -801.66877 
  510000       509500   -7845.2345    735.90205   -8581.1366    4291.0946   -12872.231    111.81154   -841.04428   -870.18746    -446.7756     231.0617    178.65292    29.537995      46.7237      46.7237      46.7237           90           90           90     102002.7   -719.33578 
  511000       510500   -7869.8095    717.05834   -8586.8679    4283.6586   -12870.526    108.94847   -1047.7634    -988.1009   -880.19892   -112.79815    214.00955   -17.777018      46.7237      46.7237      46.7237           90           90           90     102002.7   -972.02107 
  512000       511500   -7851.8543    737.01549   -8588.8698     4276.284   -12865.154    111.98072   -783.27679   -609.95277    -927.3661   -20.230746    120.94036    273.00661      46.7237      46.7237      46.7237           90           90           90     102002.7   -773.53189 
  513000       512500   -7901.9843    702.50032   -8604.4846    4275.4264   -12879.911    106.73655   -1225.3701   -612.38813   -1098.5224    106.32193    -136.8294    194.26699      46.7237      46.7237      46.7237           90           90           90     102002.7   -978.76023 
  514000       513500   -7850.6391    741.60446   -8592.2436    4278.0634   -12870.307    112.67796   -936.95842   -785.32218   -652.54135   -118.97597    47.654066   -151.51606      46.7237      46.7237      46.7237           90           90           90     102002.7   -791.60732 
  515000       514500   -7837.9723    748.33934   -8586.3117    4281.8049   -12868.117    113.70124   -286.56298   -318.31463   -882.48273   -70.806276    115.55464   -74.161567      46.7237      46.7237      46.7237           90           90           90     102002.7   -495.78678 
  516000       515500   -7879.5771    721.12316   -8600.7002    4272.7014   -12873.402    109.56607   -622.21317   -765.16942   -692.55709    209.42585    45.427972    215.07798      46.7237      46.7237      46.7237           90           90           90     102002.7   -693.31323 
  517000       516500   -7891.1595    715.09801   -8606.2575    4266.9485   -12873.206    108.65062   -1021.7744   -925.19153   -607.05561    4.8946485    191.48673    133.09257      46.7237      46.7237      46.7237           90           90           90     102002.7   -851.34052 
  518000       517500   -7907.3806     701.9386   -8609.3192    4267.6952   -12877.014     106.6512   -787.45577   -672.39231   -251.66451   -6.9942988    108.53923   -126.22349      46.7237      46.7237      46.7237           90           90           90     102002.7    -570.5042 
  519000       518500   -7887.1324    705.45247   -8592.5848    4279.2165   -12871.801    107.18509   -764.29133   -689.55279   -749.73073    -80.44542    -38.94302   -134.48192      46.7237      46.7237      46.7237           90           90           90     102002.7   -734.52495 
  520000       519500   -7894.7321    706.11899   -8600.8511    4244.1721   -12845.023    107.28636   -899.43047   -562.31947   -574.49937    148.44841   -77.145421   -25.919478      46.7237      46.7237      46.7237           90           90           90     102002.7   -678.74977 
  521000       520500   -7839.6481    740.59966   -8580.2478    4278.6721    -12858.92    112.52529   -624.16155   -864.46145   -613.25511   -73.328404   -60.521032   -122.58783      46.7237      46.7237      46.7237           90           90           90     102002.7   -700.62604 
  522000       521500   -7856.9355    732.43405   -8589.3695    4276.9224   -12866.292    111.28462   -348.01221   -972.49049   -471.59608   -67.698437   -113.47216    32.467008      46.7237      46.7237      46.7237           90           90           90     102002.7   -597.36626 
  523000       522500   -7869.8902    713.80707   -8583.6972    4267.2123    -12850.91    108.45447   -680.89298   -447.30193   -467.34112    194.16426    20.426537    183.04102      46.7237      46.7237      46.7237           90           90           90     102002.7   -531.84534 
  524000       523500   -7836.7625     719.0928   -8555.8553    4302.8259   -12858.681    109.25758   -659.96204   -655.38076   -1188.5092    90.227845   -109.19148    17.319252      46.7237      46.7237      46.7237           90           90           90     102002.7   -834.61734 
  525000       524500    -7900.698    693.57162   -8594.2697    4276.6426   -12870.912    105.37994   -920.09488   -552.96317   -316.69151    183.27597    -100.3236    -205.2979      46.7237      46.7237      46.7237           90           90           90     102002.7   -596.58318 
  526000       525500   -7870.4045    723.89474   -8594.2993    4269.3075   -12863.607    109.98718   -1050.2574   -273.05057   -1227.2702      171.196   -345.02552   -18.924923      46.7237      46.7237      46.7237           90           90           90     102002.7   -850.19273 
  527000       526500     -7861.51    732.05425   -8593.5643    4264.4233   -12857.988    111.22692   -1148.5061   -705.90111   -698.30567   -27.059268     35.20588   -19.498829      46.7237      46.7237      46.7237           90           90           90     102002.7   -850.90428 
  528000       527500   -7822.8196    745.73028   -8568.5499    4298.5568   -12867.107    113.30483    -731.9047   -1197.4142   -856.63973   -120.53408    17.077894    127.93257      46.7237      46.7237      46.7237           90           90           90     102002.7   -928.65289 
  529000       528500   -7886.2815    710.32272   -8596.6042     4289.385   -12885.989    107.92507   -1063.6409   -905.92394   -896.63444    149.84129    161.46974    21.754633      46.7237      46.7237      46.7237           90           90           90     102002.7   -955.39974 
  530000       529500   -7875.6761    726.39549   -8602.0716    4264.5434   -12866.615    110.36713    -1043.817   -586.75667   -922.18321   -227.75987    53.631579    202.44725      46.7237      46.7237      46.7237           90           90           90     102002.7   -850.91897 
  531000       530500   -7856.0026    749.24079   -8605.2434    4249.3876   -12854.631    113.83821   -1066.5383   -1301.1258   -565.67456   -191.13148   -40.258634   -364.38438      46.7237      46.7237      46.7237           90           90           90     102002.7   -977.77956 
  532000       531500   -7846.0865    747.30079   -8593.3873     4277.352   -12870.739    113.54345   -948.82267   -489.39345   -1164.1202   -44.955725   -79.716138   -102.55604      46.7237      46.7237      46.7237           90           90           90     102002.7   -867.44545 
  533000       532500   -7867.2889    719.11277   -8586.4017    4280.6268   -12867.028    109.26061   -1079.9816    -596.6337   -715.65918   -26.123217   -73.475345   -201.56198      46.7237      46.7237      46.7237           90           90           90     102002.7   -797.42482 
  534000       533500   -7868.2033    720.09631   -8588.2996    4264.3749   -12852.674    109.41005    -690.9955   -649.99137   -444.97569    219.63965   -105.98894   -158.93465      46.7237      46.7237      46.7237           90           90           90     102002.7   -595.32085 
  535000       534500   -7874.5134    731.41345   -8605.9269    4253.5612   -12859.488    111.12955   -488.40562   -542.00936   -779.27992   -68.291478   -326.93736   -68.794388      46.7237      46.7237      46.7237           90           90           90     102002.7   -603.23163 
  536000       535500   -7876.2859     712.9015   -8589.1874    4279.5817   -12868.769    108.31688   -519.00514   -528.60613   -751.50055   -52.709761    51.618082     244.8795      46.7237      46.7237      46.7237           90           90           90     102002.7   -599.70394 
  537000       536500   -7843.7392    722.59088     -8566.33    4314.2658   -12880.596    109.78907   -581.41785   -514.53231   -985.31528   -23.208478    43.643011    117.82751      46.7237      46.7237      46.7237           90           90           90     102002.7   -693.75515 
  538000       537500   -7872.5863    700.50669    -8573.093     4289.845   -12862.938    106.43364     -616.842   -531.47806   -637.54675   -278.00769   -19.394953    -59.69917      46.7237      46.7237      46.7237           90           90           90     102002.7   -595.28894 
  539000       538500   -7861.0372    735.79626   -8596.8334    4285.9849   -12882.818    111.79547    -864.5417    -833.5675   -902.30303    130.85233    282.33001   -103.79664      46.7237      46.7237      46.7237           90           90           90     102002.7   -866.80408 
  540000       539500   -7866.7857    738.23538   -8605.0211    4271.2858   -12876.307    112.16607   -636.19691   -514.98791   -302.89406    32.580987    114.71571    53.073999      46.7237      46.7237      46.7237           90           90           90     102002.7   -484.69296 
  541000       540500   -7842.7388    719.52432   -8562.2632    4303.5476   -12865.811    109.32314   -758.95029   -821.13201   -759.83876   -18.188548     136.6093    -60.54526      46.7237      46.7237      46.7237           90           90           90     102002.7   -779.97369 
  542000       541500    -7883.915    708.76121   -8592.6762    4279.2911   -12871.967    107.68782   -688.64217   -612.06254   -713.45372    147.21116    288.96787   -25.394948      46.7237      46.7237      46.7237           90           90           90     102002.7   -671.38614 
  543000       542500    -7877.644    722.22197    -8599.866    4305.7898   -12905.656    109.73302   -1201.0798   -1094.5183   -978.50808    142.98309    63.511044   -23.494587      46.7237      46.7237      46.7237           90           90           90     102002.7   -1091.3687 
  544000       543500   -7839.9279    734.63168   -8574.5596    4279.3284   -12853.888    111.61853   -841.42217   -925.71431   -879.51449   -2.4861048   -165.95472   -139.26206      46.7237      46.7237      46.7237           90           90           90     102002.7   -882.21699 
  545000       544500    -7878.065    717.58854   -8595.6535    4251.9198   -12847.573    109.02902     -762.029   -758.51861   -883.85179   -189.92753   -264.80885    252.35464      46.7237      46.7237      46.7237           90           90           90     102002.7   -801.46647 
  546000       545500   -7869.3396    726.67928   -8596.0189    4277.5715    -12873.59    110.41025   -552.92517   -868.18024   -544.30431      10.4216    23.123451    45.894701      46.7237      46.7237      46.7237           90           90           90     102002.7   -655.13657 
  547000       546500   -7883.7806    711.73278   -8595.5134    4286.0649   -12881.578    108.13931   -493.09083   -728.47026   -532.48645    149.00262   -28.480428   -2.0861518      46.7237      46.7237      46.7237           90           90           90     102002.7   -584.68251 
  548000       547500   -7860.9377    727.21137   -8588.1491    4290.3456   -12878.495     110.4911   -977.48032    -780.0249   -1186.8932    63.196349    86.934344    109.68808      46.7237      46.7237      46.7237           90           90           90     102002.7   -981.46613 
  549000       548500    -7863.805    730.09888   -8593.9039    4277.0434   -12870.947    110.92982   -730.58513   -794.50967   -749.45168   -82.737656    91.096094   -201.34947      46.7237      46.7237      46.7237           90           90           90     102002.7   -758.18216 
  550000       549500   -7891.9509    712.71347   -8604.6644    4296.4698   -12901.134    108.28831   -318.56402    -458.6517   -476.81782   -105.85024   -440.40688    109.60428      46.7237      46.7237      46.7237           90           90           90     102002.7   -418.01118 
  551000       550500   -7886.9981    691.68975   -8578.6878    4286.1801   -12864.868    105.09401   -919.75345   -1388.6883   -286.44687   -74.174367    122.74076    354.96502      46.7237      46.7237      46.7237           90           90           90     102002.7   -864.96288 
  552000       551500   -7872.5325    730.95647    -8603.489    4259.3841   -12862.873    111.06012   -394.61011   -375.26296   -323.29567   -12.955597    189.04659    145.24695      46.7237      46.7237      46.7237           90           90           90     102002.7   -364.38958 
  553000       552500    -7842.496    751.52616   -8594.0221    4290.1073   -12884.129    114.18544   -708.49853   -651.93025   -470.90314    62.620575    116.50405    28.404376      46.7237      46.7237      46.7237           90           90           90     102002.7   -610.44397 
  554000       553500   -7884.5546    707.88884   -8592.4435    4263.1156   -12855.559    107.55527   -287.53362   -695.17028   -996.95692   -50.836173    40.440382    85.369784      46.7237      46.7237      46.7237           90           90           90     102002.7   -659.88694 
  555000       554500   -7896.8457    705.12206   -8601.9678    4290.2301   -12892.198    107.13489   -795.57566   -618.27742   -745.71547    242.29712   -304.33265   -36.090337      46.7237      46.7237      46.7237           90           90           90     102002.7   -719.85619 
[...]
  936000       935500   -7909.7459    733.38169   -8643.1275    4248.6308   -12891.758     111.4286   -265.85161   -510.57747   -706.11788     -64.4746   -181.64407     259.5342      46.7237      46.7237      46.7237           90           90           90     102002.7   -494.18232 
  937000       936500   -7896.0593    723.12683   -8619.1862    4250.8801   -12870.066     109.8705   -797.58973    -1023.696   -892.90792   -73.400398    332.15557   -71.277487      46.7237      46.7237      46.7237           90           90           90     102002.7   -904.73123 
  938000       937500   -7865.2483    729.04084   -8594.2891    4277.3143   -12871.603    110.76906   -779.47653   -1081.3649   -553.88343    -22.89007   -83.218608    -64.42873      46.7237      46.7237      46.7237           90           90           90     102002.7    -804.9083 
  939000       938500   -7871.0161    705.05474   -8576.0709    4264.4622   -12840.533    107.12466    -720.8379   -1014.8999   -779.38231    3.1894496     26.78968     4.127933      46.7237      46.7237      46.7237           90           90           90     102002.7   -838.37336 
  940000       939500   -7893.4362    704.97028   -8598.4065     4258.259   -12856.665    107.11183   -876.87725   -670.27317   -945.89583    48.567524    141.62653     34.93139      46.7237      46.7237      46.7237           90           90           90     102002.7   -831.01542 
  941000       940500    -7861.005    737.38463   -8598.3896    4254.5142   -12852.904     112.0368   -498.18008   -893.29169   -714.97556   -55.644385   -24.468879   -62.679368      46.7237      46.7237      46.7237           90           90           90     102002.7   -702.14911 
  942000       941500   -7882.7358    705.49105   -8588.2268    4288.4064   -12876.633    107.19095   -822.90483   -740.66886   -486.94476    114.78555    202.67279   -170.78626      46.7237      46.7237      46.7237           90           90           90     102002.7   -683.50615 
  943000       942500   -7892.1987     701.9982   -8594.1969    4274.0939   -12868.291    106.66026   -591.15235   -630.78025   -628.86383    192.84352   -9.8908067    226.65291      46.7237      46.7237      46.7237           90           90           90     102002.7   -616.93214 
  944000       943500   -7873.1052    719.79033   -8592.8955    4267.3118   -12860.207    109.36356   -248.00511   -328.56833    -674.3918   -223.81352    144.09622    77.533873      46.7237      46.7237      46.7237           90           90           90     102002.7   -416.98841 
  945000       944500   -7847.1868    732.18061   -8579.3674    4290.3691   -12869.736    111.24611   -493.89855   -806.44669   -311.47689    181.32845    70.251446    1.4207992      46.7237      46.7237      46.7237           90           90           90     102002.7   -537.27404 
  946000       945500   -7870.1215    727.15647    -8597.278    4279.9073   -12877.185    110.48276    -70.44246   -413.90936   -375.50003   -87.559067    294.76054    308.53305      46.7237      46.7237      46.7237           90           90           90     102002.7   -286.61728 
  947000       946500   -7856.4629    727.97629   -8584.4392     4288.733   -12873.172    110.60732    -930.8695   -339.44771    -893.0924   -69.630125    23.135829    133.22008      46.7237      46.7237      46.7237           90           90           90     102002.7   -721.13653 
  948000       947500   -7878.7384    712.86026   -8591.5986    4258.5959   -12850.195    108.31062   -498.33449     -441.285    43.310332    150.53803   -91.734729    81.866234      46.7237      46.7237      46.7237           90           90           90     102002.7   -298.76972 
  949000       948500   -7882.3653    733.12437   -8615.4897    4270.7182   -12886.208    111.38951   -767.75779   -791.13428   -760.73693   -149.96538   -81.211235   -164.10911      46.7237      46.7237      46.7237           90           90           90     102002.7   -773.20967 
  950000       949500   -7894.0685    706.81561   -8600.8841    4257.9827   -12858.867     107.3922   -587.94112   -1058.0294   -758.59418   -287.76313     121.1903   -139.74002      46.7237      46.7237      46.7237           90           90           90     102002.7   -801.52157 
  951000       950500   -7875.5635    716.21275   -8591.7763    4278.4624   -12870.239    108.81999   -404.37609   -789.78175   -555.32511   -151.13639      280.333   -42.498158      46.7237      46.7237      46.7237           90           90           90     102002.7   -583.16098 
  952000       951500   -7872.5981    725.43998   -8598.0381     4271.266   -12869.304    110.22196   -534.30333   -764.26926   -981.80035     154.2774    33.161848    24.360924      46.7237      46.7237      46.7237           90           90           90     102002.7   -760.12431 
  953000       952500   -7847.7338    743.20957   -8590.9434    4258.3518   -12849.295    112.92183   -271.79217   -1158.6252   -1110.6047    147.34172   -125.18595     1.571631      46.7237      46.7237      46.7237           90           90           90     102002.7   -847.00735 
  954000       953500   -7870.3946     729.7836   -8600.1782    4256.7587   -12856.937    110.88192   -888.93016   -309.42945   -161.14472   -24.873827    173.05465    23.844962      46.7237      46.7237      46.7237           90           90           90     102002.7   -453.16811 
  955000       954500   -7877.6405    707.12691   -8584.7674    4266.0304   -12850.798     107.4395   -886.35782   -574.12307   -401.83489  -0.11827726    4.8319578    49.555755      46.7237      46.7237      46.7237           90           90           90     102002.7   -620.77192 
  956000       955500   -7839.3457    720.57888   -8559.9246    4284.8413   -12844.766    109.48337   -159.04607   -592.91992   -661.35739    29.669917    124.49581    43.553637      46.7237      46.7237      46.7237           90           90           90     102002.7    -471.1078 
  957000       956500   -7838.3271    739.34504   -8577.6721    4258.8815   -12836.554    112.33466   -262.11967   -656.82705   -777.14189    261.88961   -108.05374   -27.989422      46.7237      46.7237      46.7237           90           90           90     102002.7   -565.36287 
  958000       957500   -7874.2876    717.68044    -8591.968     4281.404   -12873.372    109.04299   -99.634044    -719.0913   -867.01802   -92.362745   -1.1042794    -11.16399      46.7237      46.7237      46.7237           90           90           90     102002.7   -561.91445 
  959000       958500   -7889.0133    713.94818   -8602.9615    4269.7463   -12872.708    108.47591    -387.8756   -802.67367   -801.34824    312.67429    17.303994    -115.8966      46.7237      46.7237      46.7237           90           90           90     102002.7   -663.96584 
  960000       959500   -7853.5683    731.11528   -8584.6836    4287.1013   -12871.785    111.08425   -558.26317    -1298.777    -916.5062    56.005219    175.08178   -260.58617      46.7237      46.7237      46.7237           90           90           90     102002.7   -924.51545 
  961000       960500   -7868.9898    707.01459   -8576.0044    4298.0102   -12874.015    107.42244   -471.30184   -797.38312   -1063.2614   -69.873453    39.964478   -93.276771      46.7237      46.7237      46.7237           90           90           90     102002.7   -777.31545 
  962000       961500   -7838.7079    735.40018   -8574.1081    4286.5228   -12860.631    111.73529   -301.13822   -974.81547   -565.37204    142.60835    44.476822    115.97676      46.7237      46.7237      46.7237           90           90           90     102002.7   -613.77524 
  963000       962500    -7857.742    736.01356   -8593.7556      4269.54   -12863.296    111.82849   -823.42816    -779.6229   -1260.5248   -70.284266    77.051418   -16.640078      46.7237      46.7237      46.7237           90           90           90     102002.7   -954.52528 
  964000       963500   -7868.3841    726.28853   -8594.6726    4261.8852   -12856.558    110.35088   -950.55613   -714.86953   -573.24058    75.875307    119.44161   -85.960135      46.7237      46.7237      46.7237           90           90           90     102002.7   -746.22208 
  965000       964500   -7863.9928    731.95955   -8595.9523    4270.1507   -12866.103    111.21253   -924.59749     -1012.02   -624.02647    6.0062495    189.70955   -71.414246      46.7237      46.7237      46.7237           90           90           90     102002.7     -853.548 
  966000       965500   -7862.2718    726.77126    -8589.043    4274.1646   -12863.208    110.42423    -861.1757   -697.13356   -527.66878   -154.82316    136.96703     205.9908      46.7237      46.7237      46.7237           90           90           90     102002.7   -695.32601 
  967000       966500   -7817.7392    737.27189   -8555.0111    4294.7326   -12849.744    112.01967   -928.24889   -736.44703   -1357.5311   -132.63242    89.690351    41.841195      46.7237      46.7237      46.7237           90           90           90     102002.7    -1007.409 
  968000       967500   -7882.2549    714.25456   -8596.5095    4255.3873   -12851.897    108.52247    -413.9598   -984.69233   -780.16158    29.512368    83.776602   -196.06051      46.7237      46.7237      46.7237           90           90           90     102002.7   -726.27124 
  969000       968500   -7884.5484    706.19493   -8590.7433    4253.5966    -12844.34     107.2979    -487.1716   -327.85927   -1295.7912     87.53728    9.7811456   -16.447759      46.7237      46.7237      46.7237           90           90           90     102002.7   -703.60735 
  970000       969500   -7879.9722    720.57699   -8600.5492    4264.3591   -12864.908    109.48308   -573.55971   -685.50987   -832.50794   -46.024528    222.92313    54.550367      46.7237      46.7237      46.7237           90           90           90     102002.7   -697.19251 
  971000       970500   -7864.0798    731.11869   -8595.1985    4278.6524   -12873.851    111.08477   -893.57232   -1188.1503   -972.22769    130.12073    69.444946    94.021842      46.7237      46.7237      46.7237           90           90           90     102002.7   -1017.9834 
  972000       971500   -7847.3957    737.58111   -8584.9768    4285.4103   -12870.387    112.06666   -963.08223   -658.83378   -1071.2795    87.598095    14.038928    108.09307      46.7237      46.7237      46.7237           90           90           90     102002.7   -897.73183 
  973000       972500   -7910.5026    688.66738   -8599.1699    4260.2079   -12859.378     104.6348   -1119.1356   -809.24991   -1129.6151    56.349155   -70.544266   -156.15173      46.7237      46.7237      46.7237           90           90           90     102002.7   -1019.3335 
  974000       973500   -7868.9137    713.95248   -8582.8662    4280.9266   -12863.793    108.47657    -750.9243   -997.09154   -439.11866   -12.748563    156.28334   -110.21032      46.7237      46.7237      46.7237           90           90           90     102002.7   -729.04483 
  975000       974500   -7841.1867    734.92609   -8576.1128    4286.8236   -12862.936    111.66326   -564.34054   -710.33957   -489.04856    43.833509   -62.558878    1.2497961      46.7237      46.7237      46.7237           90           90           90     102002.7   -587.90956 
  976000       975500   -7852.3444     729.2792   -8581.6236    4277.8347   -12859.458    110.80528   -594.66335   -236.00251   -607.62329   -152.02296    45.020122   -230.58841      46.7237      46.7237      46.7237           90           90           90     102002.7   -479.42972 
  977000       976500   -7827.2567    746.94768   -8574.2044    4302.4996   -12876.704    113.48979   -505.47815   -842.81839   -1030.7815    53.520747    160.86975   -38.584008      46.7237      46.7237      46.7237           90           90           90     102002.7   -793.02602 
  978000       977500   -7871.7727    730.32055   -8602.0932    4260.4912   -12862.584     110.9635   -700.76092   -228.05784   -733.55942   -70.810161   -186.76302   -77.933516      46.7237      46.7237      46.7237           90           90           90     102002.7   -554.12606 
  979000       978500   -7875.7891    714.36714   -8590.1563    4274.1427   -12864.299    108.53957    -703.7618   -923.26592     -520.401     147.9566    -57.48159    14.435741      46.7237      46.7237      46.7237           90           90           90     102002.7   -715.80957 
  980000       979500    -7839.052    736.26067   -8575.3127    4280.3994   -12855.712    111.86603   -863.17958   -958.97755   -548.92668    129.35503   -55.247281   -134.54089      46.7237      46.7237      46.7237           90           90           90     102002.7   -790.36127 
  981000       980500   -7865.8728    720.45941   -8586.3322     4295.353   -12881.685    109.46522    -331.8012   -883.02757   -353.32898     148.8896    63.444422    305.77581      46.7237      46.7237      46.7237           90           90           90     102002.7   -522.71925 
  982000       981500   -7861.6173    729.31442   -8590.9317    4278.7456   -12869.677    110.81063   -684.46653   -472.01786   -762.36639    34.172047   -6.3811404   -236.71255      46.7237      46.7237      46.7237           90           90           90     102002.7   -639.61693 
  983000       982500    -7888.837    709.60461   -8598.4416    4288.4566   -12886.898    107.81596   -1245.7975   -466.35574   -854.43769   -85.044101   -261.11239   -67.145264      46.7237      46.7237      46.7237           90           90           90     102002.7   -855.53029 
  984000       983500   -7873.1454    717.84833   -8590.9937    4277.9976   -12868.991     109.0685   -421.56095   -856.98689   -328.84499   -274.82624    20.270901   -144.89444      46.7237      46.7237      46.7237           90           90           90     102002.7   -535.79761 
  985000       984500   -7901.8898    713.89789   -8615.7876    4265.1499   -12880.938    108.46827   -998.93492   -918.86951   -628.62785     44.12017   -74.365042    121.97326      46.7237      46.7237      46.7237           90           90           90     102002.7   -848.81076 
  986000       985500   -7878.8895    712.63199   -8591.5215    4290.6696   -12882.191    108.27593   -804.46886   -670.99354    -816.7573     128.2423   -11.069807    -7.667703      46.7237      46.7237      46.7237           90           90           90     102002.7   -764.07324 
  987000       986500   -7864.9147    740.21906   -8605.1337    4272.8958    -12878.03    112.46746   -1040.7744   -645.66995   -1204.0174    201.15147   -11.449898    -186.7233      46.7237      46.7237      46.7237           90           90           90     102002.7   -963.48723 
  988000       987500   -7818.0731    755.30933   -8573.3824    4301.7213   -12875.104    114.76025   -960.12434   -412.20242   -844.53076     244.4027   -106.18646   -127.12494      46.7237      46.7237      46.7237           90           90           90     102002.7    -738.9525 
  989000       988500   -7863.3956    721.74332    -8585.139    4291.4186   -12876.558    109.66029   -179.54701   -503.31444   -559.38757   -187.26549    5.0345723   -4.7674802      46.7237      46.7237      46.7237           90           90           90     102002.7     -414.083 
  990000       989500   -7852.0507    736.26763   -8588.3183    4285.0298   -12873.348    111.86709   -485.30954   -847.61099   -817.67305   -86.440334    -131.6061    108.32913      46.7237      46.7237      46.7237           90           90           90     102002.7   -716.86453 
  991000       990500   -7898.5431    721.41277   -8619.9559     4262.828   -12882.784    109.61007   -377.69454   -450.24508   -87.128665    56.243504    -175.9632     193.9316      46.7237      46.7237      46.7237           90           90           90     102002.7   -305.02276 
  992000       991500   -7860.9395    722.85719   -8583.7967    4288.7364   -12872.533    109.82953   -707.89162    -425.3676   -666.91645   -7.2637318    200.23819   -93.478933      46.7237      46.7237      46.7237           90           90           90     102002.7   -600.05856 
  993000       992500   -7904.4891    693.40266   -8597.8918    4284.6822   -12882.574    105.35427   -262.72948   -268.28274   -380.48708   -23.810009    196.90067   -252.07528      46.7237      46.7237      46.7237           90           90           90     102002.7    -303.8331 
  994000       993500   -7877.8851    725.53801   -8603.4231    4255.9024   -12859.326    110.23685    38.866039   -628.41378    -1117.024    39.583253    80.354661    105.19648      46.7237      46.7237      46.7237           90           90           90     102002.7   -568.85723 
  995000       994500   -7866.5118    742.78641   -8609.2982    4224.3054   -12833.604    112.85754   -156.54437   -209.08814   -803.12542    85.297248   -10.900758    69.519438      46.7237      46.7237      46.7237           90           90           90     102002.7   -389.58598 
  996000       995500   -7827.4102    739.60656   -8567.0167    4289.5239   -12856.541     112.3744   -1163.9447   -179.05585   -668.26461    263.38666     50.82683    159.05323      46.7237      46.7237      46.7237           90           90           90     102002.7   -670.42172 
  997000       996500   -7867.1721    718.10821   -8585.2803    4277.8938   -12863.174    109.10798   -863.95007   -716.12109   -964.99964   -164.80592   -224.51518   -338.28566      46.7237      46.7237      46.7237           90           90           90     102002.7   -848.35693 
  998000       997500   -7889.5306    722.08219   -8611.6128    4250.6845   -12862.297    109.71178   -459.71596   -606.08284   -698.94079   -96.608389   -121.57267   -228.71479      46.7237      46.7237      46.7237           90           90           90     102002.7   -588.24653 
  999000       998500   -7876.2846    724.37964   -8600.6642    4276.7661    -12877.43    110.06085   -968.60423   -1078.2796   -1084.8739    174.97816    57.992574   -172.27017      46.7237      46.7237      46.7237           90           90           90     102002.7   -1043.9192 
 1000000       999500   -7867.0122    721.77086   -8588.7831    4258.5231   -12847.306    109.66448   -545.25868   -1022.8863    -699.6487   -33.545062   -203.75081   -147.09613      46.7237      46.7237      46.7237           90           90           90     102002.7   -755.93122 
 1000500      1000000   -7854.5751    729.92385   -8584.4989    4276.7953   -12861.294    110.90323   -517.69741   -1138.5759   -876.50106    55.921116   -93.199824   -69.774278      46.7237      46.7237      46.7237           90           90           90     102002.7   -844.25814 
Loop time of 818.269 on 24 procs for 500000 steps with 2209 atoms

Performance: 52.794 ns/day, 0.455 hours/ns, 611.046 timesteps/s
99.1% CPU use with 24 MPI tasks x no OpenMP threads

MPI task timing breakdown:
Section |  min time  |  avg time  |  max time  |%varavg| %total
---------------------------------------------------------------
Pair    | 157.56     | 374.33     | 570.19     | 639.8 | 45.75
Bond    | 41.615     | 82.583     | 137.18     | 311.0 | 10.09
Neigh   | 4.4516     | 4.4672     | 4.4798     |   0.4 |  0.55
Comm    | 92.351     | 338.34     | 593.34     | 799.2 | 41.35
Output  | 0.40823    | 0.446      | 0.44775    |   1.2 |  0.05
Modify  | 12.065     | 12.66      | 13.255     |   9.8 |  1.55
Other   |            | 5.449      |            |       |  0.67

Nlocal:    92.0417 ave 134 max 52 min
Histogram: 2 2 1 4 5 1 4 2 1 2
Nghost:    2500.71 ave 2618 max 2413 min
Histogram: 3 2 4 6 1 0 2 3 1 2
Neighs:    7644.33 ave 13456 max 2125 min
Histogram: 2 1 2 6 1 4 2 3 1 2

Total # of neighbors = 183464
Ave neighs/atom = 83.053
Ave special neighs/atom = 5.21503
Neighbor list builds = 4486
Dangerous builds = 0
Total wall time: 0:24:58
