LAMMPS (30 Mar 2018)
Reading data file ...
  orthogonal box = (0 0 0) to (46.7237 46.7237 46.7237)
  2 by 2 by 4 MPI processor grid
  reading atoms ...
  1732 atoms
  scanning bonds ...
  5 = max bonds/atom
  scanning angles ...
  10 = max angles/atom
  scanning dihedrals ...
  32 = max dihedrals/atom
  scanning impropers ...
  3 = max impropers/atom
  reading bonds ...
  2064 bonds
  reading angles ...
  3696 angles
  reading dihedrals ...
  6240 dihedrals
  reading impropers ...
  1008 impropers
Finding 1-2 1-3 1-4 neighbors ...
  special bond factors lj:   0          0          0         
  special bond factors coul: 0          0          0         
  5 = max # of 1-2 neighbors
  8 = max # of 1-3 neighbors
  20 = max # of 1-4 neighbors
  19 = max # of special neighbors
Finding 1-2 1-3 1-4 neighbors ...
  special bond factors lj:   0          0          1         
  special bond factors coul: 1          1          1         
  5 = max # of 1-2 neighbors
  8 = max # of 1-3 neighbors
  19 = max # of special neighbors
WARNING: Using 'neigh_modify every 1 delay 0 check yes' setting during minimization (../min.cpp:168)
Neighbor list info ...
  update every 1 steps, delay 0 steps, check yes
  max neighbors/atom: 2000, page size: 100000
  master list distance cutoff = 16
  ghost atom cutoff = 16
  binsize = 8, bins = 6 6 6
  3 neighbor lists, perpetual/occasional/extra = 3 0 0
  (1) pair buck6d/coul/gauss/dsf, perpetual, skip from (3)
      attributes: half, newton on
      pair build: skip
      stencil: none
      bin: none
  (2) pair lj/cut, perpetual, skip from (3)
      attributes: half, newton on
      pair build: skip
      stencil: none
      bin: none
  (3) neighbor class addition, perpetual
      attributes: half, newton on
      pair build: half/bin/newton
      stencil: half/bin/3d/newton
      bin: standard
Setting up cg style minimization ...
  Unit style    : real
  Current step  : 0
WARNING: Inconsistent image flags (../domain.cpp:786)
Per MPI rank memory allocation (min/avg/max) = 22.89 | 23.35 | 23.79 Mbytes
Step Temp E_pair E_mol TotEng Press 
       0            0   -11525.649    6482.8914   -5042.7578    6286.8279 
     504            0   -11555.046    3744.2183    -7810.828   -515.41625 
Loop time of 2.68534 on 16 procs for 504 steps with 1732 atoms

99.9% CPU use with 16 MPI tasks x no OpenMP threads

Minimization stats:
  Stopping criterion = max force evaluations
  Energy initial, next-to-last, final = 
         -5042.7578022      -7810.7983106     -7810.82797024
  Force two-norm initial, final = 2576.97 7.88197
  Force max component initial, final = 151.965 1.12016
  Final line search alpha, max atom move = 0.0236797 0.026525
  Iterations, force evaluations = 504 1001

MPI task timing breakdown:
Section |  min time  |  avg time  |  max time  |%varavg| %total
---------------------------------------------------------------
Pair    | 1.2832     | 1.5712     | 1.8527     |  13.1 | 58.51
Bond    | 0.31159    | 0.36104    | 0.44742    |   6.2 | 13.45
Neigh   | 0.013556   | 0.013698   | 0.013787   |   0.1 |  0.51
Comm    | 0.43923    | 0.69978    | 0.99133    |  17.6 | 26.06
Output  | 0          | 0          | 0          |   0.0 |  0.00
Modify  | 0          | 0          | 0          |   0.0 |  0.00
Other   |            | 0.03962    |            |       |  1.48

Nlocal:    108.25 ave 128 max 89 min
Histogram: 1 1 1 2 2 4 3 0 1 1
Nghost:    2186.5 ave 2205 max 2168 min
Histogram: 1 1 3 0 3 3 1 2 1 1
Neighs:    11450.2 ave 16068 max 7895 min
Histogram: 1 5 0 2 1 1 3 2 0 1

Total # of neighbors = 183203
Ave neighs/atom = 105.775
Ave special neighs/atom = 6.65127
Neighbor list builds = 12
Dangerous builds = 0
Neighbor list info ...
  update every 1 steps, delay 10 steps, check yes
  max neighbors/atom: 2000, page size: 100000
  master list distance cutoff = 16
  ghost atom cutoff = 16
  binsize = 8, bins = 6 6 6
  3 neighbor lists, perpetual/occasional/extra = 3 0 0
  (1) pair buck6d/coul/gauss/dsf, perpetual, skip from (3)
      attributes: half, newton on
      pair build: skip
      stencil: none
      bin: none
  (2) pair lj/cut, perpetual, skip from (3)
      attributes: half, newton on
      pair build: skip
      stencil: none
      bin: none
  (3) neighbor class addition, perpetual
      attributes: half, newton on
      pair build: half/bin/newton
      stencil: half/bin/3d/newton
      bin: standard
Setting up Verlet run ...
  Unit style    : real
  Current step  : 504
  Time step     : 1
WARNING: Inconsistent image flags (../domain.cpp:786)
Per MPI rank memory allocation (min/avg/max) = 22.54 | 22.64 | 23.31 Mbytes
Step Temp PotEng TotEng Press Volume Lx Ly Lz 
     504           91    -7810.828   -7341.2878    -304.9929     102002.7      46.7237      46.7237      46.7237 
    1000    83.883449   -7412.8284   -6980.0081   -725.14995     102002.7      46.7237      46.7237      46.7237 
    2000    93.344086   -7333.3342   -6851.6991   -583.00319     102002.7      46.7237      46.7237      46.7237 
    3000    85.744438   -7315.4865   -6873.0639   -979.36438     102002.7      46.7237      46.7237      46.7237 
    4000    88.801865   -7333.0517   -6874.8534   -373.57874     102002.7      46.7237      46.7237      46.7237 
    5000    91.022373   -7325.7695   -6856.1139   -802.71793     102002.7      46.7237      46.7237      46.7237 
    6000    88.797705   -7331.5922   -6873.4153   -532.74618     102002.7      46.7237      46.7237      46.7237 
    7000     92.58889    -7335.434   -6857.6955   -498.62638     102002.7      46.7237      46.7237      46.7237 
    8000    88.717086   -7317.6279   -6859.8671   -428.94686     102002.7      46.7237      46.7237      46.7237 
    9000     93.64457   -7326.7336   -6843.5481   -507.54513     102002.7      46.7237      46.7237      46.7237 
   10000    90.221046    -7332.737   -6867.2161   -880.08527     102002.7      46.7237      46.7237      46.7237 
   11000    91.962449   -7326.5079   -6852.0017   -586.56999     102002.7      46.7237      46.7237      46.7237 
   12000    89.232158   -7330.9724   -6870.5539   -626.25186     102002.7      46.7237      46.7237      46.7237 
   13000    94.631028   -7328.1231   -6839.8476   -766.92892     102002.7      46.7237      46.7237      46.7237 
   14000    89.803781    -7336.403   -6873.0351   -695.48878     102002.7      46.7237      46.7237      46.7237 
   15000    91.514731    -7323.959   -6851.7629   -671.69095     102002.7      46.7237      46.7237      46.7237 
   16000    91.413359   -7326.1102   -6854.4372   -840.31767     102002.7      46.7237      46.7237      46.7237 
   17000    89.649578   -7333.7254   -6871.1531    -623.9254     102002.7      46.7237      46.7237      46.7237 
   18000    92.850669    -7334.774   -6855.6848   -722.44207     102002.7      46.7237      46.7237      46.7237 
   19000    88.555558   -7336.8282   -6879.9008   -643.61285     102002.7      46.7237      46.7237      46.7237 
   20000    91.285222   -7333.2338   -6862.2219   -508.31402     102002.7      46.7237      46.7237      46.7237 
   21000    88.665047   -7330.9208   -6873.4284   -703.87225     102002.7      46.7237      46.7237      46.7237 
   22000    91.281193   -7340.2885   -6869.2974   -767.33188     102002.7      46.7237      46.7237      46.7237 
   23000    90.266861   -7325.0836   -6859.3262   -404.63913     102002.7      46.7237      46.7237      46.7237 
   24000    87.539651   -7332.9732   -6881.2876    -421.4042     102002.7      46.7237      46.7237      46.7237 
   25000     88.22645   -7321.6359   -6866.4066   -471.69519     102002.7      46.7237      46.7237      46.7237 
   26000    92.018636   -7319.8857   -6845.0896   -711.63883     102002.7      46.7237      46.7237      46.7237 
   27000    91.678225   -7342.4774   -6869.4377   -623.14339     102002.7      46.7237      46.7237      46.7237 
   28000    87.471081   -7340.7824   -6889.4507   -495.34724     102002.7      46.7237      46.7237      46.7237 
   29000    92.182309   -7342.7991   -6867.1584   -600.17206     102002.7      46.7237      46.7237      46.7237 
   30000    91.738952   -7345.2086   -6871.8556   -516.27419     102002.7      46.7237      46.7237      46.7237 
   31000    91.901662   -7340.4054   -6866.2129   -566.39842     102002.7      46.7237      46.7237      46.7237 
   32000    89.507209   -7327.4168   -6865.5791    -666.2012     102002.7      46.7237      46.7237      46.7237 
   33000    94.002858   -7336.2311   -6851.1968   -413.26028     102002.7      46.7237      46.7237      46.7237 
   34000    91.318328   -7339.2876    -6868.105   -699.29863     102002.7      46.7237      46.7237      46.7237 
   35000    93.575918   -7322.8451   -6840.0137   -693.88516     102002.7      46.7237      46.7237      46.7237 
   36000    92.258405   -7333.3481   -6857.3148   -722.71894     102002.7      46.7237      46.7237      46.7237 
   37000    87.752285   -7334.4959   -6881.7132   -552.31934     102002.7      46.7237      46.7237      46.7237 
   38000    92.662919   -7327.3292   -6849.2087   -487.74766     102002.7      46.7237      46.7237      46.7237 
   39000    91.255331   -7323.9817   -6853.1241    -725.8747     102002.7      46.7237      46.7237      46.7237 
   40000    87.753232    -7337.052   -6884.2645   -620.68598     102002.7      46.7237      46.7237      46.7237 
   41000    91.877537     -7330.62   -6856.5519   -618.25347     102002.7      46.7237      46.7237      46.7237 
   42000    90.526887    -7333.946   -6866.8469   -780.50879     102002.7      46.7237      46.7237      46.7237 
   43000    87.719773   -7348.4239    -6895.809   -602.81992     102002.7      46.7237      46.7237      46.7237 
   44000    89.738909   -7329.1557   -6866.1225    -693.1756     102002.7      46.7237      46.7237      46.7237 
   45000    91.300534   -7353.5109     -6882.42    -849.6496     102002.7      46.7237      46.7237      46.7237 
   46000    91.884912   -7325.0896   -6850.9835    -689.3781     102002.7      46.7237      46.7237      46.7237 
   47000     90.93492    -7335.933   -6866.7286   -734.22813     102002.7      46.7237      46.7237      46.7237 
   48000    88.335688   -7333.0572   -6877.2643   -302.54984     102002.7      46.7237      46.7237      46.7237 
   49000    92.569028   -7332.5344   -6854.8984   -553.30194     102002.7      46.7237      46.7237      46.7237 
   50000    90.410021   -7335.6228   -6869.1268   -619.84853     102002.7      46.7237      46.7237      46.7237 
   51000    92.634235   -7328.5492   -6850.5767   -559.91122     102002.7      46.7237      46.7237      46.7237 
   52000    90.750134   -7325.6934   -6857.4424   -535.65791     102002.7      46.7237      46.7237      46.7237 
   53000    87.658519   -7329.2325   -6876.9336   -809.70901     102002.7      46.7237      46.7237      46.7237 
   54000    95.330247   -7341.4226   -6849.5393   -533.66746     102002.7      46.7237      46.7237      46.7237 
   55000     91.35697   -7331.6334   -6860.2513   -539.81902     102002.7      46.7237      46.7237      46.7237 
   56000    87.752924   -7329.2875   -6876.5015   -714.84797     102002.7      46.7237      46.7237      46.7237 
   57000    92.695108   -7323.8892   -6845.6027   -676.81715     102002.7      46.7237      46.7237      46.7237 
   58000    93.996841   -7337.8563   -6852.8531    -750.3245     102002.7      46.7237      46.7237      46.7237 
   59000    90.088736   -7338.7556   -6873.9173   -748.92984     102002.7      46.7237      46.7237      46.7237 
   60000    92.522393   -7342.1479   -6864.7525   -812.57191     102002.7      46.7237      46.7237      46.7237 
   61000    92.888973   -7321.2446   -6841.9577   -522.76821     102002.7      46.7237      46.7237      46.7237 
   62000    92.183491   -7336.3636   -6860.7169   -479.23296     102002.7      46.7237      46.7237      46.7237 
   63000    90.029354   -7353.2483   -6888.7165    -903.2459     102002.7      46.7237      46.7237      46.7237 
   64000    93.803015   -7334.5361    -6850.533    -805.7032     102002.7      46.7237      46.7237      46.7237 
   65000    89.012377    -7330.145   -6870.8606   -648.38258     102002.7      46.7237      46.7237      46.7237 
   66000    92.838296   -7335.1295   -6856.1042    -683.2579     102002.7      46.7237      46.7237      46.7237 
   67000    91.174724   -7323.3177    -6852.876   -518.60178     102002.7      46.7237      46.7237      46.7237 
   68000    91.553086   -7339.0802   -6866.6862    -692.4845     102002.7      46.7237      46.7237      46.7237 
   69000    90.608117   -7320.8041    -6853.286    -707.1592     102002.7      46.7237      46.7237      46.7237 
   70000    93.172812   -7340.3367   -6859.5853   -701.98379     102002.7      46.7237      46.7237      46.7237 
   71000    92.083078   -7331.9482   -6856.8196   -699.66646     102002.7      46.7237      46.7237      46.7237 
   72000    91.265532   -7339.3312    -6868.421   -731.35082     102002.7      46.7237      46.7237      46.7237 
   73000    90.183165   -7344.6638   -6879.3383   -609.46862     102002.7      46.7237      46.7237      46.7237 
   74000    92.573205   -7336.7771   -6859.1195    -654.3459     102002.7      46.7237      46.7237      46.7237 
   75000    91.120919   -7353.0012   -6882.8371   -654.73759     102002.7      46.7237      46.7237      46.7237 
   76000    90.018269   -7339.9859   -6875.5112   -518.35069     102002.7      46.7237      46.7237      46.7237 
   77000     92.91551   -7328.8198    -6849.396   -778.31183     102002.7      46.7237      46.7237      46.7237 
   78000    91.370261    -7335.485   -6864.0343   -450.83801     102002.7      46.7237      46.7237      46.7237 
   79000    91.149688   -7340.9468   -6870.6343   -739.67735     102002.7      46.7237      46.7237      46.7237 
   80000    90.745644   -7334.0881   -6865.8604   -569.73837     102002.7      46.7237      46.7237      46.7237 
   81000     91.14309   -7349.4305    -6879.152   -470.47862     102002.7      46.7237      46.7237      46.7237 
   82000    92.496103   -7316.0265   -6838.7668   -569.17036     102002.7      46.7237      46.7237      46.7237 
   83000    89.341909   -7338.5733   -6877.5885    -571.7462     102002.7      46.7237      46.7237      46.7237 
   84000    88.806848   -7335.8219   -6877.5979   -788.78109     102002.7      46.7237      46.7237      46.7237 
   85000    91.034884   -7328.8035   -6859.0833   -610.54439     102002.7      46.7237      46.7237      46.7237 
   86000    89.272642   -7329.0468   -6868.4194   -788.71634     102002.7      46.7237      46.7237      46.7237 
   87000    90.235716   -7331.7873   -6866.1907   -768.15271     102002.7      46.7237      46.7237      46.7237 
   88000    90.376422   -7321.6882   -6855.3655   -638.52315     102002.7      46.7237      46.7237      46.7237 
   89000    90.608293   -7344.1173   -6876.5982   -687.86729     102002.7      46.7237      46.7237      46.7237 
   90000     90.22889   -7325.6247   -6860.0633   -1069.8675     102002.7      46.7237      46.7237      46.7237 
   91000    90.023989   -7340.5732    -6876.069   -583.30077     102002.7      46.7237      46.7237      46.7237 
   92000    92.732205   -7330.6208   -6852.1428   -595.73115     102002.7      46.7237      46.7237      46.7237 
   93000    90.316367   -7344.9494   -6878.9366   -904.51568     102002.7      46.7237      46.7237      46.7237 
   94000    93.303511    -7333.693   -6852.2672   -580.96314     102002.7      46.7237      46.7237      46.7237 
   95000     90.86004   -7336.0876   -6867.2695   -719.23443     102002.7      46.7237      46.7237      46.7237 
   96000    93.086708   -7321.2107   -6840.9035   -707.23769     102002.7      46.7237      46.7237      46.7237 
   97000    92.775004   -7344.9116   -6866.2128   -589.29252     102002.7      46.7237      46.7237      46.7237 
   98000    88.609883   -7334.4581   -6877.2504    -948.2148     102002.7      46.7237      46.7237      46.7237 
   99000    87.885907   -7325.4337   -6871.9615   -576.25663     102002.7      46.7237      46.7237      46.7237 
  100000     93.43249   -7327.9762   -6845.8849   -587.37925     102002.7      46.7237      46.7237      46.7237 
  101000    91.146244   -7344.1891   -6873.8943   -561.90951     102002.7      46.7237      46.7237      46.7237 
  102000    94.826358   -7336.4279   -6847.1446   -672.87515     102002.7      46.7237      46.7237      46.7237 
  103000    89.666847   -7346.7777   -6884.1163   -578.68438     102002.7      46.7237      46.7237      46.7237 
  104000    89.980681   -7319.7637    -6855.483   -638.09565     102002.7      46.7237      46.7237      46.7237 
  105000    89.285695   -7339.3065   -6878.6117   -755.44721     102002.7      46.7237      46.7237      46.7237 
  106000    89.834529   -7331.4291   -6867.9025    -757.8348     102002.7      46.7237      46.7237      46.7237 
  107000    92.482169   -7327.4205   -6850.2326   -833.57762     102002.7      46.7237      46.7237      46.7237 
  108000    92.086605   -7332.7901   -6857.6432   -711.76169     102002.7      46.7237      46.7237      46.7237 
  109000    90.230197    -7335.357   -6869.7888   -1040.0376     102002.7      46.7237      46.7237      46.7237 
  110000    89.305817   -7346.2922   -6885.4936   -946.65332     102002.7      46.7237      46.7237      46.7237 
  111000    90.254238   -7329.3773    -6863.685   -764.48547     102002.7      46.7237      46.7237      46.7237 
  112000     92.84735   -7333.1997   -6854.1276   -751.15256     102002.7      46.7237      46.7237      46.7237 
  113000    91.073776   -7335.8328   -6865.9119   -682.16437     102002.7      46.7237      46.7237      46.7237 
  114000    89.513181   -7338.4976    -6876.629   -765.88527     102002.7      46.7237      46.7237      46.7237 
  115000    91.728238   -7321.3973   -6848.0995   -532.16326     102002.7      46.7237      46.7237      46.7237 
  116000    89.810475   -7329.5363   -6866.1338   -842.37644     102002.7      46.7237      46.7237      46.7237 
  117000    88.676374   -7335.0771   -6877.5263   -783.32923     102002.7      46.7237      46.7237      46.7237 
  118000    94.437326   -7339.5069   -6852.2309   -674.48434     102002.7      46.7237      46.7237      46.7237 
  119000    89.597983   -7334.8768   -6872.5708   -729.29809     102002.7      46.7237      46.7237      46.7237 
  120000    94.427589   -7343.5358     -6856.31    -783.8166     102002.7      46.7237      46.7237      46.7237 
  121000    90.949605   -7319.1531   -6849.8729   -759.77866     102002.7      46.7237      46.7237      46.7237 
  122000    90.007124   -7328.1734   -6863.7562   -667.71674     102002.7      46.7237      46.7237      46.7237 
  123000    90.238331   -7349.4767   -6883.8666   -811.19767     102002.7      46.7237      46.7237      46.7237 
  124000    92.115196   -7346.4094    -6871.115   -714.80043     102002.7      46.7237      46.7237      46.7237 
  125000    87.853809   -7310.7476    -6857.441   -813.07142     102002.7      46.7237      46.7237      46.7237 
  126000    94.331449   -7339.0788   -6852.3491   -966.84923     102002.7      46.7237      46.7237      46.7237 
  127000    89.511795   -7333.1623   -6871.3009   -845.87447     102002.7      46.7237      46.7237      46.7237 
  128000    92.716129   -7333.9302   -6855.5352   -749.23014     102002.7      46.7237      46.7237      46.7237 
  129000    89.582488   -7346.5327   -6884.3066   -541.64423     102002.7      46.7237      46.7237      46.7237 
  130000    92.479579   -7327.3718   -6850.1973   -595.09984     102002.7      46.7237      46.7237      46.7237 
  131000    91.307756   -7344.0153   -6872.8872   -685.35271     102002.7      46.7237      46.7237      46.7237 
  132000    87.841589   -7309.2638   -6856.0203   -400.29602     102002.7      46.7237      46.7237      46.7237 
  133000     92.24514   -7339.7731   -6863.8083   -680.16281     102002.7      46.7237      46.7237      46.7237 
  134000    87.587474   -7327.7282   -6875.7959   -693.93073     102002.7      46.7237      46.7237      46.7237 
  135000    92.575578   -7319.4085   -6841.7387    -683.3098     102002.7      46.7237      46.7237      46.7237 
  136000    89.928943   -7343.5382   -6879.5244   -668.46279     102002.7      46.7237      46.7237      46.7237 
  137000    93.299601   -7333.7777   -6852.3721   -790.66196     102002.7      46.7237      46.7237      46.7237 
  138000    90.356945   -7326.8241    -6860.602   -690.65483     102002.7      46.7237      46.7237      46.7237 
  139000    90.689629   -7332.4497   -6864.5109    -757.1755     102002.7      46.7237      46.7237      46.7237 
  140000    91.274153   -7330.8747   -6859.9199   -757.97576     102002.7      46.7237      46.7237      46.7237 
  141000    89.698699   -7344.4171   -6881.5913   -774.17522     102002.7      46.7237      46.7237      46.7237 
  142000    92.689148   -7323.1491   -6844.8933   -630.94756     102002.7      46.7237      46.7237      46.7237 
  143000    88.786917   -7311.6058   -6853.4846   -458.88574     102002.7      46.7237      46.7237      46.7237 
  144000    89.677394   -7351.7603   -6889.0445   -683.35203     102002.7      46.7237      46.7237      46.7237 
  145000    91.179985   -7337.4254   -6866.9565   -631.08209     102002.7      46.7237      46.7237      46.7237 
  146000    88.146547   -7329.0918   -6874.2749   -680.37708     102002.7      46.7237      46.7237      46.7237 
  147000    91.904837   -7333.0122   -6858.8032   -501.45453     102002.7      46.7237      46.7237      46.7237 
  148000    93.562191   -7330.6921   -6847.9315   -468.36685     102002.7      46.7237      46.7237      46.7237 
  149000    90.380272   -7355.6854   -6889.3429   -567.80069     102002.7      46.7237      46.7237      46.7237 
  150000    91.189543   -7340.0698   -6869.5516   -658.76722     102002.7      46.7237      46.7237      46.7237 
  151000    93.463574   -7329.1989   -6846.9473    -795.4693     102002.7      46.7237      46.7237      46.7237 
  152000    88.321559   -7329.6651   -6873.9451    -673.0765     102002.7      46.7237      46.7237      46.7237 
  153000    91.654696   -7333.3752    -6860.457   -609.37289     102002.7      46.7237      46.7237      46.7237 
  154000     87.28452   -7333.9125   -6883.5434   -823.97323     102002.7      46.7237      46.7237      46.7237 
  155000    90.925951   -7346.4456   -6877.2875   -857.32615     102002.7      46.7237      46.7237      46.7237 
  156000    90.008531   -7329.1477   -6864.7233   -602.68489     102002.7      46.7237      46.7237      46.7237 
  157000    90.328542   -7329.6477   -6863.5721   -853.06991     102002.7      46.7237      46.7237      46.7237 
  158000    87.358317    -7347.421   -6896.6711   -856.94245     102002.7      46.7237      46.7237      46.7237 
  159000    91.479752   -7332.9416    -6860.926   -795.23648     102002.7      46.7237      46.7237      46.7237 
  160000    91.642995   -7333.8759    -6861.018   -535.40918     102002.7      46.7237      46.7237      46.7237 
  161000    91.155863   -7346.6176   -6876.2732   -671.08476     102002.7      46.7237      46.7237      46.7237 
  162000     90.96779   -7320.7699   -6851.3959   -333.34096     102002.7      46.7237      46.7237      46.7237 
  163000    91.278666   -7339.8295   -6868.8514   -626.61727     102002.7      46.7237      46.7237      46.7237 
  164000    94.690958   -7331.3685   -6842.7838    -434.2253     102002.7      46.7237      46.7237      46.7237 
  165000    89.257378   -7332.9263   -6872.3777    -566.5417     102002.7      46.7237      46.7237      46.7237 
  166000    93.373648   -7355.4655   -6873.6778   -664.36374     102002.7      46.7237      46.7237      46.7237 
  167000    90.711818   -7339.9447   -6871.8915    -389.8305     102002.7      46.7237      46.7237      46.7237 
  168000    89.489011   -7307.3438      -6845.6   -768.88433     102002.7      46.7237      46.7237      46.7237 
  169000    92.734658    -7333.594   -6855.1034   -513.35814     102002.7      46.7237      46.7237      46.7237 
  170000    88.252762    -7341.708   -6886.3429   -578.00979     102002.7      46.7237      46.7237      46.7237 
  171000    90.801734   -7328.1262    -6859.609   -819.84896     102002.7      46.7237      46.7237      46.7237 
  172000    91.548316   -7319.1898   -6846.8204   -403.46154     102002.7      46.7237      46.7237      46.7237 
  173000    89.294498   -7332.7797   -6872.0395   -843.22758     102002.7      46.7237      46.7237      46.7237 
  174000    91.877402   -7335.8921   -6861.8248    -406.6869     102002.7      46.7237      46.7237      46.7237 
  175000    94.086082    -7329.308   -6843.8444   -707.96297     102002.7      46.7237      46.7237      46.7237 
  176000    90.200946   -7331.2792   -6865.8619   -724.01473     102002.7      46.7237      46.7237      46.7237 
  177000    92.248029   -7344.5439   -6868.5642   -529.45127     102002.7      46.7237      46.7237      46.7237 
  178000    92.670439   -7336.1685   -6858.0092   -791.44388     102002.7      46.7237      46.7237      46.7237 
  179000    92.359253   -7333.8007   -6857.2471    -961.1468     102002.7      46.7237      46.7237      46.7237 
  180000    88.308043   -7332.0267   -6876.3764   -499.91267     102002.7      46.7237      46.7237      46.7237 
  181000    90.023632   -7323.2379   -6858.7355   -1006.1744     102002.7      46.7237      46.7237      46.7237 
  182000    90.950761   -7332.4215   -6863.1353   -609.69229     102002.7      46.7237      46.7237      46.7237 
  183000    90.369787   -7340.1706   -6873.8822   -610.55731     102002.7      46.7237      46.7237      46.7237 
  184000    92.526387   -7332.8393   -6855.4233   -728.77285     102002.7      46.7237      46.7237      46.7237 
  185000    87.623462   -7336.9292   -6884.8112   -801.40648     102002.7      46.7237      46.7237      46.7237 
  186000    91.356919   -7324.7912   -6853.4094   -924.04353     102002.7      46.7237      46.7237      46.7237 
  187000    90.282238   -7337.8065   -6871.9698   -679.84526     102002.7      46.7237      46.7237      46.7237 
  188000    91.479798   -7326.6981   -6854.6823    -830.8019     102002.7      46.7237      46.7237      46.7237 
  189000    93.643325   -7317.9925   -6834.8133   -574.10179     102002.7      46.7237      46.7237      46.7237 
  190000    90.696235   -7332.9956   -6865.0228   -382.07107     102002.7      46.7237      46.7237      46.7237 
  191000     92.80775   -7332.8481   -6853.9803   -778.91888     102002.7      46.7237      46.7237      46.7237 
  192000    89.106578   -7325.8492   -6866.0787   -630.17018     102002.7      46.7237      46.7237      46.7237 
  193000    92.040434   -7316.9488   -6842.0402   -614.73672     102002.7      46.7237      46.7237      46.7237 
  194000    91.637097   -7327.8818   -6855.0543   -676.89235     102002.7      46.7237      46.7237      46.7237 
  195000    91.574225   -7328.8568   -6856.3537   -747.53099     102002.7      46.7237      46.7237      46.7237 
  196000    88.487348   -7328.5216   -6871.9462   -680.48796     102002.7      46.7237      46.7237      46.7237 
  197000    91.119732   -7329.8544   -6859.6964   -334.90385     102002.7      46.7237      46.7237      46.7237 
  198000    90.345011   -7319.2266    -6853.066   -693.80838     102002.7      46.7237      46.7237      46.7237 
  199000     91.88698   -7326.0486   -6851.9318    -669.9058     102002.7      46.7237      46.7237      46.7237 
  200000    90.527306   -7335.5447   -6868.4435   -791.69096     102002.7      46.7237      46.7237      46.7237 
  201000    91.846238   -7340.8823   -6866.9757   -796.87999     102002.7      46.7237      46.7237      46.7237 
  202000    92.945056   -7323.9223    -6844.346    -604.7883     102002.7      46.7237      46.7237      46.7237 
  203000    91.221895   -7343.6481    -6872.963   -918.69684     102002.7      46.7237      46.7237      46.7237 
  204000    94.317383   -7348.8705   -6862.2133   -577.84544     102002.7      46.7237      46.7237      46.7237 
  205000    88.764791   -7325.7617   -6867.7547   -802.48305     102002.7      46.7237      46.7237      46.7237 
  206000    89.753324   -7338.7702   -6875.6626   -708.64398     102002.7      46.7237      46.7237      46.7237 
  207000    91.935693   -7323.3856   -6849.0174   -814.79016     102002.7      46.7237      46.7237      46.7237 
  208000    93.952696   -7351.2653   -6866.4899   -528.09987     102002.7      46.7237      46.7237      46.7237 
  209000    91.936054   -7318.9286   -6844.5586   -659.50347     102002.7      46.7237      46.7237      46.7237 
  210000    89.854679   -7337.6957   -6874.0652   -760.68381     102002.7      46.7237      46.7237      46.7237 
  211000    89.352941   -7344.1181   -6883.0764   -546.58382     102002.7      46.7237      46.7237      46.7237 
  212000    89.815517   -7324.3996   -6860.9711   -566.47825     102002.7      46.7237      46.7237      46.7237 
  213000    91.339233   -7336.3177   -6865.0271   -757.36368     102002.7      46.7237      46.7237      46.7237 
  214000    90.208626   -7332.0306   -6866.5738   -787.90228     102002.7      46.7237      46.7237      46.7237 
  215000    89.927683   -7343.2597   -6879.2525   -786.46506     102002.7      46.7237      46.7237      46.7237 
  216000    90.596889    -7335.775   -6868.3148    -638.4543     102002.7      46.7237      46.7237      46.7237 
  217000    90.912654   -7332.0675    -6862.978   -1006.7076     102002.7      46.7237      46.7237      46.7237 
  218000     89.87486    -7336.916   -6873.1813   -856.79588     102002.7      46.7237      46.7237      46.7237 
  219000    89.571067   -7351.9916   -6889.8244   -663.56754     102002.7      46.7237      46.7237      46.7237 
  220000    92.314325   -7333.9555   -6857.6337   -736.98517     102002.7      46.7237      46.7237      46.7237 
  221000    90.568668   -7346.2152   -6878.9006   -629.00323     102002.7      46.7237      46.7237      46.7237 
  222000    90.890848   -7330.0114   -6861.0344    -807.1551     102002.7      46.7237      46.7237      46.7237 
  223000     92.94685   -7346.2783   -6866.6928   -457.40553     102002.7      46.7237      46.7237      46.7237 
  224000    88.545251   -7336.2931   -6879.4189    -424.9776     102002.7      46.7237      46.7237      46.7237 
  225000    91.976419    -7326.977   -6852.3987   -650.01475     102002.7      46.7237      46.7237      46.7237 
  226000    92.300985   -7330.1011   -6853.8481   -385.58505     102002.7      46.7237      46.7237      46.7237 
  227000    89.689151    -7342.431   -6879.6546   -581.67173     102002.7      46.7237      46.7237      46.7237 
  228000    92.639472   -7335.4867   -6857.4872   -479.76545     102002.7      46.7237      46.7237      46.7237 
  229000    91.007948   -7360.5445   -6890.9633   -402.78622     102002.7      46.7237      46.7237      46.7237 
  230000    93.757437   -7342.3418   -6858.5739   -533.78535     102002.7      46.7237      46.7237      46.7237 
  231000    92.410025   -7314.0081   -6837.1925   -664.98022     102002.7      46.7237      46.7237      46.7237 
  232000    88.550763   -7334.1922   -6877.2895   -586.29252     102002.7      46.7237      46.7237      46.7237 
  233000    92.293466   -7322.4597   -6846.2455   -684.89116     102002.7      46.7237      46.7237      46.7237 
  234000    91.070275   -7346.3889   -6876.4861   -550.36319     102002.7      46.7237      46.7237      46.7237 
  235000    93.206742   -7312.2422   -6831.3158   -671.28925     102002.7      46.7237      46.7237      46.7237 
  236000    91.006122   -7338.4486   -6868.8768   -874.98208     102002.7      46.7237      46.7237      46.7237 
  237000    87.356107   -7338.7507   -6888.0122   -699.45381     102002.7      46.7237      46.7237      46.7237 
  238000    92.851187   -7340.6372   -6861.5453   -703.18608     102002.7      46.7237      46.7237      46.7237 
  239000    92.866287   -7326.1963   -6847.0264   -535.03928     102002.7      46.7237      46.7237      46.7237 
  240000    90.767235   -7341.0688   -6872.7297   -653.07332     102002.7      46.7237      46.7237      46.7237 
  241000    88.642066   -7324.8344   -6867.4607   -749.29196     102002.7      46.7237      46.7237      46.7237 
  242000    91.571212   -7325.1762   -6852.6887   -615.96373     102002.7      46.7237      46.7237      46.7237 
  243000    91.628079   -7327.8115   -6855.0305   -1031.9186     102002.7      46.7237      46.7237      46.7237 
  244000     91.35224   -7342.4477     -6871.09   -823.62979     102002.7      46.7237      46.7237      46.7237 
  245000    92.002847   -7332.1456    -6857.431   -964.77714     102002.7      46.7237      46.7237      46.7237 
  246000    88.149232   -7336.8795   -6882.0487   -718.87841     102002.7      46.7237      46.7237      46.7237 
  247000    90.819857   -7316.2166   -6847.6059   -869.91167     102002.7      46.7237      46.7237      46.7237 
  248000     89.64141   -7332.8424   -6870.3122   -846.71758     102002.7      46.7237      46.7237      46.7237 
  249000    88.449762   -7341.6794   -6885.2979   -579.15195     102002.7      46.7237      46.7237      46.7237 
  250000    92.972231   -7334.5933   -6854.8769   -739.02429     102002.7      46.7237      46.7237      46.7237 
  251000     95.05617   -7327.3185   -6836.8494   -527.28583     102002.7      46.7237      46.7237      46.7237 
  252000    89.804803   -7330.6375   -6867.2643   -739.52406     102002.7      46.7237      46.7237      46.7237 
  253000    91.831294   -7306.3951   -6832.5656   -613.34864     102002.7      46.7237      46.7237      46.7237 
  254000    88.994105   -7325.4959   -6866.3057   -835.95326     102002.7      46.7237      46.7237      46.7237 
  255000    91.926062   -7334.1772   -6859.8588   -666.66002     102002.7      46.7237      46.7237      46.7237 
  256000    90.439774    -7326.647   -6859.9974   -669.55757     102002.7      46.7237      46.7237      46.7237 
  257000    86.610661   -7331.4346   -6884.5425   -480.83059     102002.7      46.7237      46.7237      46.7237 
  258000    93.236578   -7334.8734    -6853.793   -571.92239     102002.7      46.7237      46.7237      46.7237 
  259000    90.356884   -7308.5816   -6842.3598   -702.41654     102002.7      46.7237      46.7237      46.7237 
  260000    87.696696   -7332.9745   -6880.4787   -456.87049     102002.7      46.7237      46.7237      46.7237 
  261000    94.181062   -7337.5425   -6851.5887   -827.96747     102002.7      46.7237      46.7237      46.7237 
  262000    90.993227   -7331.6424   -6862.1371   -480.70054     102002.7      46.7237      46.7237      46.7237 
  263000    89.704857    -7324.904   -6862.0465   -542.28966     102002.7      46.7237      46.7237      46.7237 
  264000    91.411959   -7325.7409   -6854.0751   -588.69002     102002.7      46.7237      46.7237      46.7237 
  265000    91.051537    -7334.513   -6864.7069   -543.05224     102002.7      46.7237      46.7237      46.7237 
  266000    91.290536   -7337.8305   -6866.7912   -788.18292     102002.7      46.7237      46.7237      46.7237 
  267000    91.939864   -7332.1047    -6857.715   -626.61394     102002.7      46.7237      46.7237      46.7237 
  268000    93.649804   -7330.8514   -6847.6388   -567.10399     102002.7      46.7237      46.7237      46.7237 
  269000    93.853911   -7326.4483   -6842.1825   -553.81743     102002.7      46.7237      46.7237      46.7237 
  270000    90.924828   -7332.2665   -6863.1141   -711.74286     102002.7      46.7237      46.7237      46.7237 
  271000    90.307144   -7333.5805   -6867.6153   -774.54863     102002.7      46.7237      46.7237      46.7237 
  272000     90.60104   -7328.8447   -6861.3631   -665.28359     102002.7      46.7237      46.7237      46.7237 
  273000    90.289766   -7337.2445    -6871.369   -628.20722     102002.7      46.7237      46.7237      46.7237 
  274000    90.100954   -7335.9939   -6871.0926   -559.76388     102002.7      46.7237      46.7237      46.7237 
  275000    91.326128   -7326.7155   -6855.4925   -804.56408     102002.7      46.7237      46.7237      46.7237 
  276000    90.938195   -7356.0772   -6886.8559   -562.38401     102002.7      46.7237      46.7237      46.7237 
  277000    91.122367   -7331.7824   -6861.6108   -635.61618     102002.7      46.7237      46.7237      46.7237 
  278000    92.704125   -7316.6312   -6838.2981   -612.10524     102002.7      46.7237      46.7237      46.7237 
  279000     86.44199   -7328.0705   -6882.0486   -485.75697     102002.7      46.7237      46.7237      46.7237 
  280000     93.11544   -7341.0837   -6860.6283   -656.78383     102002.7      46.7237      46.7237      46.7237 
  281000    89.913401   -7335.2719   -6871.3383   -626.32606     102002.7      46.7237      46.7237      46.7237 
  282000    89.952915   -7340.4597   -6876.3223   -634.59999     102002.7      46.7237      46.7237      46.7237 
  283000    91.700962    -7330.338    -6857.181   -414.02825     102002.7      46.7237      46.7237      46.7237 
  284000    92.575168   -7337.3062   -6859.6385   -564.13699     102002.7      46.7237      46.7237      46.7237 
  285000    88.419473   -7327.8368   -6871.6116   -773.82895     102002.7      46.7237      46.7237      46.7237 
  286000    90.481907   -7331.9637   -6865.0968   -799.11511     102002.7      46.7237      46.7237      46.7237 
  287000    90.081785   -7332.8007   -6867.9983   -691.80016     102002.7      46.7237      46.7237      46.7237 
  288000    91.611106   -7344.3717   -6871.6784   -628.46069     102002.7      46.7237      46.7237      46.7237 
  289000    91.274043    -7332.357   -6861.4028   -649.35903     102002.7      46.7237      46.7237      46.7237 
  290000    90.108609   -7317.6977   -6852.7569   -641.75387     102002.7      46.7237      46.7237      46.7237 
  291000    90.851764   -7338.9227   -6870.1474   -593.54519     102002.7      46.7237      46.7237      46.7237 
  292000    92.778932   -7346.4529   -6867.7339   -654.63399     102002.7      46.7237      46.7237      46.7237 
  293000    92.464858   -7340.4176   -6863.3191   -374.11796     102002.7      46.7237      46.7237      46.7237 
  294000    87.727025   -7332.4981   -6879.8457   -568.12396     102002.7      46.7237      46.7237      46.7237 
  295000    91.414403   -7333.7155   -6862.0371   -545.31156     102002.7      46.7237      46.7237      46.7237 
  296000    88.939414   -7338.1186   -6879.2106   -694.69982     102002.7      46.7237      46.7237      46.7237 
  297000    92.368887   -7324.5119   -6847.9086   -506.12194     102002.7      46.7237      46.7237      46.7237 
  298000    91.933486   -7345.0637    -6870.707   -687.46953     102002.7      46.7237      46.7237      46.7237 
  299000    91.002737   -7326.5589   -6857.0046   -869.34993     102002.7      46.7237      46.7237      46.7237 
  300000    93.228462   -7325.0798   -6844.0412   -755.70655     102002.7      46.7237      46.7237      46.7237 
  301000    91.724044   -7328.4702   -6855.1941   -683.41477     102002.7      46.7237      46.7237      46.7237 
  302000    93.906196   -7343.5599   -6859.0244   -385.03928     102002.7      46.7237      46.7237      46.7237 
  303000    91.305461   -7346.9827   -6875.8664    -709.7324     102002.7      46.7237      46.7237      46.7237 
  304000    92.959839    -7340.041   -6860.3885   -608.26874     102002.7      46.7237      46.7237      46.7237 
  305000    93.737051   -7329.0734   -6845.4106   -673.78592     102002.7      46.7237      46.7237      46.7237 
  306000    90.476099   -7335.6639   -6868.8269    -658.1689     102002.7      46.7237      46.7237      46.7237 
  307000    91.381161   -7332.4879    -6860.981    -704.3249     102002.7      46.7237      46.7237      46.7237 
  308000    93.312257   -7319.5867   -6838.1158   -917.89803     102002.7      46.7237      46.7237      46.7237 
  309000    87.592883   -7333.9342    -6881.974   -607.23396     102002.7      46.7237      46.7237      46.7237 
  310000    90.058315   -7324.5401   -6859.8588   -871.24214     102002.7      46.7237      46.7237      46.7237 
  311000    90.803701   -7334.3962   -6865.8689    -786.1525     102002.7      46.7237      46.7237      46.7237 
  312000    92.494013   -7320.8621   -6843.6131   -884.67094     102002.7      46.7237      46.7237      46.7237 
  313000    89.695443   -7348.1259    -6885.317   -802.72246     102002.7      46.7237      46.7237      46.7237 
  314000     92.23816   -7330.9093   -6854.9805   -600.82017     102002.7      46.7237      46.7237      46.7237 
  315000    87.472992   -7339.3378   -6887.9962   -692.67962     102002.7      46.7237      46.7237      46.7237 
  316000    92.428632   -7328.1639   -6851.2523   -742.35581     102002.7      46.7237      46.7237      46.7237 
  317000    90.936301   -7335.2359   -6866.0244   -617.97362     102002.7      46.7237      46.7237      46.7237 
  318000    92.829268   -7320.7269    -6841.748   -717.35032     102002.7      46.7237      46.7237      46.7237 
  319000    90.198504   -7337.2111   -6871.8064   -760.79067     102002.7      46.7237      46.7237      46.7237 
  320000    91.762968   -7338.6459    -6865.169   -723.10568     102002.7      46.7237      46.7237      46.7237 
  321000    90.091943    -7341.936   -6877.0812   -651.44087     102002.7      46.7237      46.7237      46.7237 
  322000    91.930488   -7343.9628   -6869.6215   -490.45913     102002.7      46.7237      46.7237      46.7237 
  323000     94.77137   -7346.8059   -6857.8063   -455.15952     102002.7      46.7237      46.7237      46.7237 
  324000    93.639764   -7348.3746   -6865.2138   -514.27172     102002.7      46.7237      46.7237      46.7237 
  325000    90.911957   -7348.3589    -6879.273   -516.46069     102002.7      46.7237      46.7237      46.7237 
  326000    92.577522   -7341.0358    -6863.356   -430.04154     102002.7      46.7237      46.7237      46.7237 
  327000    88.842086   -7334.3657   -6875.9599     -329.492     102002.7      46.7237      46.7237      46.7237 
  328000    91.527866   -7327.6727   -6855.4089   -509.12012     102002.7      46.7237      46.7237      46.7237 
  329000    88.990916   -7340.2499   -6881.0762   -479.17831     102002.7      46.7237      46.7237      46.7237 
  330000    91.289647   -7327.6218   -6856.5871   -748.70559     102002.7      46.7237      46.7237      46.7237 
  331000    91.974302   -7353.1123   -6878.5449   -636.23561     102002.7      46.7237      46.7237      46.7237 
  332000    89.678186   -7333.4363   -6870.7164   -834.33742     102002.7      46.7237      46.7237      46.7237 
  333000    93.419662   -7320.0075   -6837.9824   -920.54977     102002.7      46.7237      46.7237      46.7237 
  334000    88.530877   -7324.0911   -6867.2911   -578.35556     102002.7      46.7237      46.7237      46.7237 
  335000    88.109363   -7321.5091   -6866.8839   -918.21976     102002.7      46.7237      46.7237      46.7237 
  336000    92.286446   -7340.1557   -6863.9777   -947.56547     102002.7      46.7237      46.7237      46.7237 
  337000      93.7384   -7323.1455   -6839.4758   -923.25029     102002.7      46.7237      46.7237      46.7237 
  338000    91.521648   -7349.7022   -6877.4704   -1049.5452     102002.7      46.7237      46.7237      46.7237 
  339000    91.334413   -7328.6888   -6857.4232   -505.73709     102002.7      46.7237      46.7237      46.7237 
  340000     89.41443   -7339.4949   -6878.1359   -775.00274     102002.7      46.7237      46.7237      46.7237 
  341000    93.236415   -7332.8385   -6851.7589    -912.0056     102002.7      46.7237      46.7237      46.7237 
  342000    90.478889   -7350.6144   -6883.7631   -841.69657     102002.7      46.7237      46.7237      46.7237 
  343000    93.675228   -7333.8643   -6850.5206    -458.6996     102002.7      46.7237      46.7237      46.7237 
  344000    89.165841   -7339.0861   -6879.0098   -799.02679     102002.7      46.7237      46.7237      46.7237 
  345000    89.518365   -7321.0223    -6859.127   -652.95667     102002.7      46.7237      46.7237      46.7237 
  346000    90.948114   -7337.9351   -6868.6627    -555.0965     102002.7      46.7237      46.7237      46.7237 
  347000    93.879555   -7334.3483   -6849.9502   -757.79216     102002.7      46.7237      46.7237      46.7237 
  348000    91.617162   -7351.1117   -6878.3871   -584.46659     102002.7      46.7237      46.7237      46.7237 
  349000    90.999939   -7343.0452   -6873.5053   -858.22236     102002.7      46.7237      46.7237      46.7237 
  350000    91.290001   -7344.3879   -6873.3514   -766.22514     102002.7      46.7237      46.7237      46.7237 
  351000      87.5265   -7339.3768   -6887.7591   -758.78407     102002.7      46.7237      46.7237      46.7237 
  352000    90.397395   -7335.4861   -6869.0552   -619.52196     102002.7      46.7237      46.7237      46.7237 
  353000     94.09501   -7343.9792   -6858.4694   -757.12196     102002.7      46.7237      46.7237      46.7237 
  354000    89.801391   -7336.6951   -6873.3395   -631.54591     102002.7      46.7237      46.7237      46.7237 
  355000    89.336817   -7328.7937   -6867.8351   -812.87972     102002.7      46.7237      46.7237      46.7237 
  356000    89.789594   -7349.0836   -6885.7888   -584.08653     102002.7      46.7237      46.7237      46.7237 
  357000    91.594271   -7324.7344   -6852.1279    -519.7078     102002.7      46.7237      46.7237      46.7237 
  358000    92.268902   -7359.1407   -6883.0532   -605.58071     102002.7      46.7237      46.7237      46.7237 
  359000    93.280807   -7340.2125   -6858.9039   -493.59815     102002.7      46.7237      46.7237      46.7237 
  360000    91.278264    -7330.773   -6859.7971   -922.86961     102002.7      46.7237      46.7237      46.7237 
  361000    90.026435   -7347.7735   -6883.2567   -686.09191     102002.7      46.7237      46.7237      46.7237 
  362000    89.945495   -7323.7442   -6859.6451   -603.63854     102002.7      46.7237      46.7237      46.7237 
  363000    89.839349   -7348.1326   -6884.5811   -684.49927     102002.7      46.7237      46.7237      46.7237 
  364000    89.668326   -7327.2343   -6864.5653   -760.94103     102002.7      46.7237      46.7237      46.7237 
  365000    91.257704   -7339.3798     -6868.51    -812.3058     102002.7      46.7237      46.7237      46.7237 
  366000    90.528872   -7343.6123   -6876.5031   -908.76618     102002.7      46.7237      46.7237      46.7237 
  367000    93.244712   -7337.1986   -6856.0761   -996.14843     102002.7      46.7237      46.7237      46.7237 
  368000    89.259742    -7341.792   -6881.2312    -1004.499     102002.7      46.7237      46.7237      46.7237 
  369000    96.324216   -7331.2829   -6834.2709   -888.09689     102002.7      46.7237      46.7237      46.7237 
  370000     92.63861    -7346.375   -6868.3799   -840.62571     102002.7      46.7237      46.7237      46.7237 
  371000    94.939937    -7327.826   -6837.9566   -453.80198     102002.7      46.7237      46.7237      46.7237 
  372000    90.783332    -7322.782   -6854.3598   -735.13557     102002.7      46.7237      46.7237      46.7237 
  373000    90.255691   -7346.0962   -6880.3965   -419.01998     102002.7      46.7237      46.7237      46.7237 
  374000    90.146159   -7330.0952   -6864.9607   -592.13868     102002.7      46.7237      46.7237      46.7237 
  375000    88.783416   -7323.7495   -6865.6464   -828.79271     102002.7      46.7237      46.7237      46.7237 
  376000     92.12974   -7308.1312   -6832.7618   -469.41118     102002.7      46.7237      46.7237      46.7237 
  377000    90.660994   -7333.4632   -6865.6722   -695.35572     102002.7      46.7237      46.7237      46.7237 
  378000    90.614363   -7330.6156   -6863.0652   -453.29299     102002.7      46.7237      46.7237      46.7237 
  379000    93.169327   -7344.4756   -6863.7421   -874.54652     102002.7      46.7237      46.7237      46.7237 
  380000    92.477056    -7335.014   -6857.8525   -702.47802     102002.7      46.7237      46.7237      46.7237 
  381000    90.412033   -7355.3975   -6888.8911   -651.17848     102002.7      46.7237      46.7237      46.7237 
  382000    91.837638    -7343.544   -6869.6818   -731.04417     102002.7      46.7237      46.7237      46.7237 
  383000    90.802171   -7316.5149   -6847.9955   -563.36958     102002.7      46.7237      46.7237      46.7237 
  384000    92.105923   -7340.2003   -6864.9538   -627.46377     102002.7      46.7237      46.7237      46.7237 
  385000    90.392955   -7333.2739   -6866.8659   -668.00685     102002.7      46.7237      46.7237      46.7237 
  386000    89.567497   -7350.3487   -6888.1999   -696.23008     102002.7      46.7237      46.7237      46.7237 
  387000    91.100715   -7332.2438    -6862.184    -853.3633     102002.7      46.7237      46.7237      46.7237 
  388000    88.356733   -7343.9309   -6888.0294   -835.94104     102002.7      46.7237      46.7237      46.7237 
  389000    89.960876   -7344.1925    -6880.014   -830.70607     102002.7      46.7237      46.7237      46.7237 
  390000    91.496895   -7332.5662   -6860.4622   -691.87631     102002.7      46.7237      46.7237      46.7237 
  391000    96.088952   -7332.6597   -6836.8616   -799.64146     102002.7      46.7237      46.7237      46.7237 
  392000    90.179073   -7333.3503   -6868.0459   -603.45407     102002.7      46.7237      46.7237      46.7237 
  393000    90.883339   -7319.2339   -6850.2957   -702.27856     102002.7      46.7237      46.7237      46.7237 
  394000    90.457258   -7344.5395   -6877.7998   -567.49743     102002.7      46.7237      46.7237      46.7237 
  395000    91.185504   -7332.0646   -6861.5673   -684.82245     102002.7      46.7237      46.7237      46.7237 
  396000    89.379488   -7338.7841   -6877.6054   -873.13603     102002.7      46.7237      46.7237      46.7237 
  397000    91.526121   -7332.7307   -6860.4759   -623.57188     102002.7      46.7237      46.7237      46.7237 
  398000    91.953683   -7321.9082   -6847.4472   -777.88376     102002.7      46.7237      46.7237      46.7237 
  399000    87.341594   -7363.2217   -6912.5581   -387.98487     102002.7      46.7237      46.7237      46.7237 
  400000    91.444313   -7332.8177   -6860.9849   -528.98152     102002.7      46.7237      46.7237      46.7237 
  401000    88.174393   -7336.0526   -6881.0919   -626.39853     102002.7      46.7237      46.7237      46.7237 
  402000    88.567427   -7318.3406   -6861.3519   -623.64039     102002.7      46.7237      46.7237      46.7237 
  403000    87.573458   -7342.2603   -6890.4004   -790.88852     102002.7      46.7237      46.7237      46.7237 
  404000    90.107272   -7320.9259    -6855.992    -719.2522     102002.7      46.7237      46.7237      46.7237 
  405000    90.483199   -7333.4028   -6866.5292   -841.83658     102002.7      46.7237      46.7237      46.7237 
  406000    91.028913   -7311.7435   -6842.0542   -588.24767     102002.7      46.7237      46.7237      46.7237 
  407000    91.156182   -7332.8211    -6862.475   -711.41783     102002.7      46.7237      46.7237      46.7237 
  408000     89.71849   -7338.7651   -6875.8372   -838.66626     102002.7      46.7237      46.7237      46.7237 
  409000    90.437184   -7319.2276   -6852.5914   -711.50362     102002.7      46.7237      46.7237      46.7237 
  410000    90.447194   -7336.8308    -6870.143   -695.44004     102002.7      46.7237      46.7237      46.7237 
  411000      93.5585    -7332.587   -6849.8455   -821.99852     102002.7      46.7237      46.7237      46.7237 
  412000    89.775426   -7337.9865   -6874.7649   -715.90985     102002.7      46.7237      46.7237      46.7237 
  413000    89.638062   -7326.5021   -6863.9892    -469.7699     102002.7      46.7237      46.7237      46.7237 
  414000    91.283306   -7333.8516   -6862.8497   -767.98923     102002.7      46.7237      46.7237      46.7237 
  415000    87.815203   -7331.4594    -6878.352   -677.60338     102002.7      46.7237      46.7237      46.7237 
  416000    87.747043   -7314.7459   -6861.9903   -675.78726     102002.7      46.7237      46.7237      46.7237 
  417000    90.780986   -7344.3607   -6875.9506   -890.95292     102002.7      46.7237      46.7237      46.7237 
  418000    90.801292   -7321.9935   -6853.4786   -617.33131     102002.7      46.7237      46.7237      46.7237 
  419000    87.069005   -7336.2957   -6887.0386   -862.23841     102002.7      46.7237      46.7237      46.7237 
  420000    88.960681   -7333.2704   -6874.2527   -812.22542     102002.7      46.7237      46.7237      46.7237 
  421000    90.887499   -7314.6036   -6845.6439   -634.43134     102002.7      46.7237      46.7237      46.7237 
  422000    90.086437   -7342.9584    -6878.132   -763.63813     102002.7      46.7237      46.7237      46.7237 
  423000    94.246244   -7323.6755   -6837.3854   -482.24568     102002.7      46.7237      46.7237      46.7237 
  424000    91.382512   -7339.8707   -6868.3568    -590.6827     102002.7      46.7237      46.7237      46.7237 
  425000    87.136077   -7333.9888   -6884.3857   -694.03214     102002.7      46.7237      46.7237      46.7237 
  426000    91.419076   -7328.1382   -6856.4357   -837.42475     102002.7      46.7237      46.7237      46.7237 
  427000    93.189798    -7330.829     -6849.99   -479.06673     102002.7      46.7237      46.7237      46.7237 
  428000    91.792232   -7344.0893   -6870.4614   -807.72173     102002.7      46.7237      46.7237      46.7237 
  429000    90.761915   -7348.5109   -6880.1992   -753.33907     102002.7      46.7237      46.7237      46.7237 
  430000    88.407114   -7344.7286   -6888.5672   -674.50339     102002.7      46.7237      46.7237      46.7237 
  431000    89.987505   -7341.2075   -6876.8916   -851.56307     102002.7      46.7237      46.7237      46.7237 
  432000    93.160043   -7314.2059   -6833.5203   -721.97344     102002.7      46.7237      46.7237      46.7237 
  433000    90.380971   -7333.2764   -6866.9303   -749.26069     102002.7      46.7237      46.7237      46.7237 
  434000    90.626665   -7345.4385   -6877.8246   -585.50133     102002.7      46.7237      46.7237      46.7237 
  435000    88.408811   -7315.4921   -6859.3219    -608.6238     102002.7      46.7237      46.7237      46.7237 
  436000    90.839607   -7331.9473   -6863.2347   -904.54054     102002.7      46.7237      46.7237      46.7237 
  437000    91.188738   -7336.6732   -6866.1592   -748.88062     102002.7      46.7237      46.7237      46.7237 
  438000    94.218475    -7347.431   -6861.2842    -1094.525     102002.7      46.7237      46.7237      46.7237 
  439000    91.170228   -7328.9407   -6858.5221   -727.98752     102002.7      46.7237      46.7237      46.7237 
  440000    89.733164   -7339.2687   -6876.2651   -857.31513     102002.7      46.7237      46.7237      46.7237 
  441000    90.026138   -7322.6543   -6858.1391   -841.68487     102002.7      46.7237      46.7237      46.7237 
  442000     90.47498   -7332.2143   -6865.3831   -747.38169     102002.7      46.7237      46.7237      46.7237 
  443000     89.92581   -7334.0081   -6870.0105   -961.05782     102002.7      46.7237      46.7237      46.7237 
  444000    91.344793   -7325.7309   -6854.4117   -712.99195     102002.7      46.7237      46.7237      46.7237 
  445000    90.499623   -7338.8046   -6871.8463   -807.58208     102002.7      46.7237      46.7237      46.7237 
  446000    87.251339   -7324.6194   -6874.4215   -888.28371     102002.7      46.7237      46.7237      46.7237 
  447000    93.916147   -7339.4376   -6854.8507   -867.64452     102002.7      46.7237      46.7237      46.7237 
  448000    88.471901   -7344.9911   -6888.4953   -740.79569     102002.7      46.7237      46.7237      46.7237 
  449000    92.770658   -7341.4557   -6862.7793   -493.28085     102002.7      46.7237      46.7237      46.7237 
  450000    87.895493   -7330.8069   -6877.2853   -558.67772     102002.7      46.7237      46.7237      46.7237 
  451000    91.910332   -7335.0523    -6860.815   -803.67698     102002.7      46.7237      46.7237      46.7237 
  452000    90.339411   -7331.9827    -6865.851   -716.83454     102002.7      46.7237      46.7237      46.7237 
  453000    91.754585   -7326.5568   -6853.1231   -742.59472     102002.7      46.7237      46.7237      46.7237 
  454000    88.871703   -7337.0582   -6878.4996   -719.12989     102002.7      46.7237      46.7237      46.7237 
  455000    92.589741   -7339.5644   -6861.8215   -459.56859     102002.7      46.7237      46.7237      46.7237 
  456000    88.769839   -7336.4407   -6878.4077    -615.7017     102002.7      46.7237      46.7237      46.7237 
  457000    89.200536   -7321.5766   -6861.3213   -436.90318     102002.7      46.7237      46.7237      46.7237 
  458000    93.264291   -7347.5342   -6866.3108   -673.04606     102002.7      46.7237      46.7237      46.7237 
  459000    90.018079   -7341.3035   -6876.8299   -959.00539     102002.7      46.7237      46.7237      46.7237 
  460000    92.014595   -7334.4198   -6859.6446   -697.68865     102002.7      46.7237      46.7237      46.7237 
  461000    91.332232   -7320.9325   -6849.6781   -825.93157     102002.7      46.7237      46.7237      46.7237 
  462000    92.822843   -7348.7505   -6869.8048   -712.62251     102002.7      46.7237      46.7237      46.7237 
  463000    92.493047   -7319.7303   -6842.4863   -563.69578     102002.7      46.7237      46.7237      46.7237 
  464000    91.442369   -7342.2853   -6870.4625   -770.73346     102002.7      46.7237      46.7237      46.7237 
  465000     89.54245   -7344.4255    -6882.406   -657.32644     102002.7      46.7237      46.7237      46.7237 
  466000    94.289293   -7341.5539   -6855.0417   -569.95091     102002.7      46.7237      46.7237      46.7237 
  467000    92.468761   -7340.0542   -6862.9355   -785.93922     102002.7      46.7237      46.7237      46.7237 
  468000    90.838888   -7325.8228   -6857.1139   -642.20104     102002.7      46.7237      46.7237      46.7237 
  469000    93.258618   -7333.6967   -6852.5026   -609.93801     102002.7      46.7237      46.7237      46.7237 
  470000    93.796782   -7340.0262   -6856.0553   -629.46784     102002.7      46.7237      46.7237      46.7237 
  471000    89.932002   -7335.9602   -6871.9307   -528.34689     102002.7      46.7237      46.7237      46.7237 
  472000    90.830829   -7328.8246   -6860.1573   -763.21442     102002.7      46.7237      46.7237      46.7237 
  473000    91.586107   -7323.8513   -6851.2869   -640.20635     102002.7      46.7237      46.7237      46.7237 
  474000    88.066155    -7331.573   -6877.1708   -747.93519     102002.7      46.7237      46.7237      46.7237 
  475000    89.129724   -7303.7035   -6843.8135   -602.63474     102002.7      46.7237      46.7237      46.7237 
  476000    90.918762   -7342.8632   -6873.7422   -713.83129     102002.7      46.7237      46.7237      46.7237 
  477000    89.391436   -7334.5692   -6873.3289    -589.7364     102002.7      46.7237      46.7237      46.7237 
  478000     93.90104   -7344.7198   -6860.2109   -742.56813     102002.7      46.7237      46.7237      46.7237 
  479000    86.875338   -7317.1983   -6868.9404   -740.58955     102002.7      46.7237      46.7237      46.7237 
  480000    93.310533   -7320.8802   -6839.4182   -974.84836     102002.7      46.7237      46.7237      46.7237 
  481000    91.573566   -7328.9821   -6856.4824   -780.60137     102002.7      46.7237      46.7237      46.7237 
  482000    91.386375   -7320.7259   -6849.1921   -722.71581     102002.7      46.7237      46.7237      46.7237 
  483000    92.484953   -7331.1607   -6853.9585   -862.56325     102002.7      46.7237      46.7237      46.7237 
  484000    90.574789     -7335.68   -6868.3338   -828.90407     102002.7      46.7237      46.7237      46.7237 
  485000    92.419496   -7354.7246   -6877.8601   -526.77219     102002.7      46.7237      46.7237      46.7237 
  486000    91.452584   -7332.6118   -6860.7364   -1090.6372     102002.7      46.7237      46.7237      46.7237 
  487000    93.580532   -7332.6261   -6849.7709   -677.42562     102002.7      46.7237      46.7237      46.7237 
  488000    87.735933   -7331.4579   -6878.7596   -890.51453     102002.7      46.7237      46.7237      46.7237 
  489000    90.905413    -7327.031   -6857.9789   -833.87867     102002.7      46.7237      46.7237      46.7237 
  490000    90.260875   -7326.0497   -6860.3233   -770.93919     102002.7      46.7237      46.7237      46.7237 
  491000    91.161136   -7330.2392   -6859.8675   -1033.3185     102002.7      46.7237      46.7237      46.7237 
  492000    88.236741   -7325.7989   -6870.5166   -665.32174     102002.7      46.7237      46.7237      46.7237 
  493000    91.676422   -7339.8892   -6866.8588   -843.94001     102002.7      46.7237      46.7237      46.7237 
  494000     90.12645   -7340.1659    -6875.133   -862.31385     102002.7      46.7237      46.7237      46.7237 
  495000     90.32031   -7314.0678   -6848.0347   -744.21974     102002.7      46.7237      46.7237      46.7237 
  496000    89.461026   -7328.2225    -6866.623   -991.75355     102002.7      46.7237      46.7237      46.7237 
  497000    88.414413   -7323.5551    -6867.356   -839.34295     102002.7      46.7237      46.7237      46.7237 
  498000    91.909165    -7337.548   -6863.3167   -709.85598     102002.7      46.7237      46.7237      46.7237 
  499000    90.039501   -7341.7157   -6877.1315   -853.54288     102002.7      46.7237      46.7237      46.7237 
  500000    94.108409   -7331.3235   -6845.7446   -579.56413     102002.7      46.7237      46.7237      46.7237 
  500504    90.515711   -7320.6962   -6853.6548   -539.15586     102002.7      46.7237      46.7237      46.7237 
Loop time of 1273.58 on 16 procs for 500000 steps with 1732 atoms

Performance: 33.920 ns/day, 0.708 hours/ns, 392.596 timesteps/s
99.8% CPU use with 16 MPI tasks x no OpenMP threads

MPI task timing breakdown:
Section |  min time  |  avg time  |  max time  |%varavg| %total
---------------------------------------------------------------
Pair    | 511.99     | 683.19     | 863.54     | 451.7 | 53.64
Bond    | 167.57     | 173.96     | 180.75     |  33.3 | 13.66
Neigh   | 2.7296     | 2.7449     | 2.7574     |   0.5 |  0.22
Comm    | 216.98     | 400.2      | 577.75     | 593.1 | 31.42
Output  | 0.020715   | 0.02103    | 0.023666   |   0.5 |  0.00
Modify  | 7.4161     | 7.9194     | 8.2367     |   9.2 |  0.62
Other   |            | 5.549      |            |       |  0.44

Nlocal:    108.25 ave 136 max 85 min
Histogram: 2 2 2 1 2 4 0 0 1 2
Nghost:    2196.75 ave 2220 max 2171 min
Histogram: 2 1 0 4 1 0 2 2 3 1
Neighs:    11445.9 ave 15794 max 6421 min
Histogram: 3 1 1 0 0 3 3 1 2 2

Total # of neighbors = 183134
Ave neighs/atom = 105.736
Ave special neighs/atom = 6.65127
Neighbor list builds = 2421
Dangerous builds = 0
Neighbor list info ...
  update every 1 steps, delay 10 steps, check yes
  max neighbors/atom: 2000, page size: 100000
  master list distance cutoff = 16
  ghost atom cutoff = 16
  binsize = 8, bins = 6 6 6
  3 neighbor lists, perpetual/occasional/extra = 3 0 0
  (1) pair buck6d/coul/gauss/dsf, perpetual, skip from (3)
      attributes: half, newton on
      pair build: skip
      stencil: none
      bin: none
  (2) pair lj/cut, perpetual, skip from (3)
      attributes: half, newton on
      pair build: skip
      stencil: none
      bin: none
  (3) neighbor class addition, perpetual
      attributes: half, newton on
      pair build: half/bin/newton
      stencil: half/bin/3d/newton
      bin: standard
Setting up Verlet run ...
  Unit style    : real
  Current step  : 500504
  Time step     : 1
WARNING: Inconsistent image flags (../domain.cpp:786)
Per MPI rank memory allocation (min/avg/max) = 23.03 | 23.28 | 23.33 Mbytes
Step Time TotEng KinEng PotEng E_mol E_pair Temp Pxx Pyy Pzz Pxy Pxz Pyz Cella Cellb Cellc CellAlpha CellBeta CellGamma Volume Press 
  500504       500000   -6853.6548    467.04136   -7320.6962    4219.7125   -11540.409    90.515711   -407.08373   -507.11114    -703.2727   -51.995599    10.555148   -248.17093      46.7237      46.7237      46.7237           90           90           90     102002.7   -539.15586 
  501000       500496   -6872.0597     464.8753    -7336.935    4221.6869   -11558.622    90.095916   -92.100239   -556.21237   -442.16561   -196.85822    271.06042    60.668238      46.7237      46.7237      46.7237           90           90           90     102002.7   -363.49274 
  502000       501496   -6865.6751    470.53738   -7336.2125    4219.8003   -11556.013    91.193263   -738.41866   -972.54591   -483.40458   -18.641788    72.989732   -48.569489      46.7237      46.7237      46.7237           90           90           90     102002.7   -731.45638 
  503000       502496   -6845.8742    474.85341   -7320.7276    4236.7151   -11557.443    92.029739   -718.62627   -467.29417   -466.91026   -85.017431    63.252165   -10.509553      46.7237      46.7237      46.7237           90           90           90     102002.7   -550.94357 
  504000       503496   -6867.4075    467.55877   -7334.9663    4222.4534    -11557.42    90.615989   -753.59545   -1101.3136   -664.87109    94.135458     183.3543    102.73249      46.7237      46.7237      46.7237           90           90           90     102002.7    -839.9267 
  505000       504496   -6865.6875    468.41988   -7334.1074    4223.5323    -11557.64    90.782878   -826.95855   -951.15611   -937.87244    139.68869     21.97484   -55.868866      46.7237      46.7237      46.7237           90           90           90     102002.7   -905.32903 
  506000       505496   -6857.4827    470.41873   -7327.9014    4225.5632   -11553.465    91.170269   -435.39716   -806.30512   -514.37454   -30.130707    96.317266   -205.28897      46.7237      46.7237      46.7237           90           90           90     102002.7   -585.35894 
  507000       506496   -6881.8145    466.16535   -7347.9799    4215.2316   -11563.211    90.345936   -870.84664    -1044.133    -1040.945    92.137833   -229.67075    315.41902      46.7237      46.7237      46.7237           90           90           90     102002.7   -985.30822 
  508000       507496   -6856.0774    473.35035   -7329.4277    4208.0629   -11537.491    91.738437    -408.9987   -627.81949   -474.32226   -33.390935    120.53478   -51.311823      46.7237      46.7237      46.7237           90           90           90     102002.7   -503.71348 
  509000       508496   -6875.7847    464.28437    -7340.069    4217.1754   -11557.244     89.98139   -857.36431   -310.07273   -1190.0691   -185.13226   -89.116415   -138.17509      46.7237      46.7237      46.7237           90           90           90     102002.7   -785.83538 
  510000       509496    -6866.336    475.10804   -7341.4441    4197.7688   -11539.213    92.079088    -523.1106   -745.91433   -760.71289   -55.760306    17.754958    33.806704      46.7237      46.7237      46.7237           90           90           90     102002.7   -676.57927 
  511000       510496    -6864.331    478.70663   -7343.0377    4208.1508   -11551.188    92.776519   -844.14483   -907.81514   -528.99541     43.59832    49.859968   -18.293534      46.7237      46.7237      46.7237           90           90           90     102002.7   -760.31846 
  512000       511496   -6851.6286     477.3614     -7328.99    4220.8111   -11549.801    92.515803   -1022.0986   -480.45828   -1116.2337     137.8392    117.63277     -13.2255      46.7237      46.7237      46.7237           90           90           90     102002.7   -872.93017 
  513000       512496   -6888.5992    473.90772   -7362.5069    4195.0161   -11557.523    91.846458   -585.30177   -856.89823   -640.38958    133.49855   -79.341029    51.439486      46.7237      46.7237      46.7237           90           90           90     102002.7   -694.19653 
  514000       513496   -6868.8368    472.19443   -7341.0313    4222.3323   -11563.364    91.514411   -801.30192   -1024.8182   -652.94478   -127.72111    76.702643    13.455772      46.7237      46.7237      46.7237           90           90           90     102002.7   -826.35495 
  515000       514496   -6849.6773    463.53753   -7313.2149    4220.7317   -11533.947    89.836647   -849.15391   -583.50402   -759.80207    95.211292   -239.92846    54.664309      46.7237      46.7237      46.7237           90           90           90     102002.7      -730.82 
  516000       515496   -6848.8014    489.26498   -7338.0664    4216.9807   -11555.047    94.822796   -864.67662   -872.61795   -601.46487    40.420524   -94.573235      23.6864      46.7237      46.7237      46.7237           90           90           90     102002.7   -779.58648 
  517000       516496   -6880.6315    462.24368   -7342.8752    4220.0088   -11562.884     89.58589   -765.11644   -486.59009   -657.06954    31.962662   -33.946617    184.51757      46.7237      46.7237      46.7237           90           90           90     102002.7   -636.25869 
  518000       517496   -6853.3726    463.08768   -7316.4603    4226.2535   -11542.714    89.749464   -621.76701   -963.07764   -81.233546    212.85939   -68.710125    13.486577      46.7237      46.7237      46.7237           90           90           90     102002.7    -555.3594 
  519000       518496   -6850.6612    465.88471   -7316.5459    4254.4272   -11570.973    90.291546   -599.05345   -594.57643   -1127.0112    92.294685    18.853027   -81.236753      46.7237      46.7237      46.7237           90           90           90     102002.7   -773.54704 
  520000       519496   -6870.2331    469.26008   -7339.4932    4203.4438   -11542.937    90.945714    -704.1182   -567.71839   -790.16419       216.31    213.11909    186.15025      46.7237      46.7237      46.7237           90           90           90     102002.7   -687.33359 
  521000       520496   -6851.7899     483.3934   -7335.1833    4211.5477   -11546.731    93.684846   -706.23409   -709.20663   -762.09351    69.736573   -93.632539   -197.05111      46.7237      46.7237      46.7237           90           90           90     102002.7   -725.84474 
  522000       521496   -6837.7218    472.08496   -7309.8067    4256.4746   -11566.281    91.493195   -573.70763   -451.00712   -1050.2322    157.00577    71.429897   -18.335039      46.7237      46.7237      46.7237           90           90           90     102002.7   -691.64897 
  523000       522496   -6857.2325    473.26135   -7330.4939    4204.8445   -11535.338    91.721187   -917.98639   -868.36459   -641.68186   -125.27333    67.346259    12.279214      46.7237      46.7237      46.7237           90           90           90     102002.7   -809.34428 
  524000       523496   -6841.4712    480.25998   -7321.7312    4238.4312   -11560.162    93.077568   -815.83487   -371.25223   -743.64106    138.33581   -76.082046    49.124394      46.7237      46.7237      46.7237           90           90           90     102002.7   -643.57606 
  525000       524496   -6869.3228    460.37269   -7329.6955    4211.0959   -11540.791     89.22328   -609.01763    -929.6333   -675.48809    150.78879    123.55339    128.77214      46.7237      46.7237      46.7237           90           90           90     102002.7   -738.04634 
  526000       525496   -6887.4451    450.42136   -7337.8665    4204.4537    -11542.32    87.294646   -765.72009   -748.51006    -690.4711    105.12394    136.17541    151.30308      46.7237      46.7237      46.7237           90           90           90     102002.7   -734.90041 
  527000       526496   -6868.8006    456.98442   -7325.7851    4223.9991   -11549.784     88.56661   -941.46035    -668.8131   -663.42238  -0.55575928    66.689383    71.591458      46.7237      46.7237      46.7237           90           90           90     102002.7   -757.89861 
  528000       527496   -6843.7467    467.40909   -7311.1558    4242.9345    -11554.09     90.58698   -659.93839   -1187.3273   -441.06571    275.49906    80.257914   -135.31336      46.7237      46.7237      46.7237           90           90           90     102002.7   -762.77715 
  529000       528496   -6867.8019    471.44183   -7339.2437    4228.6751   -11567.919    91.368552   -595.28692   -641.34662   -677.48789   -30.008864   -153.73037    35.040929      46.7237      46.7237      46.7237           90           90           90     102002.7   -638.04048 
  530000       529496   -6847.9102    475.56367   -7323.4739    4224.5941   -11548.068    92.167393   -837.45809   -970.47894   -1022.6755    173.59803   -130.89793   -69.625324      46.7237      46.7237      46.7237           90           90           90     102002.7    -943.5375 
  531000       530496   -6870.1542    468.94116   -7339.0954     4213.981   -11553.076    90.883905   -824.73925    -939.8946   -606.46996    159.19247    3.6259267   -92.655033      46.7237      46.7237      46.7237           90           90           90     102002.7   -790.36793 
  532000       531496   -6863.3022    468.33614   -7331.6383    4218.6903   -11550.329    90.766649   -458.08696   -776.00258   -923.66089   -262.17764    83.863261    19.917012      46.7237      46.7237      46.7237           90           90           90     102002.7   -719.25014 
  533000       532496    -6890.264    456.08375   -7346.3477    4211.3717   -11557.719    88.392054   -792.78443   -621.80579   -508.50962   -69.759377    50.848328   -162.66973      46.7237      46.7237      46.7237           90           90           90     102002.7   -641.03328 
  534000       533496    -6857.564    477.59936   -7335.1633    4210.4324   -11545.596    92.561923   -744.18548   -746.41792   -528.45531   -61.308579    172.58005   -44.870122      46.7237      46.7237      46.7237           90           90           90     102002.7   -673.01957 
  535000       534496   -6868.1317    461.52547   -7329.6572    4224.0335   -11553.691    89.446697   -782.03872   -588.57391   -918.82486    97.219209    207.79609   -20.915528      46.7237      46.7237      46.7237           90           90           90     102002.7   -763.14583 
  536000       535496   -6856.3109    472.83687   -7329.1478    4227.5104   -11556.658     91.63892   -1040.0754   -587.23042   -1026.4287    84.176235     169.2107   -92.787836      46.7237      46.7237      46.7237           90           90           90     102002.7   -884.57814 
  537000       536496   -6872.2155    477.38174   -7349.5972    4206.5013   -11556.099    92.519747   -1005.8587   -814.52941   -674.79014   -76.503684    13.188746   -49.307918      46.7237      46.7237      46.7237           90           90           90     102002.7   -831.72608 
  538000       537496   -6867.6956     473.0384    -7340.734    4220.2214   -11560.955    91.677979   -466.34837   -510.61576   -459.55461    95.426504     -14.6932    40.521299      46.7237      46.7237      46.7237           90           90           90     102002.7   -478.83958 
  539000       538496   -6866.4204    473.60796   -7340.0283    4221.8996   -11561.928    91.788364   -1048.4897   -940.06041   -1222.0657   -18.743919    102.43016   -75.160853      46.7237      46.7237      46.7237           90           90           90     102002.7   -1070.2053 
  540000       539496   -6863.9823    476.10699   -7340.0893    4220.9767   -11561.066    92.272692    -928.6801   -1057.3737   -432.19727    115.34493   -99.606598    72.730779      46.7237      46.7237      46.7237           90           90           90     102002.7   -806.08368 
  541000       540496   -6854.0682    475.21946   -7329.2877    4205.0351   -11534.323    92.100682   -730.14077   -957.04468   -310.27247    138.70356   -24.794641    102.56429      46.7237      46.7237      46.7237           90           90           90     102002.7    -665.8193 
  542000       541496   -6872.3066    456.74927   -7329.0559    4220.7432   -11549.799    88.521036   -714.48996   -400.96257   -538.90543   -68.381613   -61.293115   -89.962173      46.7237      46.7237      46.7237           90           90           90     102002.7   -551.45265 
  543000       542496   -6854.0379    472.26816   -7326.3061    4226.8705   -11553.177    91.528701   -621.86639   -920.45177   -478.32047  -0.27267836    226.25424    154.33029      46.7237      46.7237      46.7237           90           90           90     102002.7   -673.54621 
  544000       543496   -6861.6718    481.62374   -7343.2956    4204.0238   -11547.319    93.341873   -1031.6647   -964.85799   -272.14721    9.2562966   -24.182358   -53.056833      46.7237      46.7237      46.7237           90           90           90     102002.7   -756.22329 
  545000       544496   -6887.7031    449.85903   -7337.5621    4214.2619   -11551.824    87.185662   -475.42764   -670.72137   -493.96816   -5.1857863    16.546038    126.35406      46.7237      46.7237      46.7237           90           90           90     102002.7   -546.70572 
  546000       545496   -6862.1556     478.5666   -7340.7222    4201.5982    -11542.32     92.74938    -849.4736   -711.94365   -551.95361   -139.78474    11.487867   -113.91827      46.7237      46.7237      46.7237           90           90           90     102002.7   -704.45695 
  547000       546496   -6832.3136    485.43943    -7317.753    4229.2442   -11546.997    94.081381   -851.60105   -783.92139   -437.13056   -97.112271    -39.28681    -202.8681      46.7237      46.7237      46.7237           90           90           90     102002.7   -690.88434 
  548000       547496   -6872.4876    468.23159   -7340.7192    4220.6537   -11561.373    90.746387   -686.49576   -918.20575   -596.52684    231.92759    67.666913    9.7468702      46.7237      46.7237      46.7237           90           90           90     102002.7   -733.74278 
  549000       548496   -6890.7922     461.0144   -7351.8066    4206.6833    -11558.49    89.347647   -672.10917   -622.00279   -841.61504    86.564913   -32.516935   -238.70296      46.7237      46.7237      46.7237           90           90           90     102002.7     -711.909 
  550000       549496   -6857.5906    476.49607   -7334.0866    4212.9125   -11546.999    92.348097   -705.30256   -509.44971   -718.39489    141.83357   -94.543386   -15.346003      46.7237      46.7237      46.7237           90           90           90     102002.7   -644.38239 
  551000       550496   -6847.7658    488.40886   -7336.1747    4220.3216   -11556.496    94.656876   -632.61662   -301.68872   -486.60031    185.71798    70.985498   -166.10474      46.7237      46.7237      46.7237           90           90           90     102002.7   -473.63521 
  552000       551496      -6871.5    470.34029   -7341.8403    4216.7839   -11558.624    91.155067   -576.81813   -892.04843   -522.09669    98.321805   -44.069842     183.5563      46.7237      46.7237      46.7237           90           90           90     102002.7   -663.65441 
  553000       552496   -6878.1349    463.08928   -7341.2242    4202.7035   -11543.928    89.749774   -141.95043   -708.10038   -814.93029    99.613809   -13.456497   -21.178479      46.7237      46.7237      46.7237           90           90           90     102002.7    -554.9937 
  554000       553496   -6876.6816    464.82754   -7341.5092    4204.4963   -11546.005     90.08666   -563.64638   -780.48801   -599.99405   -100.74843   -92.881957   -26.915259      46.7237      46.7237      46.7237           90           90           90     102002.7   -648.04281 
  555000       554496   -6855.3643    476.33496   -7331.6992    4239.3179   -11571.017    92.316873   -535.47499   -919.11982   -432.16958    74.486034   -330.20171    28.256873      46.7237      46.7237      46.7237           90           90           90     102002.7   -628.92146 
[...]
  936000       935496   -6864.2099    481.21505    -7345.425    4203.1788   -11548.604    93.262668   -708.79794   -583.62196   -398.91462    20.296834   -122.20249   -117.43342      46.7237      46.7237      46.7237           90           90           90     102002.7   -563.77817 
  937000       936496    -6872.426    467.84269   -7340.2687    4214.0991   -11554.368    90.671016   -872.90799   -572.47475   -222.38901   -49.186395    36.394953   -7.3027411      46.7237      46.7237      46.7237           90           90           90     102002.7   -555.92392 
  938000       937496   -6846.2858    486.83316    -7333.119    4215.6488   -11548.768    94.351495   -984.90687   -473.22973   -662.75212   -8.2707705   -5.0832724   -108.39736      46.7237      46.7237      46.7237           90           90           90     102002.7    -706.9629 
  939000       938496   -6868.2875    482.01692   -7350.3044    4194.6533   -11544.958    93.418075   -696.02375    -886.3877   -944.07359    269.13435   -87.756787    96.924465      46.7237      46.7237      46.7237           90           90           90     102002.7   -842.16168 
  940000       939496   -6850.1404    480.42307   -7330.5635    4222.6644   -11553.228    93.109176   -861.76402    -683.1752   -1034.6438    72.954218  -0.12019115   -52.541629      46.7237      46.7237      46.7237           90           90           90     102002.7     -859.861 
  941000       940496   -6862.7496    478.70238   -7341.4519    4210.8068   -11552.259    92.775695    -846.4719   -1087.3932   -1162.6882   -187.44284    139.88091   -40.151352      46.7237      46.7237      46.7237           90           90           90     102002.7   -1032.1844 
  942000       941496   -6871.5326     461.5154   -7333.0481     4220.312    -11553.36    89.444745   -438.77844   -726.91556   -753.80521    143.55053   -3.6451065    168.09415      46.7237      46.7237      46.7237           90           90           90     102002.7   -639.83307 
  943000       942496   -6855.1455      478.533   -7333.6785    4223.6296   -11557.308    92.742868   -817.92619   -713.01779   -780.13151    73.897864    45.564668    -150.9772      46.7237      46.7237      46.7237           90           90           90     102002.7    -770.3585 
  944000       943496   -6847.6097    478.86859   -7326.4783    4223.0639   -11549.542    92.807908   -824.98054   -1097.2396   -789.17064   -83.172962     130.5885   -286.31334      46.7237      46.7237      46.7237           90           90           90     102002.7   -903.79694 
  945000       944496   -6861.6411     469.9348   -7331.5759    4216.6523   -11548.228     91.07648   -551.47008   -751.80549   -819.20012   -170.93606   -121.25791    42.081261      46.7237      46.7237      46.7237           90           90           90     102002.7    -707.4919 
  946000       945496   -6853.6929    479.41674   -7333.1097    4210.0543   -11543.164    92.914143   -664.00312   -801.08477   -741.25143   -130.16822   -42.312362    169.33613      46.7237      46.7237      46.7237           90           90           90     102002.7   -735.44644 
  947000       946496   -6876.1028    455.06353   -7331.1663    4213.0636    -11544.23    88.194329   -717.70793     -323.534   -732.53113   -51.327075    61.999495   -217.94968      46.7237      46.7237      46.7237           90           90           90     102002.7   -591.25769 
  948000       947496   -6859.5418    473.86701   -7333.4088    4223.9479   -11557.357    91.838569   -538.67336   -564.94867   -1060.4865   -134.44261     36.36706   -85.659359      46.7237      46.7237      46.7237           90           90           90     102002.7   -721.36953 
  949000       948496   -6886.9497     457.4972   -7344.4469    4199.9919   -11544.439    88.665991   -193.30979   -566.00616    -836.2531    8.9621901    54.285643    82.967369      46.7237      46.7237      46.7237           90           90           90     102002.7   -531.85635 
  950000       949496   -6877.8722    467.85043   -7345.7227    4203.9502   -11549.673    90.672516   -47.942917   -803.80068   -707.37277    111.09951    231.23435   -169.56455      46.7237      46.7237      46.7237           90           90           90     102002.7   -519.70545 
  951000       950496   -6851.8469    480.83005    -7332.677    4212.3999   -11545.077    93.188051   -810.14191   -578.72718   -712.22539   -86.573755    25.068424    98.799953      46.7237      46.7237      46.7237           90           90           90     102002.7   -700.36483 
  952000       951496   -6878.9577    466.60816   -7345.5659    4215.1694   -11560.735    90.431756   -401.39565   -205.91648   -938.21726    213.11703    -33.93243   -117.90381      46.7237      46.7237      46.7237           90           90           90     102002.7   -515.17647 
  953000       952496   -6852.0653    474.60415   -7326.6694    4224.4809    -11551.15    91.981432    -524.1912     -458.438   -439.00738   -118.44621    45.197346   -94.900854      46.7237      46.7237      46.7237           90           90           90     102002.7   -473.87886 
  954000       953496   -6851.7942    470.75644   -7322.5507    4230.1662   -11552.717    91.235718   -1262.6501    -677.0707   -733.44593    146.71594   -225.89824    14.176093      46.7237      46.7237      46.7237           90           90           90     102002.7   -891.05556 
  955000       954496   -6878.2109    464.71784   -7342.9287      4206.96   -11549.889    90.065398   -859.53555   -838.95747   -551.20859   -87.579558   -46.397404   -16.909599      46.7237      46.7237      46.7237           90           90           90     102002.7   -749.90054 
  956000       955496   -6879.9567    459.49872   -7339.4554    4225.9888   -11565.444    89.053898   -450.68555   -600.33956   -467.60256    181.17873   -23.012412   -98.896571      46.7237      46.7237      46.7237           90           90           90     102002.7   -506.20922 
  957000       956496   -6864.1583    469.68542   -7333.8437    4222.0588   -11555.903    91.028148   -448.36686   -1035.4774   -1015.7707    6.1390709   -196.01444   -125.75235      46.7237      46.7237      46.7237           90           90           90     102002.7   -833.20501 
  958000       957496   -6872.4671    459.66949   -7332.1366    4216.1444   -11548.281    89.086994   -512.60867   -478.70609   -852.00712   -200.26805    182.25878    77.684253      46.7237      46.7237      46.7237           90           90           90     102002.7   -614.44063 
  959000       958496   -6863.6637    476.81963   -7340.4834    4203.5339   -11544.017    92.410806   -568.47381   -789.77831   -91.786952    257.72288   -188.87792   -54.530742      46.7237      46.7237      46.7237           90           90           90     102002.7   -483.34636 
  960000       959496   -6888.0706    459.62125   -7347.6918    4195.3274   -11543.019    89.077647   -545.97289   -532.53088   -758.84627    69.577236   -190.32074   -151.14361      46.7237      46.7237      46.7237           90           90           90     102002.7   -612.45002 
  961000       960496   -6875.1071    471.92979   -7347.0369    4196.7209   -11543.758    91.463122   -807.51137   -432.33266    -863.8271    157.70015   -35.417384    101.02386      46.7237      46.7237      46.7237           90           90           90     102002.7   -701.22371 
  962000       961496   -6859.9756     461.8788   -7321.8544    4226.4767   -11548.331    89.515174   -529.61939   -820.52931   -338.60489   -28.432943    69.559305   -18.403844      46.7237      46.7237      46.7237           90           90           90     102002.7   -562.91786 
  963000       962496   -6874.8702    454.89879   -7329.7689    4218.7869   -11548.556    88.162402   -840.47189   -392.98159   -479.70356    16.034504    146.43708    26.707622      46.7237      46.7237      46.7237           90           90           90     102002.7   -571.05235 
  964000       963496   -6858.6893    468.03296   -7326.7222    4220.2521   -11546.974     90.70789    -274.5891   -135.01913   -570.25089    271.33955    -80.62652    93.968842      46.7237      46.7237      46.7237           90           90           90     102002.7    -326.6197 
  965000       964496   -6883.6017    463.77764   -7347.3793    4204.0844   -11551.464    89.883182   -730.54588   -657.65464   -529.90459    -140.4863    44.098047   -97.458316      46.7237      46.7237      46.7237           90           90           90     102002.7   -639.36837 
  966000       965496   -6864.9023    479.30701   -7344.2093    4213.0192   -11557.229    92.892876    -407.0878   -310.54921   -320.07672   -25.260117    30.755254   -201.76106      46.7237      46.7237      46.7237           90           90           90     102002.7   -345.90458 
  967000       966496   -6863.8813    461.66167    -7325.543    4233.6741   -11559.217    89.473092   -328.16659   -649.17838   -414.79089   -25.667707   -286.84486    188.14129      46.7237      46.7237      46.7237           90           90           90     102002.7   -464.04528 
  968000       967496   -6884.4861    446.62702   -7331.1131    4217.7687   -11548.882    86.559277   -631.43838    -641.7763   -596.80914    63.902817     48.68396   -10.666884      46.7237      46.7237      46.7237           90           90           90     102002.7   -623.34127 
  969000       968496   -6852.4406    469.15535   -7321.5959     4234.897   -11556.493    90.925417   -928.42633   -221.13229   -134.43267    73.561205    255.45604    193.18827      46.7237      46.7237      46.7237           90           90           90     102002.7    -427.9971 
  970000       969496   -6862.5686     464.2525   -7326.8211    4222.5919   -11549.413    89.975213   -561.19876   -35.299598   -797.65914    36.175431    91.296901    15.908496      46.7237      46.7237      46.7237           90           90           90     102002.7   -464.71916 
  971000       970496   -6864.2117    464.76164   -7328.9734     4220.277    -11549.25    90.073888   -742.11537   -493.76478   -531.18668   -34.502115    122.68762    25.353874      46.7237      46.7237      46.7237           90           90           90     102002.7   -589.02227 
  972000       971496   -6874.4604    468.63983   -7343.1003    4207.6562   -11550.756    90.825506   -497.01439   -909.55496   -220.26722   -76.976304    16.787377   -107.64902      46.7237      46.7237      46.7237           90           90           90     102002.7   -542.27885 
  973000       972496   -6839.3182     484.3505   -7323.6687    4221.1336   -11544.802    93.870339    -265.2665   -742.51302   -393.63694   -84.199838    176.19636   -42.271398      46.7237      46.7237      46.7237           90           90           90     102002.7   -467.13882 
  974000       973496   -6862.9271    467.18204   -7330.1092    4214.8021   -11544.911    90.542977    -385.1725   -891.55056   -647.41229   -71.272945   -58.432619    64.236651      46.7237      46.7237      46.7237           90           90           90     102002.7   -641.37845 
  975000       974496   -6869.0672    462.40318   -7331.4703    4224.5051   -11555.975    89.616801   -716.17072   -549.95538   -697.45379   -65.949912   -24.476166   -385.34856      46.7237      46.7237      46.7237           90           90           90     102002.7   -654.52663 
  976000       975496    -6866.495    474.18332   -7340.6783    4214.8517    -11555.53    91.899872   -655.92176   -598.15675    -649.9068    232.85153   -186.37412    43.975668      46.7237      46.7237      46.7237           90           90           90     102002.7   -634.66177 
  977000       976496   -6849.6233    476.69964    -7326.323    4231.6803   -11558.003    92.387552   -988.19367   -666.25859   -765.60382    136.11392   -68.364195   -119.13996      46.7237      46.7237      46.7237           90           90           90     102002.7   -806.68536 
  978000       977496   -6860.2097    473.51956   -7333.7293     4200.318   -11534.047     91.77123   -769.21615   -688.44431    -454.9272   -107.60629    151.52235    -202.5396      46.7237      46.7237      46.7237           90           90           90     102002.7   -637.52922 
  979000       978496   -6869.2323    465.28605   -7334.5183     4230.547   -11565.065    90.175522   -747.86501   -885.10846   -1002.9189   -36.217607    71.446934   -2.4610856      46.7237      46.7237      46.7237           90           90           90     102002.7   -878.63078 
  980000       979496   -6885.2075    450.77443   -7335.9819    4203.9836   -11539.966    87.363072   -853.81411   -342.52792   -630.14458    142.94102    11.198922   0.76819383      46.7237      46.7237      46.7237           90           90           90     102002.7   -608.82887 
  981000       980496   -6853.5238    470.70108   -7324.2249    4215.4637   -11539.689    91.224991   -784.63249   -1016.7849   -269.12033   -35.988148   -40.449774    194.68512      46.7237      46.7237      46.7237           90           90           90     102002.7   -690.17923 
  982000       981496     -6883.06    460.18881   -7343.2488    4212.0356   -11555.284    89.187642   -579.90301   -510.14662   -896.17234    190.11814    10.764456   -234.26218      46.7237      46.7237      46.7237           90           90           90     102002.7   -662.07399 
  983000       982496   -6868.7961     474.6403   -7343.4364    4195.0887   -11538.525    91.988436   -443.33942   -416.20637   -279.80884   -19.923802    170.32319   -155.47607      46.7237      46.7237      46.7237           90           90           90     102002.7   -379.78488 
  984000       983496   -6845.2984    482.72934   -7328.0277    4227.7459   -11555.774    93.556146   -753.23674   -942.44132   -488.97142    -52.70543    181.46005    15.238245      46.7237      46.7237      46.7237           90           90           90     102002.7   -728.21649 
  985000       984496   -6866.3845    471.88299   -7338.2675    4217.9291   -11556.197    91.454052    -334.1029   -811.85804   -731.81029    23.995426      71.0387    97.178047      46.7237      46.7237      46.7237           90           90           90     102002.7   -625.92374 
  986000       985496   -6850.9075    488.10104   -7339.0085    4191.0491   -11530.058    94.597219   -1036.1391   -196.23673   -540.86622    12.184941   -57.920601     194.7387      46.7237      46.7237      46.7237           90           90           90     102002.7   -591.08067 
  987000       986496   -6843.7047    474.66961   -7318.3743    4235.2458    -11553.62    91.994118   -517.54657   -540.79408    -660.6474   -55.493332    236.78368    136.50279      46.7237      46.7237      46.7237           90           90           90     102002.7   -572.99601 
  988000       987496   -6870.2069    473.72675   -7343.9337    4202.9723   -11546.906    91.811385   -457.12307   -787.46064   -412.13768   -6.9685069   -93.436056    33.233792      46.7237      46.7237      46.7237           90           90           90     102002.7   -552.24046 
  989000       988496   -6862.1457    478.99457   -7341.1403    4207.0367   -11548.177    92.832323   -793.46894   -566.58301   -649.10614    10.645507    2.7408374    191.27693      46.7237      46.7237      46.7237           90           90           90     102002.7   -669.71936 
  990000       989496   -6857.3798    471.01333   -7328.3931    4226.1265    -11554.52    91.285506   -925.99581   -418.36711   -357.38539   -182.99246   -38.341224    141.95773      46.7237      46.7237      46.7237           90           90           90     102002.7   -567.24944 
  991000       990496   -6881.8435    463.71605   -7345.5596    4213.5439   -11559.103    89.871244   -1013.0981   -991.58966   -665.28157    -173.0316    166.02622   -41.542066      46.7237      46.7237      46.7237           90           90           90     102002.7   -889.98977 
  992000       991496   -6862.2183    464.30704   -7326.5253    4243.1925   -11569.718    89.985782   -827.41159   -835.88286   -682.29679    30.067053    193.56096   -65.209324      46.7237      46.7237      46.7237           90           90           90     102002.7   -781.86375 
  993000       992496   -6849.3386    474.43796   -7323.7766    4228.9844   -11552.761    91.949221   -1444.4986   -1290.0923   -720.73797    39.760742   -254.70802    80.511745      46.7237      46.7237      46.7237           90           90           90     102002.7   -1151.7763 
  994000       993496   -6862.7066    462.22373   -7324.9303    4234.5742   -11559.504    89.582024   -1272.2432   -741.15347    -511.4306    85.970149   -118.00234    201.01138      46.7237      46.7237      46.7237           90           90           90     102002.7   -841.60908 
  995000       994496   -6873.7393    475.29853   -7349.0379    4212.5605   -11561.598    92.116006   -480.89235   -495.97301   -651.42422   -153.95265    41.414574   -109.24124      46.7237      46.7237      46.7237           90           90           90     102002.7   -542.76319 
  996000       995496   -6866.3103    469.37753   -7335.6878    4214.6695   -11550.357    90.968478   -707.78675   -897.99504   -507.74316   -136.23331    160.57042   -124.17393      46.7237      46.7237      46.7237           90           90           90     102002.7   -704.50832 
  997000       996496   -6862.1167    475.88893   -7338.0056    4223.0987   -11561.104     92.23043   -921.94073   -922.09457   -869.19872    35.458953    100.14213     98.24847      46.7237      46.7237      46.7237           90           90           90     102002.7   -904.41134 
  998000       997496    -6885.299    457.78394   -7343.0829    4211.1585   -11554.241    88.721564   -720.91305   -752.14283    -554.4784   -64.992309     143.2426   -101.05358      46.7237      46.7237      46.7237           90           90           90     102002.7   -675.84476 
  999000       998496   -6861.0524    460.28031   -7321.3327    4241.9578   -11563.291    89.205376   -622.65388   -1125.4019   -1194.4579    48.468168   -132.58592   -106.02209      46.7237      46.7237      46.7237           90           90           90     102002.7    -980.8379 
 1000000       999496   -6872.7362     472.2499   -7344.9861    4226.3922   -11571.378    91.525162   -849.39466   -791.43018   -508.67222    302.37837   -113.14335   -161.88041      46.7237      46.7237      46.7237           90           90           90     102002.7   -716.49902 
 1000504      1000000   -6854.3674    481.86522   -7336.2326    4221.7332   -11557.966    93.388674   -795.38726   -420.45703   -1007.5805   -122.05513   -4.6476148    55.284235      46.7237      46.7237      46.7237           90           90           90     102002.7   -741.14159 
Loop time of 1393.82 on 16 procs for 500000 steps with 1732 atoms

Performance: 30.994 ns/day, 0.774 hours/ns, 358.726 timesteps/s
99.8% CPU use with 16 MPI tasks x no OpenMP threads

MPI task timing breakdown:
Section |  min time  |  avg time  |  max time  |%varavg| %total
---------------------------------------------------------------
Pair    | 572.55     | 766.91     | 970.82     | 480.3 | 55.02
Bond    | 174.68     | 183.25     | 188.51     |  28.6 | 13.15
Neigh   | 2.6534     | 2.6658     | 2.6787     |   0.5 |  0.19
Comm    | 205.58     | 413.45     | 616.31     | 657.9 | 29.66
Output  | 0.096022   | 0.10095    | 0.10134    |   0.4 |  0.01
Modify  | 21.403     | 22.051     | 22.368     |   7.4 |  1.58
Other   |            | 5.4        |            |       |  0.39

Nlocal:    108.25 ave 122 max 87 min
Histogram: 1 0 1 2 1 3 1 1 3 3
Nghost:    2200.5 ave 2221 max 2186 min
Histogram: 2 3 3 0 3 0 1 2 0 2
Neighs:    11447.4 ave 15449 max 8040 min
Histogram: 5 0 3 0 1 0 1 3 0 3

Total # of neighbors = 183159
Ave neighs/atom = 105.75
Ave special neighs/atom = 6.65127
Neighbor list builds = 2396
Dangerous builds = 0
Total wall time: 0:44:30
