LAMMPS (30 Mar 2018)
Reading data file ...
  orthogonal box = (0 0 0) to (46.7237 46.7237 46.7237)
  2 by 2 by 4 MPI processor grid
  reading atoms ...
  1735 atoms
  scanning bonds ...
  5 = max bonds/atom
  scanning angles ...
  10 = max angles/atom
  scanning dihedrals ...
  32 = max dihedrals/atom
  scanning impropers ...
  3 = max impropers/atom
  reading bonds ...
  2064 bonds
  reading angles ...
  3696 angles
  reading dihedrals ...
  6240 dihedrals
  reading impropers ...
  1008 impropers
Finding 1-2 1-3 1-4 neighbors ...
  special bond factors lj:   0          0          0         
  special bond factors coul: 0          0          0         
  5 = max # of 1-2 neighbors
  8 = max # of 1-3 neighbors
  20 = max # of 1-4 neighbors
  19 = max # of special neighbors
Finding 1-2 1-3 1-4 neighbors ...
  special bond factors lj:   0          0          1         
  special bond factors coul: 1          1          1         
  5 = max # of 1-2 neighbors
  8 = max # of 1-3 neighbors
  19 = max # of special neighbors
WARNING: Using 'neigh_modify every 1 delay 0 check yes' setting during minimization (../min.cpp:168)
Neighbor list info ...
  update every 1 steps, delay 0 steps, check yes
  max neighbors/atom: 2000, page size: 100000
  master list distance cutoff = 16
  ghost atom cutoff = 16
  binsize = 8, bins = 6 6 6
  3 neighbor lists, perpetual/occasional/extra = 3 0 0
  (1) pair buck6d/coul/gauss/dsf, perpetual, skip from (3)
      attributes: half, newton on
      pair build: skip
      stencil: none
      bin: none
  (2) pair lj/cut, perpetual, skip from (3)
      attributes: half, newton on
      pair build: skip
      stencil: none
      bin: none
  (3) neighbor class addition, perpetual
      attributes: half, newton on
      pair build: half/bin/newton
      stencil: half/bin/3d/newton
      bin: standard
Setting up cg style minimization ...
  Unit style    : real
  Current step  : 0
WARNING: Inconsistent image flags (../domain.cpp:786)
Per MPI rank memory allocation (min/avg/max) = 22.89 | 23.35 | 23.79 Mbytes
Step Temp E_pair E_mol TotEng Press 
       0            0   -11533.344    6482.8914   -5050.4527    6283.8583 
     504            0   -11556.668    3737.8525   -7818.8152   -497.63776 
Loop time of 2.75344 on 16 procs for 504 steps with 1735 atoms

99.8% CPU use with 16 MPI tasks x no OpenMP threads

Minimization stats:
  Stopping criterion = max force evaluations
  Energy initial, next-to-last, final = 
        -5050.45273474     -7818.78395199     -7818.81524423
  Force two-norm initial, final = 2576.95 8.68127
  Force max component initial, final = 151.968 1.0597
  Final line search alpha, max atom move = 0.00897993 0.00951603
  Iterations, force evaluations = 504 1001

MPI task timing breakdown:
Section |  min time  |  avg time  |  max time  |%varavg| %total
---------------------------------------------------------------
Pair    | 1.1391     | 1.5663     | 1.877      |  15.5 | 56.89
Bond    | 0.31645    | 0.36258    | 0.42465    |   5.8 | 13.17
Neigh   | 0.014017   | 0.014103   | 0.014148   |   0.0 |  0.51
Comm    | 0.43724    | 0.77069    | 1.21       |  21.1 | 27.99
Output  | 0          | 0          | 0          |   0.0 |  0.00
Modify  | 0          | 0          | 0          |   0.0 |  0.00
Other   |            | 0.03975    |            |       |  1.44

Nlocal:    108.438 ave 128 max 96 min
Histogram: 3 3 1 2 3 0 1 0 1 2
Nghost:    2189.31 ave 2201 max 2169 min
Histogram: 2 1 0 1 0 2 1 2 3 4
Neighs:    11447 ave 16311 max 7953 min
Histogram: 5 0 1 1 2 1 5 0 0 1

Total # of neighbors = 183152
Ave neighs/atom = 105.563
Ave special neighs/atom = 6.63977
Neighbor list builds = 12
Dangerous builds = 0
Neighbor list info ...
  update every 1 steps, delay 10 steps, check yes
  max neighbors/atom: 2000, page size: 100000
  master list distance cutoff = 16
  ghost atom cutoff = 16
  binsize = 8, bins = 6 6 6
  3 neighbor lists, perpetual/occasional/extra = 3 0 0
  (1) pair buck6d/coul/gauss/dsf, perpetual, skip from (3)
      attributes: half, newton on
      pair build: skip
      stencil: none
      bin: none
  (2) pair lj/cut, perpetual, skip from (3)
      attributes: half, newton on
      pair build: skip
      stencil: none
      bin: none
  (3) neighbor class addition, perpetual
      attributes: half, newton on
      pair build: half/bin/newton
      stencil: half/bin/3d/newton
      bin: standard
Setting up Verlet run ...
  Unit style    : real
  Current step  : 504
  Time step     : 1
WARNING: Inconsistent image flags (../domain.cpp:786)
Per MPI rank memory allocation (min/avg/max) = 22.54 | 22.63 | 22.88 Mbytes
Step Temp PotEng TotEng Press Volume Lx Ly Lz 
     504          130   -7818.8152    -7146.881   -196.51199     102002.7      46.7237      46.7237      46.7237 
    1000    117.84378   -7238.0318   -6628.9297   -882.75628     102002.7      46.7237      46.7237      46.7237 
    2000    129.71991   -7116.3184   -6445.8319   -527.84052     102002.7      46.7237      46.7237      46.7237 
    3000    126.41638   -7124.8376   -6471.4261    -1039.516     102002.7      46.7237      46.7237      46.7237 
    4000    127.60944   -7140.6074   -6481.0294   -623.59081     102002.7      46.7237      46.7237      46.7237 
    5000    131.50634   -7125.4047   -6445.6846   -715.30781     102002.7      46.7237      46.7237      46.7237 
    6000    127.45889   -7146.9755   -6488.1756   -586.72739     102002.7      46.7237      46.7237      46.7237 
    7000    131.51183   -7131.3709   -6451.6225   -599.15216     102002.7      46.7237      46.7237      46.7237 
    8000    132.66809   -7122.8859   -6437.1611   -425.00024     102002.7      46.7237      46.7237      46.7237 
    9000    129.24573   -7149.9191   -6481.8836   -499.92225     102002.7      46.7237      46.7237      46.7237 
   10000     123.7542   -7126.6759   -6487.0245   -799.85055     102002.7      46.7237      46.7237      46.7237 
   11000    131.50902    -7136.704   -6456.9701   -715.59897     102002.7      46.7237      46.7237      46.7237 
   12000    128.37478   -7155.7193   -6492.1854   -832.17494     102002.7      46.7237      46.7237      46.7237 
   13000    129.04792   -7127.7424   -6460.7292   -593.43449     102002.7      46.7237      46.7237      46.7237 
   14000    130.22248   -7123.7173   -6450.6331   -785.66971     102002.7      46.7237      46.7237      46.7237 
   15000    130.70152   -7135.9379   -6460.3777   -667.83089     102002.7      46.7237      46.7237      46.7237 
   16000    126.88913   -7152.7832   -6496.9283   -761.09751     102002.7      46.7237      46.7237      46.7237 
   17000    129.42904    -7146.979    -6477.996   -596.47243     102002.7      46.7237      46.7237      46.7237 
   18000    129.65191   -7149.1128   -6478.9778   -834.26217     102002.7      46.7237      46.7237      46.7237 
   19000    130.82447   -7127.7216   -6451.5259   -567.78724     102002.7      46.7237      46.7237      46.7237 
   20000    131.94911   -7123.5465   -6441.5379   -684.94861     102002.7      46.7237      46.7237      46.7237 
   21000    130.14718   -7150.5549     -6477.86   -655.89186     102002.7      46.7237      46.7237      46.7237 
   22000    130.95987   -7126.9862   -6450.0907   -907.54384     102002.7      46.7237      46.7237      46.7237 
   23000    128.74459   -7139.3275   -6473.8822   -942.94375     102002.7      46.7237      46.7237      46.7237 
   24000    134.68878    -7140.549   -6444.3798   -973.48299     102002.7      46.7237      46.7237      46.7237 
   25000    129.83081    -7154.298   -6483.2383   -657.41801     102002.7      46.7237      46.7237      46.7237 
   26000    128.84028   -7136.0235   -6470.0836   -688.24998     102002.7      46.7237      46.7237      46.7237 
   27000    130.87376    -7125.016   -6448.5656   -704.37115     102002.7      46.7237      46.7237      46.7237 
   28000    129.07763   -7159.2137   -6492.0469    -586.3031     102002.7      46.7237      46.7237      46.7237 
   29000    132.05828   -7140.7994   -6458.2265   -316.71708     102002.7      46.7237      46.7237      46.7237 
   30000     128.5144   -7149.8094   -6485.5539   -780.92648     102002.7      46.7237      46.7237      46.7237 
   31000    130.80874   -7128.0891   -6451.9748   -635.76908     102002.7      46.7237      46.7237      46.7237 
   32000    128.04568   -7135.9836   -6474.1507   -745.04615     102002.7      46.7237      46.7237      46.7237 
   33000    133.42138   -7127.6841   -6438.0657   -785.00741     102002.7      46.7237      46.7237      46.7237 
   34000    126.63677   -7119.5555   -6465.0049   -591.32013     102002.7      46.7237      46.7237      46.7237 
   35000    128.57701   -7121.8222   -6457.2431   -638.25023     102002.7      46.7237      46.7237      46.7237 
   36000    134.19267   -7129.7053   -6436.1003   -901.85038     102002.7      46.7237      46.7237      46.7237 
   37000    127.95619   -7135.2049   -6473.8346   -715.82794     102002.7      46.7237      46.7237      46.7237 
   38000    132.41736   -7125.6169   -6441.1881   -667.13471     102002.7      46.7237      46.7237      46.7237 
   39000    130.31168   -7149.9603   -6476.4151   -812.78454     102002.7      46.7237      46.7237      46.7237 
   40000    127.77637   -7171.8366   -6511.3958   -748.51243     102002.7      46.7237      46.7237      46.7237 
   41000    131.25784   -7140.3728   -6461.9372   -825.40318     102002.7      46.7237      46.7237      46.7237 
   42000    132.10862   -7112.1508   -6429.3177    -712.2194     102002.7      46.7237      46.7237      46.7237 
   43000    129.65824   -7126.5393   -6456.3716   -801.81712     102002.7      46.7237      46.7237      46.7237 
   44000    130.67915     -7142.35   -6466.9055   -837.09306     102002.7      46.7237      46.7237      46.7237 
   45000    128.45855   -7132.7301   -6468.7632   -505.94104     102002.7      46.7237      46.7237      46.7237 
   46000    126.95569   -7161.8026   -6505.6036   -914.76091     102002.7      46.7237      46.7237      46.7237 
   47000    129.93721   -7121.1878   -6449.5781   -833.64158     102002.7      46.7237      46.7237      46.7237 
   48000    127.97942    -7154.244   -6492.7536   -815.39982     102002.7      46.7237      46.7237      46.7237 
   49000    132.83007   -7138.1317   -6451.5696   -687.50864     102002.7      46.7237      46.7237      46.7237 
   50000     136.1316   -7132.6644   -6429.0377   -805.17544     102002.7      46.7237      46.7237      46.7237 
   51000    127.66534   -7137.0653   -6477.1983   -430.92604     102002.7      46.7237      46.7237      46.7237 
   52000    134.57719   -7142.5715   -6446.9791   -656.13478     102002.7      46.7237      46.7237      46.7237 
   53000    127.38436   -7145.0354   -6486.6207   -754.39682     102002.7      46.7237      46.7237      46.7237 
   54000     133.2921   -7150.1004   -6461.1503   -784.23822     102002.7      46.7237      46.7237      46.7237 
   55000    131.83645   -7106.8624   -6425.4361   -707.44185     102002.7      46.7237      46.7237      46.7237 
   56000    134.03918   -7154.8934   -6462.0817   -782.18758     102002.7      46.7237      46.7237      46.7237 
   57000    129.84919   -7152.2212   -6481.0665   -877.03564     102002.7      46.7237      46.7237      46.7237 
   58000    127.91652   -7133.0669   -6471.9016   -645.65533     102002.7      46.7237      46.7237      46.7237 
   59000    131.04101   -7163.7629    -6486.448   -718.20544     102002.7      46.7237      46.7237      46.7237 
   60000    135.31386     -7153.15   -6453.7499    -1043.467     102002.7      46.7237      46.7237      46.7237 
   61000    133.39893   -7138.2916   -6448.7893   -756.50764     102002.7      46.7237      46.7237      46.7237 
   62000    131.72756   -7151.8004   -6470.9369   -684.83236     102002.7      46.7237      46.7237      46.7237 
   63000    128.12206   -7118.7628   -6456.5351   -790.15768     102002.7      46.7237      46.7237      46.7237 
   64000    130.90349   -7151.9583   -6475.3542   -759.52358     102002.7      46.7237      46.7237      46.7237 
   65000    135.58491   -7117.8595   -6417.0584   -822.82434     102002.7      46.7237      46.7237      46.7237 
   66000    129.90444    -7139.362   -6467.9218   -872.38732     102002.7      46.7237      46.7237      46.7237 
   67000    129.27607    -7113.062   -6444.8696   -719.61074     102002.7      46.7237      46.7237      46.7237 
   68000     131.8696   -7136.1275   -6454.5299   -822.06306     102002.7      46.7237      46.7237      46.7237 
   69000    128.82349   -7128.9365   -6463.0833   -895.15799     102002.7      46.7237      46.7237      46.7237 
   70000    131.34773   -7128.6586   -6449.7583   -688.20849     102002.7      46.7237      46.7237      46.7237 
   71000    126.83363   -7139.7585   -6484.1904   -531.92498     102002.7      46.7237      46.7237      46.7237 
   72000    130.55315    -7146.946   -6472.1527   -1029.8908     102002.7      46.7237      46.7237      46.7237 
   73000    131.03708   -7116.6329   -6439.3383    -713.3361     102002.7      46.7237      46.7237      46.7237 
   74000     127.7002   -7138.2336   -6478.1865   -611.38487     102002.7      46.7237      46.7237      46.7237 
   75000    132.59995   -7106.7984   -6421.4258   -837.48522     102002.7      46.7237      46.7237      46.7237 
   76000    124.62816   -7121.8711   -6477.7024   -694.89002     102002.7      46.7237      46.7237      46.7237 
   77000    123.58436   -7125.8309   -6487.0573   -748.74423     102002.7      46.7237      46.7237      46.7237 
   78000    129.58273   -7111.7797   -6442.0022   -765.88196     102002.7      46.7237      46.7237      46.7237 
   79000    126.64425   -7189.9811   -6535.3918   -545.00442     102002.7      46.7237      46.7237      46.7237 
   80000    130.08613   -7128.9817   -6456.6023   -627.30226     102002.7      46.7237      46.7237      46.7237 
   81000     125.0362   -7144.0351   -6497.7574   -789.77258     102002.7      46.7237      46.7237      46.7237 
   82000     134.1664   -7139.7929   -6446.3237   -761.84151     102002.7      46.7237      46.7237      46.7237 
   83000    129.76068   -7141.7177   -6471.0205   -761.67561     102002.7      46.7237      46.7237      46.7237 
   84000    131.57494   -7119.8424   -6439.7677     -969.544     102002.7      46.7237      46.7237      46.7237 
   85000    131.69077   -7123.2312   -6442.5579   -983.25574     102002.7      46.7237      46.7237      46.7237 
   86000    129.59035   -7120.7627   -6450.9459    -1022.087     102002.7      46.7237      46.7237      46.7237 
   87000    125.05671   -7147.0257    -6500.642   -1145.0828     102002.7      46.7237      46.7237      46.7237 
   88000    132.09394   -7126.2697   -6443.5125   -679.55871     102002.7      46.7237      46.7237      46.7237 
   89000    128.04354   -7158.4524   -6496.6306   -854.90199     102002.7      46.7237      46.7237      46.7237 
   90000    130.57225   -7147.0865   -6472.1945   -908.79659     102002.7      46.7237      46.7237      46.7237 
   91000    130.07447   -7144.4528   -6472.1336   -518.45134     102002.7      46.7237      46.7237      46.7237 
   92000    128.44187   -7144.9378   -6481.0571   -555.03465     102002.7      46.7237      46.7237      46.7237 
   93000     131.7639   -7121.3425   -6440.2912    -642.4613     102002.7      46.7237      46.7237      46.7237 
   94000    129.73713   -7138.4907   -6467.9152   -723.28007     102002.7      46.7237      46.7237      46.7237 
   95000    125.87723   -7142.5798   -6491.9551    -545.2392     102002.7      46.7237      46.7237      46.7237 
   96000    135.90798   -7149.2459   -6446.7749   -421.94379     102002.7      46.7237      46.7237      46.7237 
   97000    128.86415   -7164.7365   -6498.6732   -562.98337     102002.7      46.7237      46.7237      46.7237 
   98000    132.65787   -7141.7885   -6456.1165   -821.42139     102002.7      46.7237      46.7237      46.7237 
   99000    129.86863    -7124.912   -6453.6568   -868.73407     102002.7      46.7237      46.7237      46.7237 
  100000    130.44871   -7146.7778   -6472.5243   -915.02098     102002.7      46.7237      46.7237      46.7237 
  101000    129.03582   -7126.7172   -6459.7665   -562.39472     102002.7      46.7237      46.7237      46.7237 
  102000     133.5986   -7131.3931   -6440.8587   -758.44747     102002.7      46.7237      46.7237      46.7237 
  103000    125.76854   -7141.2515   -6491.1886   -1006.6799     102002.7      46.7237      46.7237      46.7237 
  104000    127.68769   -7134.1904   -6474.2079   -813.86564     102002.7      46.7237      46.7237      46.7237 
  105000    127.42609   -7120.8895   -6462.2591   -396.84863     102002.7      46.7237      46.7237      46.7237 
  106000    133.01405   -7155.6825   -6468.1695   -358.01068     102002.7      46.7237      46.7237      46.7237 
  107000    129.63928    -7130.892   -6460.8222   -573.13069     102002.7      46.7237      46.7237      46.7237 
  108000    127.88477   -7144.5031   -6483.5019   -675.47554     102002.7      46.7237      46.7237      46.7237 
  109000    128.83019   -7117.7715   -6451.8838   -839.81611     102002.7      46.7237      46.7237      46.7237 
  110000    132.62994   -7131.1814   -6445.6537   -718.04975     102002.7      46.7237      46.7237      46.7237 
  111000    128.85799   -7149.7945   -6483.7631   -677.78852     102002.7      46.7237      46.7237      46.7237 
  112000    135.52771   -7135.1461   -6434.6407   -755.43023     102002.7      46.7237      46.7237      46.7237 
  113000    130.70934   -7144.0297   -6468.4291   -486.95766     102002.7      46.7237      46.7237      46.7237 
  114000    127.04548   -7147.6763   -6491.0132   -272.35237     102002.7      46.7237      46.7237      46.7237 
  115000     126.3125   -7102.0034   -6449.1289   -551.34319     102002.7      46.7237      46.7237      46.7237 
  116000    129.59265   -7096.9932   -6427.1645   -699.64217     102002.7      46.7237      46.7237      46.7237 
  117000    127.88834   -7145.6631   -6484.6435   -341.25784     102002.7      46.7237      46.7237      46.7237 
  118000    130.86603    -7134.115   -6457.7045   -723.05453     102002.7      46.7237      46.7237      46.7237 
  119000    133.38868   -7138.4236   -6448.9742   -707.30406     102002.7      46.7237      46.7237      46.7237 
  120000    133.84449   -7148.6186   -6456.8133    -775.8476     102002.7      46.7237      46.7237      46.7237 
  121000    129.05581   -7130.6105   -6463.5566   -627.26409     102002.7      46.7237      46.7237      46.7237 
  122000    132.74443   -7129.9427   -6443.8232   -524.74738     102002.7      46.7237      46.7237      46.7237 
  123000    130.41815    -7147.765   -6473.6694   -994.22435     102002.7      46.7237      46.7237      46.7237 
  124000     131.6436   -7129.0205    -6448.591   -992.02828     102002.7      46.7237      46.7237      46.7237 
  125000    126.13591   -7145.9262   -6493.9645   -486.07408     102002.7      46.7237      46.7237      46.7237 
  126000    128.14966   -7122.2555   -6459.8852   -757.60823     102002.7      46.7237      46.7237      46.7237 
  127000    131.67841   -7141.0001   -6460.3907   -635.09567     102002.7      46.7237      46.7237      46.7237 
  128000    131.79177   -7145.7525   -6464.5571   -901.97601     102002.7      46.7237      46.7237      46.7237 
  129000    132.10798   -7113.3557   -6430.5259   -754.06223     102002.7      46.7237      46.7237      46.7237 
  130000     126.6101   -7129.5917    -6475.179   -990.35322     102002.7      46.7237      46.7237      46.7237 
  131000    130.62158   -7083.5504   -6408.4034   -784.77971     102002.7      46.7237      46.7237      46.7237 
  132000    130.39051   -7135.5899   -6461.6373   -836.77128     102002.7      46.7237      46.7237      46.7237 
  133000     126.2789    -7143.408   -6490.7071    -936.2056     102002.7      46.7237      46.7237      46.7237 
  134000     127.3802   -7116.7646   -6458.3714   -795.90201     102002.7      46.7237      46.7237      46.7237 
  135000    126.29573   -7130.4317   -6477.6439   -973.13998     102002.7      46.7237      46.7237      46.7237 
  136000    130.33602   -7134.3398   -6460.6687   -695.77638     102002.7      46.7237      46.7237      46.7237 
  137000    125.24191   -7122.2803   -6474.9394   -1087.0252     102002.7      46.7237      46.7237      46.7237 
  138000    129.33278   -7111.6806   -6443.1951   -727.25553     102002.7      46.7237      46.7237      46.7237 
  139000    127.11331   -7146.6252   -6489.6115   -952.87776     102002.7      46.7237      46.7237      46.7237 
  140000    126.94715   -7110.9437   -6454.7888   -741.52309     102002.7      46.7237      46.7237      46.7237 
  141000     128.2621   -7154.6984    -6491.747   -628.33876     102002.7      46.7237      46.7237      46.7237 
  142000    129.62216   -7138.5349   -6468.5537   -664.23869     102002.7      46.7237      46.7237      46.7237 
  143000    130.77276   -7151.1028   -6475.1744   -664.75423     102002.7      46.7237      46.7237      46.7237 
  144000    128.21259   -7124.0656     -6461.37   -947.35057     102002.7      46.7237      46.7237      46.7237 
  145000    123.28323   -7153.8561    -6516.639   -892.33932     102002.7      46.7237      46.7237      46.7237 
  146000    126.52512   -7131.8622   -6477.8887   -1105.5444     102002.7      46.7237      46.7237      46.7237 
  147000    133.05969   -7132.3814   -6444.6325   -752.01113     102002.7      46.7237      46.7237      46.7237 
  148000    130.88808   -7138.5394   -6462.0149    -680.1032     102002.7      46.7237      46.7237      46.7237 
  149000     135.3001   -7138.7095   -6439.3806   -923.95689     102002.7      46.7237      46.7237      46.7237 
  150000    124.89767   -7140.7811   -6495.2194   -715.24824     102002.7      46.7237      46.7237      46.7237 
  151000    132.19432   -7134.5683   -6451.2923   -667.97823     102002.7      46.7237      46.7237      46.7237 
  152000     126.8729    -7148.799    -6493.028   -553.27449     102002.7      46.7237      46.7237      46.7237 
  153000    131.44142   -7132.4674   -6453.0829   -456.64613     102002.7      46.7237      46.7237      46.7237 
  154000    127.78722   -7138.1329   -6477.6359   -734.05731     102002.7      46.7237      46.7237      46.7237 
  155000    129.60066   -7120.1931    -6450.323   -710.95155     102002.7      46.7237      46.7237      46.7237 
  156000    129.75536   -7137.2081   -6466.5384    -799.2075     102002.7      46.7237      46.7237      46.7237 
  157000    131.59358   -7163.6197   -6483.4487   -559.21028     102002.7      46.7237      46.7237      46.7237 
  158000    125.38029   -7135.5911   -6487.5349   -547.35459     102002.7      46.7237      46.7237      46.7237 
  159000    126.53342   -7116.1842   -6462.1678    -941.9015     102002.7      46.7237      46.7237      46.7237 
  160000    125.54685   -7136.0445   -6487.1274   -487.75324     102002.7      46.7237      46.7237      46.7237 
  161000    129.71988   -7126.0808   -6455.5945   -585.35064     102002.7      46.7237      46.7237      46.7237 
  162000    130.20193   -7148.4609    -6475.483   -748.19919     102002.7      46.7237      46.7237      46.7237 
  163000    125.98244   -7137.4821   -6486.3135   -533.13618     102002.7      46.7237      46.7237      46.7237 
  164000    132.64963   -7138.3016   -6452.6722   -688.96681     102002.7      46.7237      46.7237      46.7237 
  165000    131.01793     -7135.12   -6457.9243   -898.46069     102002.7      46.7237      46.7237      46.7237 
  166000    134.26402   -7150.3819   -6456.4081   -620.52038     102002.7      46.7237      46.7237      46.7237 
  167000    128.61545   -7137.6538    -6472.876   -521.99991     102002.7      46.7237      46.7237      46.7237 
  168000    128.47439   -7153.0183   -6488.9696   -888.93313     102002.7      46.7237      46.7237      46.7237 
  169000    128.26408   -7129.5459   -6466.5842   -656.88779     102002.7      46.7237      46.7237      46.7237 
  170000    131.76318   -7134.4502   -6453.4026   -965.31148     102002.7      46.7237      46.7237      46.7237 
  171000    129.29668   -7142.3206   -6474.0217   -430.67993     102002.7      46.7237      46.7237      46.7237 
  172000    130.36901   -7123.9104   -6450.0689   -778.76346     102002.7      46.7237      46.7237      46.7237 
  173000    131.17581   -7123.1211   -6445.1095   -566.74445     102002.7      46.7237      46.7237      46.7237 
  174000    125.14925   -7149.0496   -6502.1876   -760.80494     102002.7      46.7237      46.7237      46.7237 
  175000    132.42473   -7142.8131   -6458.3462   -669.69856     102002.7      46.7237      46.7237      46.7237 
  176000    129.97618   -7141.1675   -6469.3565   -902.57808     102002.7      46.7237      46.7237      46.7237 
  177000    127.05842   -7121.5437   -6464.8137   -865.14181     102002.7      46.7237      46.7237      46.7237 
  178000     128.0383   -7141.7923   -6479.9976   -827.77494     102002.7      46.7237      46.7237      46.7237 
  179000    136.36947   -7133.4347   -6428.5785   -709.19104     102002.7      46.7237      46.7237      46.7237 
  180000     130.8064   -7130.8616   -6454.7593    -561.2976     102002.7      46.7237      46.7237      46.7237 
  181000    124.73418    -7176.048   -6531.3313   -641.66889     102002.7      46.7237      46.7237      46.7237 
  182000    130.45639    -7122.328   -6448.0348     -573.251     102002.7      46.7237      46.7237      46.7237 
  183000    133.51779   -7118.4265   -6428.3098   -897.79761     102002.7      46.7237      46.7237      46.7237 
  184000    130.78884   -7133.0124   -6457.0009   -822.41938     102002.7      46.7237      46.7237      46.7237 
  185000    125.61608   -7132.6522   -6483.3773   -791.04824     102002.7      46.7237      46.7237      46.7237 
  186000    132.21236   -7110.3713    -6427.002   -664.88895     102002.7      46.7237      46.7237      46.7237 
  187000    126.08658   -7125.9031   -6474.1963   -1044.3502     102002.7      46.7237      46.7237      46.7237 
  188000    129.61801   -7118.9376   -6448.9778   -599.26505     102002.7      46.7237      46.7237      46.7237 
  189000    128.72528     -7138.46   -6473.1145   -949.71028     102002.7      46.7237      46.7237      46.7237 
  190000    131.53446   -7140.5261   -6460.6607   -748.59212     102002.7      46.7237      46.7237      46.7237 
  191000     130.3767   -7136.6094   -6462.7281   -860.92799     102002.7      46.7237      46.7237      46.7237 
  192000    124.67671    -7142.454   -6498.0344    -1081.232     102002.7      46.7237      46.7237      46.7237 
  193000    131.45678   -7112.9135   -6433.4497   -859.41974     102002.7      46.7237      46.7237      46.7237 
  194000    129.01542   -7132.9921   -6466.1469   -769.76458     102002.7      46.7237      46.7237      46.7237 
  195000    125.34588   -7153.9141   -6506.0358   -443.70038     102002.7      46.7237      46.7237      46.7237 
  196000    130.72164   -7111.4266   -6435.7624    -759.2898     102002.7      46.7237      46.7237      46.7237 
  197000    129.29599   -7138.3476   -6470.0523   -687.29256     102002.7      46.7237      46.7237      46.7237 
  198000    132.68655   -7131.4957   -6445.6754   -584.21765     102002.7      46.7237      46.7237      46.7237 
  199000    137.53972   -7130.3905   -6419.4856   -706.49121     102002.7      46.7237      46.7237      46.7237 
  200000    130.56592   -7153.0138   -6478.1546   -848.72295     102002.7      46.7237      46.7237      46.7237 
  201000    132.29697   -7122.9948   -6439.1881   -846.11432     102002.7      46.7237      46.7237      46.7237 
  202000    124.87581   -7107.2595   -6461.8108   -1103.8103     102002.7      46.7237      46.7237      46.7237 
  203000    130.25933   -7126.5487   -6453.2741   -593.78787     102002.7      46.7237      46.7237      46.7237 
  204000    127.31946   -7146.4299   -6488.3506   -1018.0386     102002.7      46.7237      46.7237      46.7237 
  205000    130.25237   -7146.1855   -6472.9469   -732.32239     102002.7      46.7237      46.7237      46.7237 
  206000    130.72212     -7129.96   -6454.2934   -654.54992     102002.7      46.7237      46.7237      46.7237 
  207000    127.28255   -7125.2756   -6467.3871   -762.98073     102002.7      46.7237      46.7237      46.7237 
  208000    131.36159   -7152.5394   -6473.5676   -886.53531     102002.7      46.7237      46.7237      46.7237 
  209000     130.4008   -7136.6664   -6462.6605   -819.39729     102002.7      46.7237      46.7237      46.7237 
  210000    125.87961   -7135.0997   -6484.4627   -1067.5184     102002.7      46.7237      46.7237      46.7237 
  211000    129.08296   -7149.8011   -6482.6068   -890.74637     102002.7      46.7237      46.7237      46.7237 
  212000     129.7692   -7131.2645   -6460.5233   -757.66969     102002.7      46.7237      46.7237      46.7237 
  213000    129.69995   -7142.7624   -6472.3791   -911.65084     102002.7      46.7237      46.7237      46.7237 
  214000    126.47307   -7150.6702   -6496.9658   -678.29574     102002.7      46.7237      46.7237      46.7237 
  215000    128.87194   -7115.8771   -6449.7735   -1061.2486     102002.7      46.7237      46.7237      46.7237 
  216000     129.8228   -7144.9731   -6473.9549    -695.9458     102002.7      46.7237      46.7237      46.7237 
  217000    129.63705   -7133.9578   -6463.8996   -681.60007     102002.7      46.7237      46.7237      46.7237 
  218000    131.90351   -7132.1127   -6450.3397   -558.18192     102002.7      46.7237      46.7237      46.7237 
  219000    130.28944   -7141.0587   -6467.6285   -598.25521     102002.7      46.7237      46.7237      46.7237 
  220000    131.57727   -7145.1963   -6465.1097    -776.2931     102002.7      46.7237      46.7237      46.7237 
  221000    127.46361   -7145.1247   -6486.3004   -894.19249     102002.7      46.7237      46.7237      46.7237 
  222000    130.69006   -7142.8725   -6467.3716   -849.89889     102002.7      46.7237      46.7237      46.7237 
  223000    134.59665    -7129.226    -6433.533   -904.21982     102002.7      46.7237      46.7237      46.7237 
  224000    129.42272   -7141.0375   -6472.0871   -870.32816     102002.7      46.7237      46.7237      46.7237 
  225000    130.74013   -7131.0686   -6455.3088   -720.24509     102002.7      46.7237      46.7237      46.7237 
  226000    124.64165   -7137.7716   -6493.5332   -554.57219     102002.7      46.7237      46.7237      46.7237 
  227000    129.06017   -7128.1447   -6461.0682   -476.06846     102002.7      46.7237      46.7237      46.7237 
  228000    127.83043   -7124.5063    -6463.786   -446.94941     102002.7      46.7237      46.7237      46.7237 
  229000    133.21473   -7139.5802     -6451.03    -642.8062     102002.7      46.7237      46.7237      46.7237 
  230000    127.31273   -7103.7839   -6445.7395      -622.71     102002.7      46.7237      46.7237      46.7237 
  231000     127.3918   -7135.4651    -6477.012   -512.09067     102002.7      46.7237      46.7237      46.7237 
  232000    129.13118   -7141.2019   -6473.7584   -660.58669     102002.7      46.7237      46.7237      46.7237 
  233000     125.6707   -7148.7722    -6499.215   -569.90332     102002.7      46.7237      46.7237      46.7237 
  234000     131.5281   -7133.1839   -6453.3514   -467.69218     102002.7      46.7237      46.7237      46.7237 
  235000    126.97936   -7154.6497   -6498.3283   -419.16367     102002.7      46.7237      46.7237      46.7237 
  236000    129.64366   -7131.8683    -6461.776   -543.89076     102002.7      46.7237      46.7237      46.7237 
  237000    133.71545   -7155.0521   -6463.9138   -801.42394     102002.7      46.7237      46.7237      46.7237 
  238000    130.41816   -7125.9147   -6451.8192   -845.93365     102002.7      46.7237      46.7237      46.7237 
  239000    128.56588   -7143.1067   -6478.5851    -994.4458     102002.7      46.7237      46.7237      46.7237 
  240000    129.31175   -7129.3731   -6460.9963     -851.615     102002.7      46.7237      46.7237      46.7237 
  241000    133.09245   -7136.6728   -6448.7546   -741.06704     102002.7      46.7237      46.7237      46.7237 
  242000    127.56018   -7127.8652   -6468.5418   -665.59558     102002.7      46.7237      46.7237      46.7237 
  243000    129.55766   -7122.8224   -6453.1745   -676.89295     102002.7      46.7237      46.7237      46.7237 
  244000    126.34143   -7113.2313   -6460.2072     -797.499     102002.7      46.7237      46.7237      46.7237 
  245000    126.70171   -7134.4418   -6479.5556   -944.92431     102002.7      46.7237      46.7237      46.7237 
  246000    129.88387   -7128.1413   -6456.8074   -651.84765     102002.7      46.7237      46.7237      46.7237 
  247000    129.30064   -7141.2408   -6472.9213   -869.55981     102002.7      46.7237      46.7237      46.7237 
  248000    132.15604   -7154.1604   -6471.0822   -823.28534     102002.7      46.7237      46.7237      46.7237 
  249000    130.67679   -7137.1243   -6461.6919   -1032.7899     102002.7      46.7237      46.7237      46.7237 
  250000    128.65658   -7156.0332   -6491.0427   -723.69843     102002.7      46.7237      46.7237      46.7237 
  251000    126.10502   -7110.1514   -6458.3493   -1068.2965     102002.7      46.7237      46.7237      46.7237 
  252000    127.28902   -7144.5977   -6486.6758   -742.91778     102002.7      46.7237      46.7237      46.7237 
  253000    129.67471   -7135.0463   -6464.7934   -750.70798     102002.7      46.7237      46.7237      46.7237 
  254000    131.32393   -7143.5328   -6464.7556    -622.7516     102002.7      46.7237      46.7237      46.7237 
  255000    132.20714   -7120.3796   -6437.0373   -874.21752     102002.7      46.7237      46.7237      46.7237 
  256000     130.6327   -7156.6806   -6481.4761   -825.41321     102002.7      46.7237      46.7237      46.7237 
  257000    131.93449   -7146.2216   -6464.2885   -717.53138     102002.7      46.7237      46.7237      46.7237 
  258000    125.91573     -7148.87   -6498.0462   -490.19029     102002.7      46.7237      46.7237      46.7237 
  259000    126.82195   -7122.2476   -6466.7399   -718.43275     102002.7      46.7237      46.7237      46.7237 
  260000    127.66639   -7124.1579   -6464.2855   -781.43594     102002.7      46.7237      46.7237      46.7237 
  261000    129.07201   -7154.1212   -6486.9835   -469.39193     102002.7      46.7237      46.7237      46.7237 
  262000    131.46314   -7123.4343   -6443.9375   -628.81655     102002.7      46.7237      46.7237      46.7237 
  263000    131.02439   -7137.3683   -6460.1393   -677.26859     102002.7      46.7237      46.7237      46.7237 
  264000    128.99417    -7150.535   -6483.7997   -909.74176     102002.7      46.7237      46.7237      46.7237 
  265000    128.39009   -7134.6823   -6471.0692   -489.43663     102002.7      46.7237      46.7237      46.7237 
  266000    127.53702   -7149.7072   -6490.5034   -882.54239     102002.7      46.7237      46.7237      46.7237 
  267000    128.42969   -7140.0466   -6476.2289   -595.31816     102002.7      46.7237      46.7237      46.7237 
  268000    134.16526   -7128.4384   -6434.9751    -755.6144     102002.7      46.7237      46.7237      46.7237 
  269000    128.75205   -7126.4537   -6460.9698   -734.97673     102002.7      46.7237      46.7237      46.7237 
  270000    133.00764    -7135.156   -6447.6762   -949.71662     102002.7      46.7237      46.7237      46.7237 
  271000    130.78147   -7161.0132   -6485.0398   -451.47298     102002.7      46.7237      46.7237      46.7237 
  272000    129.40794   -7134.7926   -6465.9186   -600.37385     102002.7      46.7237      46.7237      46.7237 
  273000    129.20735   -7120.8907   -6453.0535   -965.43774     102002.7      46.7237      46.7237      46.7237 
  274000    129.81631   -7165.2448     -6494.26   -530.65581     102002.7      46.7237      46.7237      46.7237 
  275000    128.91458   -7138.8593   -6472.5353   -368.84468     102002.7      46.7237      46.7237      46.7237 
  276000    133.25456   -7112.8726   -6424.1164    -801.8352     102002.7      46.7237      46.7237      46.7237 
  277000     128.3944   -7147.2735   -6483.6382   -538.47617     102002.7      46.7237      46.7237      46.7237 
  278000    132.16484   -7147.1785   -6464.0548   -453.30993     102002.7      46.7237      46.7237      46.7237 
  279000    126.27431   -7132.7479   -6480.0707   -457.11883     102002.7      46.7237      46.7237      46.7237 
  280000    131.94739   -7125.4418    -6443.442   -489.69637     102002.7      46.7237      46.7237      46.7237 
  281000    132.61675   -7164.5718   -6479.1124   -391.19388     102002.7      46.7237      46.7237      46.7237 
  282000    132.53746   -7143.5181   -6458.4685   -870.68142     102002.7      46.7237      46.7237      46.7237 
  283000    132.56177   -7141.7611   -6456.5858   -673.33424     102002.7      46.7237      46.7237      46.7237 
  284000    133.36144   -7150.9799   -6461.6713   -772.72335     102002.7      46.7237      46.7237      46.7237 
  285000    125.83406    -7152.792   -6502.3904    -974.9773     102002.7      46.7237      46.7237      46.7237 
  286000    130.93788   -7152.5507   -6475.7688   -734.33375     102002.7      46.7237      46.7237      46.7237 
  287000    128.70328   -7110.7121   -6445.4803   -1111.2153     102002.7      46.7237      46.7237      46.7237 
  288000    129.12284   -7115.2551   -6447.8547   -784.49412     102002.7      46.7237      46.7237      46.7237 
  289000    129.33837   -7160.3334   -6491.8189    -1020.811     102002.7      46.7237      46.7237      46.7237 
  290000    129.02356   -7120.6854   -6453.7981   -304.99951     102002.7      46.7237      46.7237      46.7237 
  291000    129.76899   -7127.2312    -6456.491   -859.10697     102002.7      46.7237      46.7237      46.7237 
  292000    128.33159   -7134.1869   -6470.8762   -433.92881     102002.7      46.7237      46.7237      46.7237 
  293000     129.6393   -7152.7415   -6482.6716   -436.97418     102002.7      46.7237      46.7237      46.7237 
  294000    130.68346   -7115.5183   -6440.0515   -750.35363     102002.7      46.7237      46.7237      46.7237 
  295000    128.34778   -7148.4908   -6485.0965   -515.09369     102002.7      46.7237      46.7237      46.7237 
  296000    126.90808   -7103.4228   -6447.4699   -742.20445     102002.7      46.7237      46.7237      46.7237 
  297000     130.2471   -7145.5911   -6472.3797   -355.82442     102002.7      46.7237      46.7237      46.7237 
  298000     129.3334   -7136.8246   -6468.3359   -484.05328     102002.7      46.7237      46.7237      46.7237 
  299000    129.72256   -7124.3069   -6453.8067   -335.65245     102002.7      46.7237      46.7237      46.7237 
  300000    127.69295   -7149.7377    -6489.728   -685.51402     102002.7      46.7237      46.7237      46.7237 
  301000    131.23821   -7134.5687   -6456.2346   -752.27383     102002.7      46.7237      46.7237      46.7237 
  302000    131.07914   -7139.9598   -6462.4479   -883.78568     102002.7      46.7237      46.7237      46.7237 
  303000    131.24623   -7121.3797    -6443.004   -1018.2827     102002.7      46.7237      46.7237      46.7237 
  304000    129.93028   -7114.1517   -6442.5779   -941.89126     102002.7      46.7237      46.7237      46.7237 
  305000    129.90479   -7153.5139   -6482.0719    -826.3319     102002.7      46.7237      46.7237      46.7237 
  306000    131.13954   -7133.7303   -6455.9061   -671.52829     102002.7      46.7237      46.7237      46.7237 
  307000    128.50228   -7152.9188   -6488.7259    -617.4051     102002.7      46.7237      46.7237      46.7237 
  308000    132.59458   -7134.5537   -6449.2089   -533.59852     102002.7      46.7237      46.7237      46.7237 
  309000    131.41734   -7154.4083   -6475.1483   -697.38538     102002.7      46.7237      46.7237      46.7237 
  310000    127.36253   -7120.7115   -6462.4097   -655.39985     102002.7      46.7237      46.7237      46.7237 
  311000    129.22684   -7129.5016   -6461.5636   -695.78371     102002.7      46.7237      46.7237      46.7237 
  312000    129.55397   -7129.2705   -6459.6417    -893.3654     102002.7      46.7237      46.7237      46.7237 
  313000     126.8702   -7156.5709   -6500.8137   -760.74624     102002.7      46.7237      46.7237      46.7237 
  314000    129.14463   -7125.7201   -6458.2071   -505.69254     102002.7      46.7237      46.7237      46.7237 
  315000     130.8834    -7154.278   -6477.7777   -588.29303     102002.7      46.7237      46.7237      46.7237 
  316000    128.10441   -7122.2344    -6460.098   -681.54474     102002.7      46.7237      46.7237      46.7237 
  317000    135.24778   -7141.6566   -6442.5981   -516.44328     102002.7      46.7237      46.7237      46.7237 
  318000      126.175   -7145.6334   -6493.4696   -763.66856     102002.7      46.7237      46.7237      46.7237 
  319000    131.51074    -7141.393   -6461.6502   -660.33156     102002.7      46.7237      46.7237      46.7237 
  320000    131.62343   -7140.5837   -6460.2585   -979.02508     102002.7      46.7237      46.7237      46.7237 
  321000    129.20701   -7144.4402   -6476.6048   -594.77499     102002.7      46.7237      46.7237      46.7237 
  322000    132.91895   -7135.0458   -6448.0243   -408.51564     102002.7      46.7237      46.7237      46.7237 
  323000    129.43585   -7137.2327   -6468.2144   -577.43076     102002.7      46.7237      46.7237      46.7237 
  324000    128.48744   -7144.8104   -6480.6943   -498.04864     102002.7      46.7237      46.7237      46.7237 
  325000    131.04785   -7133.3097   -6455.9595   -636.70049     102002.7      46.7237      46.7237      46.7237 
  326000    130.67699   -7137.1016   -6461.6683   -679.49127     102002.7      46.7237      46.7237      46.7237 
  327000    125.41176    -7124.024   -6475.8052   -627.64603     102002.7      46.7237      46.7237      46.7237 
  328000    131.57962   -7115.0867   -6434.9879   -455.47721     102002.7      46.7237      46.7237      46.7237 
  329000    131.04021   -7129.1598   -6451.8491   -606.91897     102002.7      46.7237      46.7237      46.7237 
  330000    129.55169   -7155.3995   -6485.7825   -468.30857     102002.7      46.7237      46.7237      46.7237 
  331000    130.91743   -7147.9296   -6471.2535   -282.76333     102002.7      46.7237      46.7237      46.7237 
  332000    128.69386   -7133.4294   -6468.2463   -487.43446     102002.7      46.7237      46.7237      46.7237 
  333000    133.56028   -7129.1961   -6438.8598   -645.41705     102002.7      46.7237      46.7237      46.7237 
  334000    127.77608    -7137.072   -6476.6327   -841.04362     102002.7      46.7237      46.7237      46.7237 
  335000    131.94051   -7136.6465   -6454.6823   -618.33431     102002.7      46.7237      46.7237      46.7237 
  336000    127.38215   -7125.5458   -6467.1425   -805.69883     102002.7      46.7237      46.7237      46.7237 
  337000    128.51685   -7125.5798   -6461.3116   -738.57033     102002.7      46.7237      46.7237      46.7237 
  338000    125.47839   -7113.9299   -6465.3667   -883.40222     102002.7      46.7237      46.7237      46.7237 
  339000     129.4527   -7137.7494    -6468.644   -709.32061     102002.7      46.7237      46.7237      46.7237 
  340000     133.3539   -7129.5005   -6440.2309   -906.13448     102002.7      46.7237      46.7237      46.7237 
  341000    131.24905   -7142.9582    -6464.568    -1122.693     102002.7      46.7237      46.7237      46.7237 
  342000     131.3998   -7149.4661   -6470.2967   -800.19049     102002.7      46.7237      46.7237      46.7237 
  343000    133.32367   -7123.7411   -6434.6277   -932.78861     102002.7      46.7237      46.7237      46.7237 
  344000    128.23873   -7132.9284   -6470.0977   -770.68781     102002.7      46.7237      46.7237      46.7237 
  345000    127.87515   -7166.1563   -6505.2049   -625.40913     102002.7      46.7237      46.7237      46.7237 
  346000    134.09453   -7150.5026   -6457.4049   -405.49551     102002.7      46.7237      46.7237      46.7237 
  347000    133.63981   -7131.2267   -6440.4793   -658.62953     102002.7      46.7237      46.7237      46.7237 
  348000    128.67987   -7146.2662   -6481.1554   -610.55938     102002.7      46.7237      46.7237      46.7237 
  349000    127.29089    -7153.293   -6495.3614   -658.60411     102002.7      46.7237      46.7237      46.7237 
  350000    128.86503   -7131.3431   -6465.2753   -650.61605     102002.7      46.7237      46.7237      46.7237 
  351000     132.9353   -7148.0979   -6460.9919   -700.21845     102002.7      46.7237      46.7237      46.7237 
  352000    126.07825   -7128.1983   -6476.5345   -640.06397     102002.7      46.7237      46.7237      46.7237 
  353000    129.41475   -7145.7035   -6476.7943   -791.31637     102002.7      46.7237      46.7237      46.7237 
  354000    130.63502     -7135.11   -6459.8936   -754.19046     102002.7      46.7237      46.7237      46.7237 
  355000    131.16176   -7137.4237   -6459.4847   -848.30379     102002.7      46.7237      46.7237      46.7237 
  356000    133.21007   -7127.2451   -6438.7189   -876.56009     102002.7      46.7237      46.7237      46.7237 
  357000     130.4338   -7143.4199   -6469.2435   -565.57592     102002.7      46.7237      46.7237      46.7237 
  358000    130.05786   -7133.1245   -6460.8912    -595.5325     102002.7      46.7237      46.7237      46.7237 
  359000    129.67934   -7140.3689   -6470.0921   -832.76681     102002.7      46.7237      46.7237      46.7237 
  360000    127.50202   -7142.0469   -6483.0241    -833.3817     102002.7      46.7237      46.7237      46.7237 
  361000    135.63095   -7122.6045   -6421.5655   -1002.1509     102002.7      46.7237      46.7237      46.7237 
  362000    130.94522   -7142.8345   -6466.0147   -699.89332     102002.7      46.7237      46.7237      46.7237 
  363000    130.50451    -7136.397   -6461.8551   -960.53621     102002.7      46.7237      46.7237      46.7237 
  364000    126.81848   -7136.4198   -6480.9301   -693.81422     102002.7      46.7237      46.7237      46.7237 
  365000    129.03264   -7112.3669   -6445.4327   -784.93552     102002.7      46.7237      46.7237      46.7237 
  366000    126.34908   -7132.4794   -6479.4158   -906.78616     102002.7      46.7237      46.7237      46.7237 
  367000    132.27383   -7121.7473   -6438.0603   -493.32086     102002.7      46.7237      46.7237      46.7237 
  368000    132.34501   -7159.2731   -6475.2182   -516.10633     102002.7      46.7237      46.7237      46.7237 
  369000    126.92697   -7113.2347   -6457.1841   -1017.0394     102002.7      46.7237      46.7237      46.7237 
  370000    128.25068   -7138.1067   -6475.2142   -635.54399     102002.7      46.7237      46.7237      46.7237 
  371000    127.50504   -7138.9201   -6479.8816    -724.9706     102002.7      46.7237      46.7237      46.7237 
  372000    131.10867   -7115.2948   -6437.6302    -683.7854     102002.7      46.7237      46.7237      46.7237 
  373000    130.92875   -7152.3315   -6475.5968   -584.48157     102002.7      46.7237      46.7237      46.7237 
  374000    133.87611   -7111.7584   -6419.7896   -680.94776     102002.7      46.7237      46.7237      46.7237 
  375000     129.0482   -7123.3574   -6456.3428   -842.73209     102002.7      46.7237      46.7237      46.7237 
  376000    130.20282   -7175.7715   -6502.7889   -855.90714     102002.7      46.7237      46.7237      46.7237 
  377000    128.42076    -7124.911   -6461.1394   -614.79236     102002.7      46.7237      46.7237      46.7237 
  378000    135.25172   -7114.6985   -6415.6197   -525.20253     102002.7      46.7237      46.7237      46.7237 
  379000    126.31511   -7130.3866   -6477.4986   -439.17948     102002.7      46.7237      46.7237      46.7237 
  380000    132.80376   -7141.6981   -6455.2721   -313.57692     102002.7      46.7237      46.7237      46.7237 
  381000    129.37631   -7122.1121   -6453.4016   -658.95961     102002.7      46.7237      46.7237      46.7237 
  382000    128.53116   -7143.7475   -6479.4054   -417.28551     102002.7      46.7237      46.7237      46.7237 
  383000    129.38174   -7154.1234   -6485.3848    -634.7957     102002.7      46.7237      46.7237      46.7237 
  384000     127.7216   -7122.7434   -6462.5856   -665.03483     102002.7      46.7237      46.7237      46.7237 
  385000    128.11429   -7135.1267   -6472.9392   -397.57169     102002.7      46.7237      46.7237      46.7237 
  386000     134.6223   -7134.5038   -6438.6782    -546.0077     102002.7      46.7237      46.7237      46.7237 
  387000    127.91402   -7146.5939   -6485.4416   -558.33665     102002.7      46.7237      46.7237      46.7237 
  388000    133.25775   -7098.9774   -6410.2048   -290.78742     102002.7      46.7237      46.7237      46.7237 
  389000    126.54801   -7140.1438    -6486.052   -545.63962     102002.7      46.7237      46.7237      46.7237 
  390000    129.69758   -7119.5914   -6449.2203    -533.6607     102002.7      46.7237      46.7237      46.7237 
  391000    132.84783   -7140.4985   -6453.8446   -622.23006     102002.7      46.7237      46.7237      46.7237 
  392000    131.35876    -7124.793   -6445.8357   -664.90544     102002.7      46.7237      46.7237      46.7237 
  393000    130.83224   -7162.5444   -6486.3086   -428.27223     102002.7      46.7237      46.7237      46.7237 
  394000    129.70299   -7142.1213   -6471.7223   -556.17378     102002.7      46.7237      46.7237      46.7237 
  395000     133.8456   -7120.1902   -6428.3792   -779.42815     102002.7      46.7237      46.7237      46.7237 
  396000    127.39395     -7129.18   -6470.7158    -718.7967     102002.7      46.7237      46.7237      46.7237 
  397000    129.11511   -7127.7219   -6460.3615   -676.87928     102002.7      46.7237      46.7237      46.7237 
  398000    128.16862   -7152.3186   -6489.8503   -785.26603     102002.7      46.7237      46.7237      46.7237 
  399000    129.81607   -7127.8452   -6456.8617   -574.83332     102002.7      46.7237      46.7237      46.7237 
  400000    132.80172   -7152.8025    -6466.387   -874.24001     102002.7      46.7237      46.7237      46.7237 
  401000    135.05599   -7133.9938   -6435.9266    -844.7719     102002.7      46.7237      46.7237      46.7237 
  402000    128.21633   -7131.5079   -6468.7929   -499.93827     102002.7      46.7237      46.7237      46.7237 
  403000     133.4387   -7129.1173   -6439.4094   -1015.2937     102002.7      46.7237      46.7237      46.7237 
  404000    128.12762   -7150.6344    -6488.378   -825.72367     102002.7      46.7237      46.7237      46.7237 
  405000    129.99243   -7121.9026   -6450.0075   -365.99233     102002.7      46.7237      46.7237      46.7237 
  406000    130.12024   -7147.1231   -6474.5674   -659.27956     102002.7      46.7237      46.7237      46.7237 
  407000    132.70975   -7144.5662   -6458.6261   -701.59784     102002.7      46.7237      46.7237      46.7237 
  408000    131.05715   -7115.3343    -6437.936   -468.76624     102002.7      46.7237      46.7237      46.7237 
  409000    129.40675     -7122.92   -6454.0521   -852.50982     102002.7      46.7237      46.7237      46.7237 
  410000    123.44666    -7145.724   -6507.6622   -601.86381     102002.7      46.7237      46.7237      46.7237 
  411000    133.91036   -7143.1284   -6450.9826   -542.50969     102002.7      46.7237      46.7237      46.7237 
  412000    126.98898   -7144.3259   -6487.9548    -781.9276     102002.7      46.7237      46.7237      46.7237 
  413000    129.48786   -7120.4727   -6451.1857    -464.0772     102002.7      46.7237      46.7237      46.7237 
  414000    135.32673   -7131.0269   -6431.5603   -859.36802     102002.7      46.7237      46.7237      46.7237 
  415000    128.98826    -7141.427   -6474.7222   -848.24876     102002.7      46.7237      46.7237      46.7237 
  416000    134.75046   -7122.1756   -6425.6875   -788.03578     102002.7      46.7237      46.7237      46.7237 
  417000    129.18143   -7144.0686   -6476.3653   -980.39728     102002.7      46.7237      46.7237      46.7237 
  418000    127.44894   -7146.2076   -6487.4591    -955.3632     102002.7      46.7237      46.7237      46.7237 
  419000    130.31217   -7133.9748   -6460.4271   -1036.2404     102002.7      46.7237      46.7237      46.7237 
  420000    124.81002    -7136.713   -6491.6043   -942.16359     102002.7      46.7237      46.7237      46.7237 
  421000    133.10919   -7139.8964   -6451.8916   -852.30031     102002.7      46.7237      46.7237      46.7237 
  422000    127.24389   -7147.8606   -6490.1719   -795.26097     102002.7      46.7237      46.7237      46.7237 
  423000    129.92857   -7140.0141   -6468.4491   -644.58977     102002.7      46.7237      46.7237      46.7237 
  424000    133.63814   -7132.5045   -6441.7658   -768.35995     102002.7      46.7237      46.7237      46.7237 
  425000    128.82943   -7156.0565   -6490.1726   -772.39094     102002.7      46.7237      46.7237      46.7237 
  426000    130.22071   -7115.4258   -6442.3508   -807.47156     102002.7      46.7237      46.7237      46.7237 
  427000    125.89181   -7128.6658   -6477.9657   -697.86543     102002.7      46.7237      46.7237      46.7237 
  428000    128.32571   -7158.1793    -6494.899   -914.56542     102002.7      46.7237      46.7237      46.7237 
  429000     131.7068   -7143.7075   -6462.9513   -436.28462     102002.7      46.7237      46.7237      46.7237 
  430000    130.83513   -7144.6955   -6468.4448   -866.40599     102002.7      46.7237      46.7237      46.7237 
  431000    132.51815   -7144.2559   -6459.3061   -883.01182     102002.7      46.7237      46.7237      46.7237 
  432000    133.87886   -7138.3023   -6446.3194   -735.22089     102002.7      46.7237      46.7237      46.7237 
  433000    133.93964   -7138.2421    -6445.945   -985.92291     102002.7      46.7237      46.7237      46.7237 
  434000    128.38278   -7159.2023    -6495.627   -891.58907     102002.7      46.7237      46.7237      46.7237 
  435000    133.45323   -7143.1171   -6453.3341   -838.70668     102002.7      46.7237      46.7237      46.7237 
  436000    130.10897   -7163.4822   -6490.9847   -815.46357     102002.7      46.7237      46.7237      46.7237 
  437000    131.31744   -7122.7714   -6444.0277   -758.15485     102002.7      46.7237      46.7237      46.7237 
  438000    129.71796   -7141.6544    -6471.178   -739.67127     102002.7      46.7237      46.7237      46.7237 
  439000    127.23093   -7135.9562   -6478.3346   -683.51268     102002.7      46.7237      46.7237      46.7237 
  440000    130.17554   -7115.8186   -6442.9771   -806.23519     102002.7      46.7237      46.7237      46.7237 
  441000    131.78681    -7137.454   -6456.2842   -718.36669     102002.7      46.7237      46.7237      46.7237 
  442000    128.99812   -7185.3092   -6518.5535    -547.2531     102002.7      46.7237      46.7237      46.7237 
  443000    133.72786   -7143.9071   -6452.7046   -345.99587     102002.7      46.7237      46.7237      46.7237 
  444000    136.36542   -7143.0326   -6438.1973    -707.4585     102002.7      46.7237      46.7237      46.7237 
  445000     133.2724   -7164.7911   -6475.9428   -649.88055     102002.7      46.7237      46.7237      46.7237 
  446000    130.80966   -7122.5019   -6446.3828   -546.42539     102002.7      46.7237      46.7237      46.7237 
  447000    130.36417   -7123.8093   -6449.9928    -930.3072     102002.7      46.7237      46.7237      46.7237 
  448000    126.66281   -7139.2579   -6484.5728   -880.76197     102002.7      46.7237      46.7237      46.7237 
  449000    126.46224   -7130.1785     -6476.53   -908.64305     102002.7      46.7237      46.7237      46.7237 
  450000    127.76192   -7117.5768   -6457.2106   -676.60201     102002.7      46.7237      46.7237      46.7237 
  451000    126.28328   -7137.1505   -6484.4271   -1096.8267     102002.7      46.7237      46.7237      46.7237 
  452000    129.91433   -7127.0434    -6455.552   -880.07472     102002.7      46.7237      46.7237      46.7237 
  453000    130.89226   -7138.6738   -6462.1278   -605.47157     102002.7      46.7237      46.7237      46.7237 
  454000    126.36227   -7126.4894   -6473.3576   -880.29537     102002.7      46.7237      46.7237      46.7237 
  455000    127.74335   -7126.7405   -6466.4703   -763.39975     102002.7      46.7237      46.7237      46.7237 
  456000    133.40929   -7130.7513   -6441.1954    -823.3753     102002.7      46.7237      46.7237      46.7237 
  457000    129.89494   -7147.3772   -6475.9861   -760.94373     102002.7      46.7237      46.7237      46.7237 
  458000    132.75212   -7118.5667   -6432.4076   -758.41252     102002.7      46.7237      46.7237      46.7237 
  459000    128.10194   -7132.2918   -6470.1682   -610.16257     102002.7      46.7237      46.7237      46.7237 
  460000    133.33986    -7139.433   -6450.2359   -827.33205     102002.7      46.7237      46.7237      46.7237 
  461000     129.8202   -7140.9404   -6469.9355   -794.10584     102002.7      46.7237      46.7237      46.7237 
  462000    127.70376   -7121.5158   -6461.4502   -851.39666     102002.7      46.7237      46.7237      46.7237 
  463000    125.39072   -7140.5619   -6492.4517   -590.46106     102002.7      46.7237      46.7237      46.7237 
  464000    131.81782   -7143.2665   -6461.9365   -822.72242     102002.7      46.7237      46.7237      46.7237 
  465000     133.3896   -7157.5398   -6468.0858   -543.74255     102002.7      46.7237      46.7237      46.7237 
  466000    128.89902   -7147.3219   -6481.0784   -788.19972     102002.7      46.7237      46.7237      46.7237 
  467000    130.94677   -7130.7493   -6453.9215   -616.24079     102002.7      46.7237      46.7237      46.7237 
  468000    128.33934   -7129.6627   -6466.3119   -412.26795     102002.7      46.7237      46.7237      46.7237 
  469000    129.67393   -7108.8249    -6438.576   -858.48013     102002.7      46.7237      46.7237      46.7237 
  470000    127.44774   -7128.6738   -6469.9315    -544.1495     102002.7      46.7237      46.7237      46.7237 
  471000    128.47435   -7158.2602   -6494.2117   -837.61452     102002.7      46.7237      46.7237      46.7237 
  472000    129.23276   -7132.3562   -6464.3876   -289.88927     102002.7      46.7237      46.7237      46.7237 
  473000    131.32697   -7125.3772   -6446.5842   -919.58458     102002.7      46.7237      46.7237      46.7237 
  474000    129.05288   -7138.2211   -6471.1823    -906.1016     102002.7      46.7237      46.7237      46.7237 
  475000     129.8606   -7123.2021   -6451.9884   -559.06398     102002.7      46.7237      46.7237      46.7237 
  476000    133.50618   -7147.5354   -6457.4787   -1013.5462     102002.7      46.7237      46.7237      46.7237 
  477000    130.43223   -7126.9223    -6452.754   -718.59163     102002.7      46.7237      46.7237      46.7237 
  478000    127.81917   -7153.3761   -6492.7141   -1045.6116     102002.7      46.7237      46.7237      46.7237 
  479000    127.36603   -7128.0475   -6469.7276   -637.21247     102002.7      46.7237      46.7237      46.7237 
  480000    128.89955     -7120.41   -6454.1637   -899.89536     102002.7      46.7237      46.7237      46.7237 
  481000    128.41114    -7138.194   -6474.4722   -631.34603     102002.7      46.7237      46.7237      46.7237 
  482000    132.71391   -7143.5441   -6457.5825    -799.2177     102002.7      46.7237      46.7237      46.7237 
  483000    131.99458   -7113.1908   -6430.9471   -880.88158     102002.7      46.7237      46.7237      46.7237 
  484000    130.42708   -7132.6522   -6458.5106   -775.87658     102002.7      46.7237      46.7237      46.7237 
  485000    129.47038    -7152.396   -6483.1993   -805.11397     102002.7      46.7237      46.7237      46.7237 
  486000    130.16967   -7134.1941   -6461.3829   -799.77581     102002.7      46.7237      46.7237      46.7237 
  487000    128.87765   -7150.7888   -6484.6558   -882.02144     102002.7      46.7237      46.7237      46.7237 
  488000     130.0866   -7130.3408    -6457.959   -846.55203     102002.7      46.7237      46.7237      46.7237 
  489000    130.92285   -7137.4897   -6460.7855   -1251.4532     102002.7      46.7237      46.7237      46.7237 
  490000    129.43929   -7135.8687   -6466.8327   -655.81347     102002.7      46.7237      46.7237      46.7237 
  491000    130.48364   -7145.8736   -6471.4396   -742.13164     102002.7      46.7237      46.7237      46.7237 
  492000    130.94956   -7145.7255   -6468.8833   -628.64655     102002.7      46.7237      46.7237      46.7237 
  493000    127.82932   -7131.7347   -6471.0201   -761.23044     102002.7      46.7237      46.7237      46.7237 
  494000    130.77395   -7126.8644   -6450.9299   -515.76669     102002.7      46.7237      46.7237      46.7237 
  495000    128.29872   -7148.4302   -6485.2895   -707.27105     102002.7      46.7237      46.7237      46.7237 
  496000    133.56118   -7140.8578   -6450.5169   -583.53044     102002.7      46.7237      46.7237      46.7237 
  497000    130.49807   -7140.4606    -6465.952   -878.30725     102002.7      46.7237      46.7237      46.7237 
  498000    126.18524   -7134.0661   -6481.8493   -934.89566     102002.7      46.7237      46.7237      46.7237 
  499000    130.20715   -7144.3185   -6471.3136   -512.43334     102002.7      46.7237      46.7237      46.7237 
  500000    129.29677   -7145.0037   -6476.7044   -683.98662     102002.7      46.7237      46.7237      46.7237 
  500504    129.98859    -7119.774   -6447.8988   -536.87309     102002.7      46.7237      46.7237      46.7237 
Loop time of 1272.72 on 16 procs for 500000 steps with 1735 atoms

Performance: 33.943 ns/day, 0.707 hours/ns, 392.858 timesteps/s
99.8% CPU use with 16 MPI tasks x no OpenMP threads

MPI task timing breakdown:
Section |  min time  |  avg time  |  max time  |%varavg| %total
---------------------------------------------------------------
Pair    | 535.48     | 686.11     | 844.56     | 383.1 | 53.91
Bond    | 162.47     | 173.99     | 184.56     |  57.5 | 13.67
Neigh   | 4.1849     | 4.2019     | 4.216      |   0.6 |  0.33
Comm    | 239.39     | 394.18     | 537.2      | 477.4 | 30.97
Output  | 0.020335   | 0.020694   | 0.023286   |   0.5 |  0.00
Modify  | 7.7403     | 8.5456     | 8.9665     |  11.8 |  0.67
Other   |            | 5.678      |            |       |  0.45

Nlocal:    108.438 ave 140 max 67 min
Histogram: 3 0 2 1 0 1 2 1 3 3
Nghost:    2209.06 ave 2251 max 2172 min
Histogram: 1 2 4 2 0 1 0 3 1 2
Neighs:    11451.6 ave 16954 max 5226 min
Histogram: 1 0 2 2 1 2 5 1 0 2

Total # of neighbors = 183225
Ave neighs/atom = 105.605
Ave special neighs/atom = 6.63977
Neighbor list builds = 3643
Dangerous builds = 0
Neighbor list info ...
  update every 1 steps, delay 10 steps, check yes
  max neighbors/atom: 2000, page size: 100000
  master list distance cutoff = 16
  ghost atom cutoff = 16
  binsize = 8, bins = 6 6 6
  3 neighbor lists, perpetual/occasional/extra = 3 0 0
  (1) pair buck6d/coul/gauss/dsf, perpetual, skip from (3)
      attributes: half, newton on
      pair build: skip
      stencil: none
      bin: none
  (2) pair lj/cut, perpetual, skip from (3)
      attributes: half, newton on
      pair build: skip
      stencil: none
      bin: none
  (3) neighbor class addition, perpetual
      attributes: half, newton on
      pair build: half/bin/newton
      stencil: half/bin/3d/newton
      bin: standard
Setting up Verlet run ...
  Unit style    : real
  Current step  : 500504
  Time step     : 1
WARNING: Inconsistent image flags (../domain.cpp:786)
Per MPI rank memory allocation (min/avg/max) = 23.33 | 23.33 | 23.33 Mbytes
Step Time TotEng KinEng PotEng E_mol E_pair Temp Pxx Pyy Pzz Pxy Pxz Pyz Cella Cellb Cellc CellAlpha CellBeta CellGamma Volume Press 
  500504       500000   -6447.8988    671.87522    -7119.774      4443.24   -11563.014    129.98859   -760.18809   -232.67607   -617.75511   -80.957666    214.73509   -7.7213855      46.7237      46.7237      46.7237           90           90           90     102002.7   -536.87309 
  501000       500496   -6432.5339    688.55068   -7121.0846    4423.6808   -11544.765    133.21481   -440.74137   -1067.6715   -711.09302   -106.15069   -70.098749    56.891781      46.7237      46.7237      46.7237           90           90           90     102002.7   -739.83529 
  502000       501496   -6450.2766    676.98908   -7127.2657    4441.5746    -11568.84    130.97797   -999.26146   -856.36608    -519.3456    233.13403   -356.30841    7.9640503      46.7237      46.7237      46.7237           90           90           90     102002.7   -791.65771 
  503000       502496   -6459.2835    665.60944   -7124.8929    4415.8149   -11540.708    128.77634   -423.31936    -729.3504   -1015.4305   -25.514481    20.899248    -31.95198      46.7237      46.7237      46.7237           90           90           90     102002.7   -722.70009 
  504000       503496   -6528.8213    636.62785   -7165.4491    4387.0249   -11552.474    123.16923   -977.32811   -450.27928   -890.22194    203.70092    53.683973     76.70418      46.7237      46.7237      46.7237           90           90           90     102002.7   -772.60978 
  505000       504496   -6454.6015    681.73597   -7136.3375    4427.8844   -11564.222    131.89636      -991.88   -699.83522   -958.30755   -201.42853   -188.04466   -246.35049      46.7237      46.7237      46.7237           90           90           90     102002.7   -883.34092 
  506000       505496   -6463.2331    677.51192   -7140.7451    4411.2088   -11551.954    131.07913   -633.61777   -498.60759   -832.55533   -53.819008   -204.96322   -118.26524      46.7237      46.7237      46.7237           90           90           90     102002.7    -654.9269 
  507000       506496   -6476.7435    673.16685   -7149.9103    4400.5562   -11550.466    130.23848   -1018.0124   -787.54841   -1212.0022   -66.167389    161.04089   -124.96629      46.7237      46.7237      46.7237           90           90           90     102002.7   -1005.8543 
  508000       507496    -6456.614    662.03614   -7118.6502    4430.9936   -11549.644    128.08501   -909.74643   -1040.8701   -826.67111   -2.0977149    39.554157    29.735577      46.7237      46.7237      46.7237           90           90           90     102002.7   -925.76254 
  509000       508496   -6428.3875    690.81487   -7119.2023    4441.5226   -11560.725    133.65287   -1129.4747   -876.10206   -982.52484   -408.78991    139.65903    162.02871      46.7237      46.7237      46.7237           90           90           90     102002.7   -996.03387 
  510000       509496   -6454.7858    686.12442   -7140.9102    4417.7036   -11558.614     132.7454   -786.12137   -562.19053   -1134.8687    86.221661    51.297446   -37.764116      46.7237      46.7237      46.7237           90           90           90     102002.7   -827.72687 
  511000       510496   -6493.1848     654.4465   -7147.6313    4399.4276   -11547.059    126.61663   -667.30643   -846.28016   -250.94715    146.11855     1.668506    124.65001      46.7237      46.7237      46.7237           90           90           90     102002.7   -588.17792 
  512000       511496   -6455.5727    681.60244   -7137.1751    4399.6734   -11536.849    131.87053   -698.71494   -436.82234   -1243.3365   -130.12041    32.017583    -98.72088      46.7237      46.7237      46.7237           90           90           90     102002.7   -792.95792 
  513000       512496   -6422.3579    697.28884   -7119.6467    4438.6355   -11558.282     134.9054   -1206.1719   -858.69135   -539.70037    35.989735    17.411439    125.98469      46.7237      46.7237      46.7237           90           90           90     102002.7   -868.18787 
  514000       513496   -6483.7654    647.33772   -7131.1031    4414.2833   -11545.386    125.24129   -743.32666   -123.45166   -677.66826   -99.711612   -165.31894   -115.35853      46.7237      46.7237      46.7237           90           90           90     102002.7   -514.81553 
  515000       514496   -6461.9084    672.73179   -7134.6402    4413.9318   -11548.572    130.15431   -611.72524   -259.64533   -492.46166    5.8646886    104.11225    22.346124      46.7237      46.7237      46.7237           90           90           90     102002.7   -454.61074 
  516000       515496    -6474.738    669.60007    -7144.338    4416.1001   -11560.438    129.54841   -223.82387   -400.15755   -749.08672    -49.60602   -179.10095     -262.997      46.7237      46.7237      46.7237           90           90           90     102002.7   -457.68938 
  517000       516496    -6432.886    683.36255   -7116.2485    4442.0395   -11558.288    132.21106   -1016.3518   -869.83984   -1017.0786   -232.06335    55.217344   -21.344828      46.7237      46.7237      46.7237           90           90           90     102002.7   -967.75675 
  518000       517496   -6487.0626    674.76268   -7161.8252    4400.9787   -11562.804    130.54723   -569.24032   -652.91653   -457.88649   -159.39847    118.45218    153.51792      46.7237      46.7237      46.7237           90           90           90     102002.7   -560.01445 
  519000       518496   -6465.9056    673.93107   -7139.8367    4401.6706   -11541.507    130.38634    -1061.981   -376.34788   -848.99835   -109.71126   -239.33597   -133.61852      46.7237      46.7237      46.7237           90           90           90     102002.7    -762.4424 
  520000       519496   -6477.0474    660.22595   -7137.2734    4404.5891   -11541.862    127.73479   -821.33484    -337.6808   -370.44738    219.12247    30.172405    7.7467089      46.7237      46.7237      46.7237           90           90           90     102002.7   -509.82101 
  521000       520496   -6473.5916    659.92566   -7133.5172     4425.216   -11558.733    127.67669   -474.45647   -1063.9135   -1344.5219    152.71531      92.9371    40.942055      46.7237      46.7237      46.7237           90           90           90     102002.7   -960.96396 
  522000       521496   -6436.2152     677.3629   -7113.5781    4420.5628   -11534.141     131.0503    -879.7238   -769.93959   -286.11314   -79.950397    166.85019   -113.09466      46.7237      46.7237      46.7237           90           90           90     102002.7   -645.25884 
  523000       522496   -6459.9391    669.58357   -7129.5227    4441.5203   -11571.043    129.54522   -1049.0404   -596.84738    -838.9426   -69.034229    84.673155    43.545411      46.7237      46.7237      46.7237           90           90           90     102002.7   -828.27681 
  524000       523496   -6476.5031    677.98147   -7154.4846    4400.3087   -11554.793    131.16997   -660.91337   -845.80573   -847.89208    90.960302   -76.568897   -43.752961      46.7237      46.7237      46.7237           90           90           90     102002.7   -784.87039 
  525000       524496   -6454.6473    680.80606   -7135.4533    4414.1458   -11549.599    131.71645   -816.17902   -639.14451   -619.81349   -19.652032   -101.17588    80.639726      46.7237      46.7237      46.7237           90           90           90     102002.7   -691.71234 
  526000       525496   -6480.9638    673.70241   -7154.6662    4396.0043    -11550.67     130.3421   -712.74511    -599.1367    -499.7764   -33.611956    92.255799    -53.82101      46.7237      46.7237      46.7237           90           90           90     102002.7   -603.88607 
  527000       526496   -6455.1689    666.46897   -7121.6379    4429.5055   -11551.143    128.94263   -638.68294   -1096.4988   -1185.5887   -132.70638    152.74757    15.602466      46.7237      46.7237      46.7237           90           90           90     102002.7   -973.59017 
  528000       527496   -6423.9747    700.66304   -7124.6378    4435.5629   -11560.201    135.55821   -657.72857   -866.17605    -843.7141   -237.86345    37.149623     66.77458      46.7237      46.7237      46.7237           90           90           90     102002.7   -789.20624 
  529000       528496   -6481.4145    655.59327   -7137.0078    4427.2067   -11564.215     126.8385   -867.46412   -999.14868   -707.89963   -84.639127   -63.076084   -26.650689      46.7237      46.7237      46.7237           90           90           90     102002.7   -858.17081 
  530000       529496   -6456.2247    669.31462   -7125.5393     4424.521    -11550.06    129.49319   -1144.8341     -1121.79   -1363.2105    92.237492    213.82573   -144.13031      46.7237      46.7237      46.7237           90           90           90     102002.7   -1209.9449 
  531000       530496   -6492.1103    646.67773    -7138.788    4406.5853   -11545.373     125.1136   -1349.0264     -1206.38   -1251.4363    35.098724   -34.181798   -22.549245      46.7237      46.7237      46.7237           90           90           90     102002.7   -1268.9475 
  532000       531496   -6483.3623    661.11728   -7144.4796    4416.5999    -11561.08    127.90724   -690.72765   -755.58163   -641.72973   -74.458655   -134.45543   -188.67401      46.7237      46.7237      46.7237           90           90           90     102002.7     -696.013 
  533000       532496   -6461.4521    689.15986    -7150.612    4413.0496   -11563.662    133.33267    -777.1341   -1049.3391   -470.85405   -55.955757    208.80323    370.38704      46.7237      46.7237      46.7237           90           90           90     102002.7   -765.77576 
  534000       533496   -6469.3467    664.60972   -7133.9564     4417.808   -11551.764    128.58292   -1091.2605   -701.40214    -872.0553    275.37736    -130.9956    361.80217      46.7237      46.7237      46.7237           90           90           90     102002.7   -888.23931 
  535000       534496   -6454.3903    680.28528   -7134.6756     4417.027   -11551.703    131.61569    -462.9149   -735.04909   -1209.7266    7.4216206    167.79266    119.33752      46.7237      46.7237      46.7237           90           90           90     102002.7   -802.56353 
  536000       535496   -6486.2028    669.75724     -7155.96    4411.2211   -11567.181    129.57882   -1048.3939   -1003.1913   -878.90733   -64.984426    8.3394389    113.97097      46.7237      46.7237      46.7237           90           90           90     102002.7   -976.83086 
  537000       536496   -6468.9057    657.97078   -7126.8765    4429.7163   -11556.593    127.29848   -641.72346   -726.47154   -737.28743    82.835032    56.588826   -72.799375      46.7237      46.7237      46.7237           90           90           90     102002.7   -701.82748 
  538000       537496   -6444.7852    673.42993   -7118.2151    4437.5361   -11555.751    130.28938    -880.7342   -1063.5753   -1017.5107    147.98381    119.28482    -376.4061      46.7237      46.7237      46.7237           90           90           90     102002.7   -987.27342 
  539000       538496   -6463.4489    680.99618   -7144.4451    4402.0097   -11546.455    131.75323   -854.53389   -793.17563   -749.24812   -89.751894   -37.352459    8.6950382      46.7237      46.7237      46.7237           90           90           90     102002.7   -798.98588 
  540000       539496    -6455.421    672.10616   -7127.5272    4400.9582   -11528.485    130.03327   -336.07779   -1247.6858   -628.87876    -27.50168     94.68593   -285.67714      46.7237      46.7237      46.7237           90           90           90     102002.7   -737.54744 
  541000       540496   -6463.8308    670.39137   -7134.2222    4395.0287   -11529.251    129.70151   -600.04196   -793.67386   -565.48788    275.06749    49.926258    114.33122      46.7237      46.7237      46.7237           90           90           90     102002.7    -653.0679 
  542000       541496   -6444.0903    670.03331   -7114.1237    4423.8966    -11538.02    129.63223    -611.8669    -709.7878   -788.81559    205.91555    -73.27612   -211.20172      46.7237      46.7237      46.7237           90           90           90     102002.7    -703.4901 
  543000       542496   -6462.6015    674.33708   -7136.9385    4420.1716    -11557.11    130.46489   -747.58732   -594.30421   -193.68143    48.742967      133.351    5.8728231      46.7237      46.7237      46.7237           90           90           90     102002.7   -511.85765 
  544000       543496   -6442.8791    685.67471   -7128.5538    4416.5374   -11545.091    132.65839   -962.29555   -840.28815    -1308.432    135.14473    46.251585    100.80041      46.7237      46.7237      46.7237           90           90           90     102002.7   -1037.0052 
  545000       544496   -6451.2624    676.65097   -7127.9134    4424.9218   -11552.835    130.91256    -531.1454   -1455.2748   -651.06339   -8.6928784    62.622539    154.03007      46.7237      46.7237      46.7237           90           90           90     102002.7    -879.1612 
  546000       545496   -6474.2852     679.8088    -7154.094    4401.4529   -11555.547    131.52351   -1032.1639   -582.78776    -1235.236   -119.66652    117.03536   -85.703981      46.7237      46.7237      46.7237           90           90           90     102002.7   -950.06257 
  547000       546496   -6453.6402    684.55068   -7138.1909    4418.4736   -11556.664    132.44093   -948.52812   -1230.8491   -631.00489      387.208    28.126842   -39.859867      46.7237      46.7237      46.7237           90           90           90     102002.7   -936.79402 
  548000       547496   -6478.9649    660.01923   -7138.9842    4414.5194   -11553.504    127.69479   -816.55892   -1181.0184   -846.68255    59.427283   -239.89758    -50.02243      46.7237      46.7237      46.7237           90           90           90     102002.7   -948.08663 
  549000       548496   -6451.8768     665.3223   -7117.1991    4432.6271   -11549.826    128.72079   -1433.7841   -1257.3372   -902.82477    -224.8157    364.68186    52.210436      46.7237      46.7237      46.7237           90           90           90     102002.7    -1197.982 
  550000       549496   -6458.5267    694.70668   -7153.2334     4403.354   -11556.587    134.40582   -838.30014   -491.34354   -582.28692    95.123615   -96.057085    123.06478      46.7237      46.7237      46.7237           90           90           90     102002.7    -637.3102 
  551000       550496   -6473.7305    670.29818   -7144.0286    4406.9829   -11551.012    129.68348   -805.52826   -642.23565   -411.26432    210.47557   -178.70225    6.5916339      46.7237      46.7237      46.7237           90           90           90     102002.7   -619.67608 
  552000       551496   -6440.2871    673.84138   -7114.1285    4447.6478   -11561.776    130.36898   -603.23722   -290.21967   -1187.5283   -257.85472   -34.072146    183.03472      46.7237      46.7237      46.7237           90           90           90     102002.7   -693.66173 
  553000       552496   -6467.4663    666.56756   -7134.0338    4408.5235   -11542.557    128.96171   -953.98814   -701.33312   -564.75905    189.25814    89.774738    187.80303      46.7237      46.7237      46.7237           90           90           90     102002.7   -740.02677 
  554000       553496   -6480.9795    662.04635   -7143.0259    4415.8443    -11558.87    128.08698   -841.05532   -662.68644   -528.61924   -87.433401    32.138082    282.77361      46.7237      46.7237      46.7237           90           90           90     102002.7   -677.45367 
  555000       554496   -6452.6015    691.74964   -7144.3511    4398.9769   -11543.328    133.83372   -676.02014   -929.27595   -944.67403   -182.41876    100.21386    21.090254      46.7237      46.7237      46.7237           90           90           90     102002.7   -849.99004 
[...]
  936000       935496   -6456.0093    678.84814   -7134.8574    4410.4113   -11545.269    131.33765   -445.44355   -1094.1075   -494.21927    375.55869   -292.25334    162.26079      46.7237      46.7237      46.7237           90           90           90     102002.7   -677.92344 
  937000       936496    -6482.675    670.95054   -7153.6256    4394.6188   -11548.244    129.80969   -804.17469   -738.07078    -1069.981     15.23709    227.08524     71.88024      46.7237      46.7237      46.7237           90           90           90     102002.7   -870.74215 
  938000       937496   -6499.3254    663.98297   -7163.3084    4394.0313    -11557.34    128.46167   -1017.1718   -847.30491   -947.74929    123.73503    30.997876   -257.90398      46.7237      46.7237      46.7237           90           90           90     102002.7   -937.40866 
  939000       938496    -6456.777    678.95253   -7135.7295    4415.1544   -11550.884    131.35785   -1095.9002   -245.48561   -265.47439  -0.30098992    127.98191    -152.7654      46.7237      46.7237      46.7237           90           90           90     102002.7   -535.62007 
  940000       939496   -6483.6919    673.82836   -7157.5202    4397.6208   -11555.141    130.36646   -649.34667    -733.8313   -992.78789    114.27304   -127.19833    93.689879      46.7237      46.7237      46.7237           90           90           90     102002.7   -791.98862 
  941000       940496   -6461.8944    674.91481   -7136.8092    4430.5873   -11567.397    130.57666   -1310.3469   -621.61481   -649.02731    144.00705    55.890081   -164.65258      46.7237      46.7237      46.7237           90           90           90     102002.7   -860.32968 
  942000       941496   -6427.8315    703.65952    -7131.491    4428.5276   -11560.019    136.13794   -1285.5865   -777.84328   -632.64544    133.21455   -74.451799    -58.72841      46.7237      46.7237      46.7237           90           90           90     102002.7   -898.69173 
  943000       942496   -6481.8672    652.44805   -7134.3152    4400.5001   -11534.815    126.22999   -566.03484   -709.30605     -893.128    46.664233   -258.43062    50.485682      46.7237      46.7237      46.7237           90           90           90     102002.7   -722.82296 
  944000       943496   -6451.5275    678.18617   -7129.7137    4430.9383   -11560.652    131.20958   -1125.7451    -681.3362   -559.93371   -69.495281    80.370094    92.560505      46.7237      46.7237      46.7237           90           90           90     102002.7     -789.005 
  945000       944496   -6487.6757    664.43234   -7152.1081    4388.2913   -11540.399     128.5486   -715.03107   -1327.7957   -1317.9703     76.94498   -20.498836   -148.60541      46.7237      46.7237      46.7237           90           90           90     102002.7   -1120.2657 
  946000       945496   -6479.3172     658.0951   -7137.4123    4429.2013   -11566.614    127.32253   -957.08919   -811.13428    -226.4302   -36.730148   -171.45535   -62.389187      46.7237      46.7237      46.7237           90           90           90     102002.7   -664.88456 
  947000       946496   -6451.8932    673.97588   -7125.8691    4408.3635   -11534.233    130.39501   -756.63143   -971.15828   -745.86773   -205.91372    4.5350385    217.79636      46.7237      46.7237      46.7237           90           90           90     102002.7   -824.55248 
  948000       947496   -6470.7923     656.1867    -7126.979    4420.4103   -11547.389    126.95331   -890.58526   -1042.5896   -987.51136    165.93443    44.897646   -81.452739      46.7237      46.7237      46.7237           90           90           90     102002.7   -973.56206 
  949000       948496   -6487.8228    676.30519    -7164.128    4389.6992   -11553.827    130.84566   -258.53802   -566.89562   -1117.0955    -346.8637    174.91406   -156.91592      46.7237      46.7237      46.7237           90           90           90     102002.7   -647.50971 
  950000       949496   -6460.1754    649.49331   -7109.6687    4445.9204   -11555.589    125.65833   -1006.6849   -935.49571   -628.18035   -292.40502   -54.483813   -118.72034      46.7237      46.7237      46.7237           90           90           90     102002.7   -856.78697 
  951000       950496   -6464.6835    669.08787   -7133.7714    4444.1722   -11577.944    129.44932   -656.86861   -722.35686   -910.47213   -5.6493127   -90.317102   -240.51831      46.7237      46.7237      46.7237           90           90           90     102002.7   -763.23254 
  952000       951496   -6475.6809    672.62936   -7148.3102    4413.2393   -11561.549    130.13449   -841.95348   -857.18726   -936.30695   -111.35827    219.11435    297.81955      46.7237      46.7237      46.7237           90           90           90     102002.7   -878.48256 
  953000       952496   -6436.7347    690.82043   -7127.5551      4434.82   -11562.375    133.65394   -1448.4702   -677.93747   -704.22924    130.05459   -254.94958    35.011072      46.7237      46.7237      46.7237           90           90           90     102002.7   -943.54565 
  954000       953496   -6471.3307     668.4658   -7139.7965     4412.893   -11552.689    129.32896   -716.29794   -959.02002   -639.86713    21.243221    -176.1157   -56.322656      46.7237      46.7237      46.7237           90           90           90     102002.7   -771.72836 
  955000       954496   -6492.6906    660.96836    -7153.659    4412.7503   -11566.409    127.87842   -886.23506   -194.05648   -355.61293   -91.212021    -75.93343    73.449971      46.7237      46.7237      46.7237           90           90           90     102002.7   -478.63482 
  956000       955496   -6462.3552    678.33069   -7140.6859    4420.8243    -11561.51    131.23754   -1042.0045   -786.94237   -692.02962    27.170898   -333.31012   -326.45013      46.7237      46.7237      46.7237           90           90           90     102002.7   -840.32548 
  957000       956496   -6436.7637    699.29477   -7136.0585    4415.6976   -11551.756    135.29349   -706.62961   -832.02993   -879.34903   -6.2117871   -145.66352    63.622991      46.7237      46.7237      46.7237           90           90           90     102002.7   -806.00285 
  958000       957496   -6478.7154    668.41335   -7147.1287    4410.1342   -11557.263    129.31882   -756.50057   -149.92899   -841.98556    14.608974   -21.661273    10.885776      46.7237      46.7237      46.7237           90           90           90     102002.7   -582.80504 
  959000       958496   -6492.0643    648.72566   -7140.7899    4416.1293   -11556.919    125.50981   -875.40572    -1586.014   -1484.8286    36.569643    136.59917    91.741128      46.7237      46.7237      46.7237           90           90           90     102002.7   -1315.4161 
  960000       959496   -6465.9907    659.28007   -7125.2708    4422.0955   -11547.366    127.55179   -626.97381   -650.84004   -833.15963    145.24824   -79.774121    -219.5477      46.7237      46.7237      46.7237           90           90           90     102002.7   -703.65783 
  961000       960496   -6482.0398    658.41693   -7140.4567    4430.5617   -11571.018     127.3848   -1086.5645    -763.5822   -447.34209   -9.8402679   -82.931464   -106.53078      46.7237      46.7237      46.7237           90           90           90     102002.7   -765.82961 
  962000       961496   -6458.8324    679.30585   -7138.1383    4404.3709   -11542.509     131.4262   -642.63044   -664.24827   -457.92797   -219.98456   -180.76968     78.40054      46.7237      46.7237      46.7237           90           90           90     102002.7   -588.26889 
  963000       962496   -6495.2891    654.19689    -7149.486     4395.667   -11545.153    126.56834   -528.45664   -594.29392   -654.31733   -339.64947   -305.97622   -217.57722      46.7237      46.7237      46.7237           90           90           90     102002.7   -592.35596 
  964000       963496   -6458.8718    678.00856   -7136.8804    4409.5177   -11546.398    131.17521   -804.89751   -606.81407   -166.42094   -301.76987   -209.89109   -120.31244      46.7237      46.7237      46.7237           90           90           90     102002.7   -526.04418 
  965000       964496   -6479.8393    669.43832   -7149.2776    4405.2197   -11554.497    129.51712   -390.81927   -941.26652   -929.38675   -290.14431    14.775205    187.58859      46.7237      46.7237      46.7237           90           90           90     102002.7   -753.82418 
  966000       965496   -6437.1383     685.0736   -7122.2119    4408.6579    -11530.87     132.5421   -811.97259   -957.84877   -732.95982     136.1297    53.250965   -45.240303      46.7237      46.7237      46.7237           90           90           90     102002.7   -834.26039 
  967000       966496   -6454.9553    684.07802   -7139.0333    4407.3943   -11546.428    132.34948   -649.42383   -598.39676   -1054.6346    305.51026   -131.63194   -86.808299      46.7237      46.7237      46.7237           90           90           90     102002.7   -767.48506 
  968000       967496   -6493.2796    641.43562   -7134.7152    4418.8164   -11553.532     124.0994   -618.81695   -640.08534   -1025.5511   -8.4672973    -156.6658    124.76299      46.7237      46.7237      46.7237           90           90           90     102002.7   -761.48448 
  969000       968496   -6476.6766    666.17005   -7142.8467    4397.3942   -11540.241     128.8848   -518.37371    -369.3702   -582.95014     28.80777    34.809058   -116.37149      46.7237      46.7237      46.7237           90           90           90     102002.7   -490.23135 
  970000       969496   -6455.5984    670.63866    -7126.237     4401.617   -11527.854    129.74935   -790.56532   -950.29491   -555.55051   -53.221363    76.247839    35.082408      46.7237      46.7237      46.7237           90           90           90     102002.7   -765.47025 
  971000       970496   -6441.7582    685.10397   -7126.8621    4410.4584   -11537.321    132.54797   -498.74735   -752.35906   -1098.5701   -184.90073   -147.93093    72.586007      46.7237      46.7237      46.7237           90           90           90     102002.7   -783.22551 
  972000       971496   -6470.5709    661.42189   -7131.9928     4427.676   -11559.669    127.96617   -472.15738   -1084.3586   -413.79243   -178.73441    219.91209   -96.611205      46.7237      46.7237      46.7237           90           90           90     102002.7   -656.76946 
  973000       972496   -6491.5047    645.82086   -7137.3256    4420.4026   -11557.728    124.94782    -872.0972   -726.85065   -792.04575    34.664954    152.78809    231.45011      46.7237      46.7237      46.7237           90           90           90     102002.7   -796.99786 
  974000       973496   -6459.9881    676.75486    -7136.743    4419.5135   -11556.257    130.93266   -513.16781     -767.405   -620.90198    75.300245    135.31157    63.365697      46.7237      46.7237      46.7237           90           90           90     102002.7   -633.82493 
  975000       974496   -6492.2033    653.52083   -7145.7241    4411.2856    -11557.01    126.43754   -452.17856   -1041.9865   -628.12792    139.41329     150.1091   -19.584673      46.7237      46.7237      46.7237           90           90           90     102002.7   -707.43098 
  976000       975496   -6448.0767    678.91621   -7126.9929    4423.4569    -11550.45    131.35082   -767.98215   -512.34442   -503.57162    38.613443   -53.159412   -34.205554      46.7237      46.7237      46.7237           90           90           90     102002.7   -594.63273 
  977000       976496   -6448.9704    682.43448   -7131.4049    4427.1028   -11558.508     132.0315   -231.89258   -853.60374   -580.34843    192.02465   -127.14132    96.200484      46.7237      46.7237      46.7237           90           90           90     102002.7   -555.28158 
  978000       977496   -6484.5046     666.8401   -7151.3447    4393.2298   -11544.574    129.01444   -587.38406   -534.26465   -357.91801    49.637462   -31.140102   -110.24298      46.7237      46.7237      46.7237           90           90           90     102002.7   -493.18891 
  979000       978496   -6477.5847    660.72139   -7138.3061    4424.8672   -11563.173    127.83064    -874.2853   -434.27289   -424.07885    441.36891    103.03771    -30.34403      46.7237      46.7237      46.7237           90           90           90     102002.7   -577.54568 
  980000       979496   -6453.8308    679.84924   -7133.6801    4418.1706   -11551.851    131.53133   -203.15661   -582.15528   -302.77989   -68.226891    312.53609    117.01327      46.7237      46.7237      46.7237           90           90           90     102002.7   -362.69726 
  981000       980496   -6473.3622     686.8722   -7160.2344    4377.7913   -11538.026    132.89007   -350.80804   -651.32209   -755.92916     94.41313   -214.08597   -248.70079      46.7237      46.7237      46.7237           90           90           90     102002.7   -586.01976 
  982000       981496   -6442.5062    678.46686   -7120.9731    4431.4362   -11552.409    131.26388   -838.39367   -1039.4069   -611.96305   -120.59557   -383.66024    122.23458      46.7237      46.7237      46.7237           90           90           90     102002.7   -829.92121 
  983000       982496   -6454.3953    678.81003   -7133.2053    4430.1452   -11563.351    131.33028   -257.79822   -852.21458   -939.34938   -43.930608    63.331443   -10.375219      46.7237      46.7237      46.7237           90           90           90     102002.7   -683.12073 
  984000       983496   -6501.7419    666.51747   -7168.2594    4367.1596   -11535.419    128.95202    -49.42008   -227.19818    -464.2808    82.902462   -175.41933    -112.6234      46.7237      46.7237      46.7237           90           90           90     102002.7   -246.96635 
  985000       984496   -6449.1485     667.9235    -7117.072    4421.4224   -11538.494    129.22404   -1478.6224    152.03748   -318.61897    -16.79216   -163.59737   -80.504929      46.7237      46.7237      46.7237           90           90           90     102002.7   -548.40129 
  986000       985496   -6492.9002     648.4716   -7141.3718    4423.9805   -11565.352    125.46066   -416.30652   -605.26305   -888.76842    274.79998   -2.4004315    313.93148      46.7237      46.7237      46.7237           90           90           90     102002.7   -636.77933 
  987000       986496   -6458.4233     681.0239   -7139.4472    4420.8248   -11560.272     131.7586    -320.2353   -488.07232   -858.05341    89.914716   -214.38976   -159.21348      46.7237      46.7237      46.7237           90           90           90     102002.7   -555.45368 
  988000       987496   -6480.6019    669.86925   -7150.4711    4400.4044   -11550.875    129.60049   -696.96065   -777.63408   -316.58323    170.75697   -182.47227   -257.15605      46.7237      46.7237      46.7237           90           90           90     102002.7   -597.05932 
  989000       988496   -6457.3938    681.08764   -7138.4814    4399.1899   -11537.671    131.77093   -930.50691    -687.0426   -1094.7305   -219.05884    8.1517519    221.04584      46.7237      46.7237      46.7237           90           90           90     102002.7   -904.09333 
  990000       989496   -6444.6318    680.96252   -7125.5943     4422.649   -11548.243    131.74672   -411.55682   -1371.4288   -1245.3157   -123.09824    104.32262     138.0282      46.7237      46.7237      46.7237           90           90           90     102002.7   -1009.4338 
  991000       990496    -6472.277    672.19232   -7144.4693    4396.1093   -11540.579    130.04994   -948.74614    -1307.129   -560.19068   -126.40041   -95.396976    112.94499      46.7237      46.7237      46.7237           90           90           90     102002.7   -938.68861 
  992000       991496   -6446.5942    703.58259   -7150.1768    4396.4836    -11546.66    136.12306    -1229.184   -648.36047   -728.64665   -21.909726     -26.0403    81.909543      46.7237      46.7237      46.7237           90           90           90     102002.7   -868.73036 
  993000       992496   -6429.4715    692.74346    -7122.215    4424.0157   -11546.231    134.02599   -478.61652   -1171.6866   -561.40197   -165.66445   -140.55447    102.15108      46.7237      46.7237      46.7237           90           90           90     102002.7   -737.23504 
  994000       993496   -6482.0494    649.34185   -7131.3912    4424.7563   -11556.147    125.62903   -835.83522    -1331.574   -551.34802    142.03589    85.849553   -32.137499      46.7237      46.7237      46.7237           90           90           90     102002.7   -906.25242 
  995000       994496   -6464.6281    665.97343   -7130.6015    4417.5113   -11548.113    128.84676   -1155.8746   -960.43019   -890.13388    347.04508    208.85271   -133.18508      46.7237      46.7237      46.7237           90           90           90     102002.7   -1002.1462 
  996000       995496   -6475.6386    658.14398   -7133.7826    4431.0443   -11564.827    127.33199   -782.80444   -689.19769   -244.05027    83.883134    18.335763    93.756767      46.7237      46.7237      46.7237           90           90           90     102002.7   -572.01747 
  997000       996496   -6469.8302    671.45719   -7141.2874    4419.6765   -11560.964    129.90771   -368.75218   -899.89265   -398.94361      87.2028    308.80304   -158.16749      46.7237      46.7237      46.7237           90           90           90     102002.7   -555.86281 
  998000       997496   -6459.6702    677.80094   -7137.4711    4404.2502   -11541.721    131.13505   -818.95749   -439.07436     -452.153    259.54414    369.31539    58.553914      46.7237      46.7237      46.7237           90           90           90     102002.7   -570.06161 
  999000       998496   -6473.9043    676.36652   -7150.2708    4402.0218   -11552.293    130.85753   -966.07394   -647.92881   -377.64076   -79.443112   -99.146151    111.26936      46.7237      46.7237      46.7237           90           90           90     102002.7   -663.88117 
 1000000       999496   -6483.7818    660.65501   -7144.4368    4419.7513   -11564.188     127.8178   -796.83034   -1007.5922   -573.81552    10.319788   -103.55723    20.013838      46.7237      46.7237      46.7237           90           90           90     102002.7   -792.74602 
 1000504      1000000   -6469.0351    666.70953   -7135.7446    4417.3569   -11553.101    128.98918   -1150.3535   -789.76792   -989.59242   -224.91548   -95.635232   -125.28936      46.7237      46.7237      46.7237           90           90           90     102002.7   -976.57129 
Loop time of 1397.06 on 16 procs for 500000 steps with 1735 atoms

Performance: 30.922 ns/day, 0.776 hours/ns, 357.894 timesteps/s
99.8% CPU use with 16 MPI tasks x no OpenMP threads

MPI task timing breakdown:
Section |  min time  |  avg time  |  max time  |%varavg| %total
---------------------------------------------------------------
Pair    | 618.41     | 769.36     | 930.1      | 359.1 | 55.07
Bond    | 165.13     | 183.2      | 199.28     |  88.8 | 13.11
Neigh   | 4.0991     | 4.1154     | 4.1298     |   0.6 |  0.29
Comm    | 260.18     | 412.69     | 555.87     | 447.9 | 29.54
Output  | 0.096483   | 0.10138    | 0.10177    |   0.4 |  0.01
Modify  | 21.425     | 22.324     | 22.925     |   9.1 |  1.60
Other   |            | 5.28       |            |       |  0.38

Nlocal:    108.438 ave 138 max 86 min
Histogram: 3 3 1 0 2 2 2 1 0 2
Nghost:    2219.31 ave 2241 max 2189 min
Histogram: 2 1 0 1 3 1 1 1 2 4
Neighs:    11444.1 ave 16867 max 7808 min
Histogram: 3 1 1 4 2 2 0 1 0 2

Total # of neighbors = 183106
Ave neighs/atom = 105.537
Ave special neighs/atom = 6.63977
Neighbor list builds = 3582
Dangerous builds = 0
Total wall time: 0:44:32
