LAMMPS (30 Mar 2018)
Reading data file ...
  orthogonal box = (0 0 0) to (46.7237 46.7237 46.7237)
  2 by 3 by 4 MPI processor grid
  reading atoms ...
  3120 atoms
  scanning bonds ...
  5 = max bonds/atom
  scanning angles ...
  10 = max angles/atom
  scanning dihedrals ...
  32 = max dihedrals/atom
  scanning impropers ...
  3 = max impropers/atom
  reading bonds ...
  2064 bonds
  reading angles ...
  3696 angles
  reading dihedrals ...
  6240 dihedrals
  reading impropers ...
  1008 impropers
Finding 1-2 1-3 1-4 neighbors ...
  special bond factors lj:   0          0          0         
  special bond factors coul: 0          0          0         
  5 = max # of 1-2 neighbors
  8 = max # of 1-3 neighbors
  20 = max # of 1-4 neighbors
  19 = max # of special neighbors
Finding 1-2 1-3 1-4 neighbors ...
  special bond factors lj:   0          0          1         
  special bond factors coul: 1          1          1         
  5 = max # of 1-2 neighbors
  8 = max # of 1-3 neighbors
  19 = max # of special neighbors
WARNING: Using 'neigh_modify every 1 delay 0 check yes' setting during minimization (../min.cpp:168)
Neighbor list info ...
  update every 1 steps, delay 0 steps, check yes
  max neighbors/atom: 2000, page size: 100000
  master list distance cutoff = 16
  ghost atom cutoff = 16
  binsize = 8, bins = 6 6 6
  3 neighbor lists, perpetual/occasional/extra = 3 0 0
  (1) pair buck6d/coul/gauss/dsf, perpetual, skip from (3)
      attributes: half, newton on
      pair build: skip
      stencil: none
      bin: none
  (2) pair lj/cut, perpetual, skip from (3)
      attributes: half, newton on
      pair build: skip
      stencil: none
      bin: none
  (3) neighbor class addition, perpetual
      attributes: half, newton on
      pair build: half/bin/newton
      stencil: half/bin/3d/newton
      bin: standard
Setting up cg style minimization ...
  Unit style    : real
  Current step  : 0
WARNING: Inconsistent image flags (../domain.cpp:786)
Per MPI rank memory allocation (min/avg/max) = 22.97 | 23.34 | 24.52 Mbytes
Step Temp E_pair E_mol TotEng Press 
       0            0   -15182.032    6482.8914   -8699.1407    5900.1748 
     500            0   -15592.357    3748.4476   -11843.909   -2093.5295 
Loop time of 1.74263 on 24 procs for 500 steps with 3120 atoms

97.6% CPU use with 24 MPI tasks x no OpenMP threads

Minimization stats:
  Stopping criterion = max force evaluations
  Energy initial, next-to-last, final = 
        -8699.14068099     -11843.8128226     -11843.9092897
  Force two-norm initial, final = 2575.1 14.2752
  Force max component initial, final = 152.063 1.87284
  Final line search alpha, max atom move = 0.0077722 0.0145561
  Iterations, force evaluations = 500 1000

MPI task timing breakdown:
Section |  min time  |  avg time  |  max time  |%varavg| %total
---------------------------------------------------------------
Pair    | 0.86638    | 1.0834     | 1.2496     |   8.8 | 62.17
Bond    | 0.12245    | 0.15745    | 0.21836    |   5.5 |  9.04
Neigh   | 0.014424   | 0.014956   | 0.01542    |   0.3 |  0.86
Comm    | 0.29206    | 0.45007    | 0.67616    |  14.1 | 25.83
Output  | 0          | 0          | 0          |   0.0 |  0.00
Modify  | 0          | 0          | 0          |   0.0 |  0.00
Other   |            | 0.03674    |            |       |  2.11

Nlocal:    130 ave 148 max 114 min
Histogram: 2 3 3 0 2 6 5 1 0 2
Nghost:    3473.46 ave 3642 max 3373 min
Histogram: 9 7 0 0 0 0 0 0 0 8
Neighs:    7647.62 ave 10115 max 4524 min
Histogram: 1 2 0 6 2 1 3 1 7 1

Total # of neighbors = 183543
Ave neighs/atom = 58.8279
Ave special neighs/atom = 3.69231
Neighbor list builds = 10
Dangerous builds = 0
Neighbor list info ...
  update every 1 steps, delay 10 steps, check yes
  max neighbors/atom: 2000, page size: 100000
  master list distance cutoff = 16
  ghost atom cutoff = 16
  binsize = 8, bins = 6 6 6
  3 neighbor lists, perpetual/occasional/extra = 3 0 0
  (1) pair buck6d/coul/gauss/dsf, perpetual, skip from (3)
      attributes: half, newton on
      pair build: skip
      stencil: none
      bin: none
  (2) pair lj/cut, perpetual, skip from (3)
      attributes: half, newton on
      pair build: skip
      stencil: none
      bin: none
  (3) neighbor class addition, perpetual
      attributes: half, newton on
      pair build: half/bin/newton
      stencil: half/bin/3d/newton
      bin: standard
Setting up Verlet run ...
  Unit style    : real
  Current step  : 500
  Time step     : 1
WARNING: Inconsistent image flags (../domain.cpp:786)
Per MPI rank memory allocation (min/avg/max) = 22.62 | 22.75 | 23.4 Mbytes
Step Temp PotEng TotEng Press Volume Lx Ly Lz 
     500          110   -11843.909   -10821.223   -1635.2151     102002.7      46.7237      46.7237      46.7237 
    1000    94.141129   -11008.405   -10133.161   -459.55827     102002.7      46.7237      46.7237      46.7237 
    2000    110.49055   -10868.275   -9841.0287    -502.5538     102002.7      46.7237      46.7237      46.7237 
    3000    111.42738   -10916.988   -9881.0309   -485.88918     102002.7      46.7237      46.7237      46.7237 
    4000    109.46432   -10916.798   -9899.0919   -409.16761     102002.7      46.7237      46.7237      46.7237 
    5000    108.65249   -10894.096   -9883.9382   -543.21648     102002.7      46.7237      46.7237      46.7237 
    6000    112.61139   -10878.404   -9831.4397   -352.14333     102002.7      46.7237      46.7237      46.7237 
    7000    111.22174   -10870.682   -9836.6369    -985.6808     102002.7      46.7237      46.7237      46.7237 
    8000    112.20559   -10864.407   -9821.2148   -502.43484     102002.7      46.7237      46.7237      46.7237 
    9000    112.53436   -10871.558   -9825.3099   -553.89731     102002.7      46.7237      46.7237      46.7237 
   10000    109.86239   -10890.431   -9869.0241   -757.94417     102002.7      46.7237      46.7237      46.7237 
   11000    110.78257   -10889.339   -9859.3773   -567.54176     102002.7      46.7237      46.7237      46.7237 
   12000    109.03446    -10877.46    -9863.751   -666.01105     102002.7      46.7237      46.7237      46.7237 
   13000    106.06789   -10873.638   -9887.5096   -610.07415     102002.7      46.7237      46.7237      46.7237 
   14000    108.93606   -10839.539   -9826.7447   -424.22871     102002.7      46.7237      46.7237      46.7237 
   15000    108.86675   -10894.209   -9882.0592   -726.28695     102002.7      46.7237      46.7237      46.7237 
   16000    113.41302   -10861.458   -9807.0403    -352.1846     102002.7      46.7237      46.7237      46.7237 
   17000    113.18258   -10892.255   -9839.9796   -551.46351     102002.7      46.7237      46.7237      46.7237 
   18000    110.97492   -10870.098   -9838.3481   -549.15702     102002.7      46.7237      46.7237      46.7237 
   19000    109.44461   -10878.389   -9860.8659   -637.56682     102002.7      46.7237      46.7237      46.7237 
   20000    107.55898   -10901.606   -9901.6139     -680.127     102002.7      46.7237      46.7237      46.7237 
   21000    111.24327   -10866.464   -9832.2194    -214.1331     102002.7      46.7237      46.7237      46.7237 
   22000    109.96112   -10859.031   -9836.7067   -548.88156     102002.7      46.7237      46.7237      46.7237 
   23000    110.76822   -10842.761   -9812.9323   -329.63179     102002.7      46.7237      46.7237      46.7237 
   24000    106.89782    -10885.04   -9891.1958   -627.64889     102002.7      46.7237      46.7237      46.7237 
   25000     110.7069   -10872.637   -9843.3791   -392.35099     102002.7      46.7237      46.7237      46.7237 
   26000    109.10627   -10855.409   -9841.0325   -759.16178     102002.7      46.7237      46.7237      46.7237 
   27000    109.15231   -10858.499   -9843.6941   -343.60584     102002.7      46.7237      46.7237      46.7237 
   28000    110.03051   -10857.362   -9834.3926   -518.50514     102002.7      46.7237      46.7237      46.7237 
   29000     107.3553   -10905.088   -9906.9904   -423.55639     102002.7      46.7237      46.7237      46.7237 
   30000    112.78034   -10898.946   -9850.4103   -410.94338     102002.7      46.7237      46.7237      46.7237 
   31000    109.05273   -10883.282   -9869.4029   -526.98376     102002.7      46.7237      46.7237      46.7237 
   32000    108.40045   -10895.745   -9887.9302   -653.96506     102002.7      46.7237      46.7237      46.7237 
   33000    109.69888   -10898.995    -9879.108   -748.15241     102002.7      46.7237      46.7237      46.7237 
   34000    112.34039   -10881.028   -9836.5831   -426.91607     102002.7      46.7237      46.7237      46.7237 
   35000    109.07197   -10881.674   -9867.6164    -537.9633     102002.7      46.7237      46.7237      46.7237 
   36000    111.69768   -10881.688   -9843.2185   -526.92919     102002.7      46.7237      46.7237      46.7237 
   37000    108.93268   -10898.691   -9885.9281   -312.83761     102002.7      46.7237      46.7237      46.7237 
   38000     111.2992   -10878.997   -9844.2319   -545.80399     102002.7      46.7237      46.7237      46.7237 
   39000    110.55704   -10906.188   -9878.3226   -695.33182     102002.7      46.7237      46.7237      46.7237 
   40000    110.52079   -10848.757   -9821.2286   -501.71529     102002.7      46.7237      46.7237      46.7237 
   41000    109.46895    -10892.14   -9874.3907   -905.44737     102002.7      46.7237      46.7237      46.7237 
   42000    109.35303   -10891.681     -9875.01   -555.52143     102002.7      46.7237      46.7237      46.7237 
   43000    109.82674   -10856.125   -9835.0498   -386.53566     102002.7      46.7237      46.7237      46.7237 
   44000     107.7265   -10895.053   -9893.5038   -340.16796     102002.7      46.7237      46.7237      46.7237 
   45000    108.90602   -10887.424   -9874.9092   -406.60011     102002.7      46.7237      46.7237      46.7237 
   46000    111.53376   -10889.451   -9852.5054   -473.74687     102002.7      46.7237      46.7237      46.7237 
   47000      111.159   -10900.327   -9866.8653    -212.7069     102002.7      46.7237      46.7237      46.7237 
   48000    107.77619   -10875.254   -9873.2428   -277.45459     102002.7      46.7237      46.7237      46.7237 
   49000    110.78551    -10897.83   -9867.8412   -476.42774     102002.7      46.7237      46.7237      46.7237 
   50000    110.88273   -10875.201   -9844.3078   -645.71986     102002.7      46.7237      46.7237      46.7237 
   51000    111.84149   -10869.062   -9829.2554   -561.85393     102002.7      46.7237      46.7237      46.7237 
   52000    109.55854   -10877.419   -9858.8367   -672.52805     102002.7      46.7237      46.7237      46.7237 
   53000      107.859   -10893.156    -9890.375   -560.59774     102002.7      46.7237      46.7237      46.7237 
   54000    112.17955    -10891.96     -9849.01   -509.53303     102002.7      46.7237      46.7237      46.7237 
   55000    110.34898   -10882.512    -9856.581   -882.94045     102002.7      46.7237      46.7237      46.7237 
   56000    109.29698   -10856.231   -9840.0812   -548.17511     102002.7      46.7237      46.7237      46.7237 
   57000    110.15567   -10896.964   -9872.8306   -473.93145     102002.7      46.7237      46.7237      46.7237 
   58000    108.67999   -10887.079   -9876.6653   -508.63551     102002.7      46.7237      46.7237      46.7237 
   59000    109.28015   -10866.032   -9850.0387   -672.57587     102002.7      46.7237      46.7237      46.7237 
   60000    109.58529   -10883.334   -9864.5036    -646.5265     102002.7      46.7237      46.7237      46.7237 
   61000    110.29276   -10872.379   -9846.9715   -544.86423     102002.7      46.7237      46.7237      46.7237 
   62000    111.99242   -10894.984   -9853.7741   -328.34962     102002.7      46.7237      46.7237      46.7237 
   63000    109.80342   -10900.384   -9879.5258   -528.94679     102002.7      46.7237      46.7237      46.7237 
   64000    110.68619   -10857.834   -9828.7679   -754.46464     102002.7      46.7237      46.7237      46.7237 
   65000    112.61208   -10904.631   -9857.6598    -589.0836     102002.7      46.7237      46.7237      46.7237 
   66000     109.6891   -10874.633    -9854.837   -763.17452     102002.7      46.7237      46.7237      46.7237 
   67000    111.51732   -10884.605   -9847.8117   -629.12132     102002.7      46.7237      46.7237      46.7237 
   68000    109.39765   -10882.883   -9865.7972     -597.925     102002.7      46.7237      46.7237      46.7237 
   69000     110.9287   -10896.694   -9865.3739    -626.7904     102002.7      46.7237      46.7237      46.7237 
   70000    108.56669   -10898.454   -9889.0937    -657.8213     102002.7      46.7237      46.7237      46.7237 
   71000    109.27445   -10872.388   -9856.4472   -530.53769     102002.7      46.7237      46.7237      46.7237 
   72000    109.18828    -10864.03    -9848.891   -553.78691     102002.7      46.7237      46.7237      46.7237 
   73000    109.97977   -10876.293   -9853.7948   -851.02912     102002.7      46.7237      46.7237      46.7237 
   74000    112.41816   -10889.238   -9844.0694    -479.1887     102002.7      46.7237      46.7237      46.7237 
   75000    110.96271   -10862.373   -9830.7369   -513.15134     102002.7      46.7237      46.7237      46.7237 
   76000    107.92834   -10873.383   -9869.9578   -687.64529     102002.7      46.7237      46.7237      46.7237 
   77000      110.142   -10850.887   -9826.8803   -571.98403     102002.7      46.7237      46.7237      46.7237 
   78000    111.11455   -10883.197   -9850.1484   -756.28651     102002.7      46.7237      46.7237      46.7237 
   79000    109.64122   -10907.699   -9888.3483   -499.88583     102002.7      46.7237      46.7237      46.7237 
   80000    109.37205   -10892.581   -9875.7326   -222.10843     102002.7      46.7237      46.7237      46.7237 
   81000    109.63115   -10903.274   -9884.0167   -629.65915     102002.7      46.7237      46.7237      46.7237 
   82000    111.19853   -10906.343   -9872.5144   -682.21916     102002.7      46.7237      46.7237      46.7237 
   83000    108.63591   -10886.757   -9876.7533   -426.35553     102002.7      46.7237      46.7237      46.7237 
   84000    109.90991   -10884.312   -9862.4632   -354.03425     102002.7      46.7237      46.7237      46.7237 
   85000    109.98889   -10882.836   -9860.2529   -276.71765     102002.7      46.7237      46.7237      46.7237 
   86000    113.45898   -10894.361   -9839.5162   -732.87448     102002.7      46.7237      46.7237      46.7237 
   87000    108.74672    -10874.67   -9863.6355   -593.72245     102002.7      46.7237      46.7237      46.7237 
   88000    108.88783   -10876.834   -9864.4877   -766.09302     102002.7      46.7237      46.7237      46.7237 
   89000    110.87891   -10893.433   -9862.5754   -491.71392     102002.7      46.7237      46.7237      46.7237 
   90000    109.50742   -10906.724   -9888.6179   -844.94352     102002.7      46.7237      46.7237      46.7237 
   91000    111.11407   -10887.303   -9854.2588   -432.26597     102002.7      46.7237      46.7237      46.7237 
   92000    111.16292   -10865.075   -9831.5766    -697.6833     102002.7      46.7237      46.7237      46.7237 
   93000    110.76373   -10888.107   -9858.3204   -437.46589     102002.7      46.7237      46.7237      46.7237 
   94000    108.42052   -10897.403   -9889.4019    -480.3828     102002.7      46.7237      46.7237      46.7237 
   95000    110.70632   -10885.252   -9855.9996   -940.60709     102002.7      46.7237      46.7237      46.7237 
   96000    108.83718   -10893.984   -9882.1088   -279.43673     102002.7      46.7237      46.7237      46.7237 
   97000    109.70189   -10877.597   -9857.6821   -581.23024     102002.7      46.7237      46.7237      46.7237 
   98000    111.77096   -10878.889   -9839.7383   -617.77993     102002.7      46.7237      46.7237      46.7237 
   99000    109.98245   -10878.508   -9855.9847   -694.96455     102002.7      46.7237      46.7237      46.7237 
  100000    113.76608    -10913.09   -9855.3899   -765.09731     102002.7      46.7237      46.7237      46.7237 
  101000    108.24578   -10882.973   -9876.5966   -469.44357     102002.7      46.7237      46.7237      46.7237 
  102000    109.92659   -10892.492    -9870.488   -855.99982     102002.7      46.7237      46.7237      46.7237 
  103000    110.35641   -10893.942   -9867.9422   -571.16829     102002.7      46.7237      46.7237      46.7237 
  104000    109.90463    -10899.21   -9877.4104    -840.7327     102002.7      46.7237      46.7237      46.7237 
  105000    110.03534   -10899.587   -9876.5723   -903.64912     102002.7      46.7237      46.7237      46.7237 
  106000    112.35433   -10886.389   -9841.8146   -833.90287     102002.7      46.7237      46.7237      46.7237 
  107000    109.12766   -10883.127   -9868.5508   -826.58554     102002.7      46.7237      46.7237      46.7237 
  108000    108.03446   -10891.009   -9886.5971   -791.04962     102002.7      46.7237      46.7237      46.7237 
  109000    110.76966   -10874.831   -9844.9895   -556.79979     102002.7      46.7237      46.7237      46.7237 
  110000    110.74569    -10890.09   -9860.4708   -616.24972     102002.7      46.7237      46.7237      46.7237 
  111000    108.93159   -10905.826   -9893.0735   -573.38452     102002.7      46.7237      46.7237      46.7237 
  112000    110.39703   -10882.348   -9855.9704   -806.13575     102002.7      46.7237      46.7237      46.7237 
  113000    107.36758    -10882.47   -9884.2573   -591.13425     102002.7      46.7237      46.7237      46.7237 
  114000    110.84598   -10882.046   -9851.4945     -702.657     102002.7      46.7237      46.7237      46.7237 
  115000    110.97024    -10864.94   -9833.2339   -469.73616     102002.7      46.7237      46.7237      46.7237 
  116000    108.92193   -10885.152   -9872.4886   -633.93794     102002.7      46.7237      46.7237      46.7237 
  117000     107.4583   -10863.141   -9864.0854   -946.28904     102002.7      46.7237      46.7237      46.7237 
  118000    109.81964   -10899.657   -9878.6478   -523.52858     102002.7      46.7237      46.7237      46.7237 
  119000    110.37776   -10871.347    -9845.149   -789.30318     102002.7      46.7237      46.7237      46.7237 
  120000    111.77635   -10882.737   -9843.5363   -611.56455     102002.7      46.7237      46.7237      46.7237 
  121000     110.6356   -10876.598   -9848.0026   -446.66826     102002.7      46.7237      46.7237      46.7237 
  122000    111.67262   -10897.007     -9858.77   -574.18338     102002.7      46.7237      46.7237      46.7237 
  123000    111.30337   -10883.212   -9848.4082   -532.58836     102002.7      46.7237      46.7237      46.7237 
  124000    111.68495   -10908.071   -9869.7198   -636.96928     102002.7      46.7237      46.7237      46.7237 
  125000    106.96196    -10896.81   -9902.3694   -488.55749     102002.7      46.7237      46.7237      46.7237 
  126000    111.73251   -10886.772   -9847.9789   -221.35601     102002.7      46.7237      46.7237      46.7237 
  127000    108.05021   -10878.585   -9874.0268   -572.34942     102002.7      46.7237      46.7237      46.7237 
  128000    112.75197   -10871.208   -9822.9365   -484.83312     102002.7      46.7237      46.7237      46.7237 
  129000    109.14596   -10894.346   -9879.5999   -363.35985     102002.7      46.7237      46.7237      46.7237 
  130000     110.1585   -10889.738   -9865.5787   -376.88716     102002.7      46.7237      46.7237      46.7237 
  131000    110.75169    -10859.14   -9829.4654   -417.03534     102002.7      46.7237      46.7237      46.7237 
  132000     108.8397   -10893.378   -9881.4798    -607.0523     102002.7      46.7237      46.7237      46.7237 
  133000    109.48919    -10893.87   -9875.9332   -850.66733     102002.7      46.7237      46.7237      46.7237 
  134000     109.0916   -10877.495   -9863.2547    -537.5207     102002.7      46.7237      46.7237      46.7237 
  135000    107.77619    -10875.57   -9873.5588   -852.17733     102002.7      46.7237      46.7237      46.7237 
  136000    111.19104   -10898.764   -9865.0042   -493.61003     102002.7      46.7237      46.7237      46.7237 
  137000    108.10965   -10895.596   -9890.4844   -469.45188     102002.7      46.7237      46.7237      46.7237 
  138000    111.38611   -10879.475   -9843.9022   -523.37186     102002.7      46.7237      46.7237      46.7237 
  139000    110.94759   -10863.894   -9832.3979   -361.19988     102002.7      46.7237      46.7237      46.7237 
  140000    111.90227   -10891.657   -9851.2854   -468.98583     102002.7      46.7237      46.7237      46.7237 
  141000    108.60462   -10881.619   -9871.9065   -576.79407     102002.7      46.7237      46.7237      46.7237 
  142000    109.41304   -10878.827   -9861.5983   -503.40898     102002.7      46.7237      46.7237      46.7237 
  143000    114.34549    -10885.53   -9822.4429   -853.61963     102002.7      46.7237      46.7237      46.7237 
  144000    110.80704   -10883.514   -9853.3248   -740.50883     102002.7      46.7237      46.7237      46.7237 
  145000    111.49958   -10886.108   -9849.4801   -657.57411     102002.7      46.7237      46.7237      46.7237 
  146000    113.00697   -10886.743   -9836.1011   -854.15098     102002.7      46.7237      46.7237      46.7237 
  147000    108.22129   -10873.226   -9867.0763   -659.77622     102002.7      46.7237      46.7237      46.7237 
  148000    108.40354   -10872.919   -9865.0753   -623.35129     102002.7      46.7237      46.7237      46.7237 
  149000    109.32445   -10891.931   -9875.5261   -546.87243     102002.7      46.7237      46.7237      46.7237 
  150000    111.60979   -10882.773   -9845.1208   -653.06581     102002.7      46.7237      46.7237      46.7237 
  151000    108.75314   -10875.488   -9864.3939   -572.05815     102002.7      46.7237      46.7237      46.7237 
  152000    111.50582   -10869.547   -9832.8615   -437.61207     102002.7      46.7237      46.7237      46.7237 
  153000    107.80536   -10865.653   -9863.3708   -637.84709     102002.7      46.7237      46.7237      46.7237 
  154000    112.66839   -10893.121   -9845.6268   -610.50551     102002.7      46.7237      46.7237      46.7237 
  155000    107.58288   -10901.857   -9901.6431   -432.75076     102002.7      46.7237      46.7237      46.7237 
  156000    110.22736   -10873.268   -9848.4677   -652.81839     102002.7      46.7237      46.7237      46.7237 
  157000    111.08147    -10883.27   -9850.5296   -456.20008     102002.7      46.7237      46.7237      46.7237 
  158000    111.22064   -10890.988   -9856.9531   -666.91221     102002.7      46.7237      46.7237      46.7237 
  159000    109.92618   -10877.732   -9855.7321   -526.36277     102002.7      46.7237      46.7237      46.7237 
  160000    110.72106   -10891.891   -9862.5012   -332.75473     102002.7      46.7237      46.7237      46.7237 
  161000      108.794   -10865.285   -9853.8115   -745.70123     102002.7      46.7237      46.7237      46.7237 
  162000    107.65881   -10891.289   -9890.3694   -598.88705     102002.7      46.7237      46.7237      46.7237 
  163000    109.69924   -10929.964    -9910.074   -424.94048     102002.7      46.7237      46.7237      46.7237 
  164000     108.4893   -10880.046   -9871.4049   -625.09286     102002.7      46.7237      46.7237      46.7237 
  165000      106.598   -10884.731   -9893.6742   -602.02399     102002.7      46.7237      46.7237      46.7237 
  166000    109.59301   -10852.548    -9833.646   -414.47282     102002.7      46.7237      46.7237      46.7237 
  167000    111.17975   -10890.281   -9856.6267   -468.37541     102002.7      46.7237      46.7237      46.7237 
  168000    111.09217   -10902.873   -9870.0332   -493.23874     102002.7      46.7237      46.7237      46.7237 
  169000    111.33246   -10895.212   -9860.1382   -571.43809     102002.7      46.7237      46.7237      46.7237 
  170000    108.10556   -10887.637   -9882.5636   -506.58877     102002.7      46.7237      46.7237      46.7237 
  171000    109.59009   -10873.496   -9854.6214      -845.85     102002.7      46.7237      46.7237      46.7237 
  172000    112.83863   -10907.567     -9858.49   -697.10027     102002.7      46.7237      46.7237      46.7237 
  173000    110.99355   -10879.446   -9847.5226   -879.45502     102002.7      46.7237      46.7237      46.7237 
  174000    109.79207   -10896.961   -9876.2084   -672.34412     102002.7      46.7237      46.7237      46.7237 
  175000    109.94645   -10905.424   -9883.2355   -733.53015     102002.7      46.7237      46.7237      46.7237 
  176000    109.16022   -10870.559   -9855.6806   -713.94665     102002.7      46.7237      46.7237      46.7237 
  177000    112.17896   -10900.399   -9857.4544   -486.11582     102002.7      46.7237      46.7237      46.7237 
  178000    110.82045   -10889.515   -9859.2011    -872.6666     102002.7      46.7237      46.7237      46.7237 
  179000    107.59741   -10883.067   -9882.7185   -674.92205     102002.7      46.7237      46.7237      46.7237 
  180000    110.74569   -10858.061   -9828.4426   -587.50384     102002.7      46.7237      46.7237      46.7237 
  181000    109.49311   -10877.737   -9859.7633     -307.628     102002.7      46.7237      46.7237      46.7237 
  182000    106.55432   -10885.693    -9895.042   -365.79026     102002.7      46.7237      46.7237      46.7237 
  183000    110.34554   -10866.363   -9840.4639   -319.22904     102002.7      46.7237      46.7237      46.7237 
  184000    111.69756    -10879.93    -9841.461   -618.43066     102002.7      46.7237      46.7237      46.7237 
  185000     110.3038   -10877.437   -9851.9264   -631.52095     102002.7      46.7237      46.7237      46.7237 
  186000    110.00565   -10866.306    -9843.567    -540.9233     102002.7      46.7237      46.7237      46.7237 
  187000    109.80741   -10858.669   -9837.7729    -578.7793     102002.7      46.7237      46.7237      46.7237 
  188000    112.95531   -10874.651   -9824.4893   -510.73302     102002.7      46.7237      46.7237      46.7237 
  189000    111.96464   -10885.064   -9844.1125   -695.76335     102002.7      46.7237      46.7237      46.7237 
  190000    110.94354   -10891.862    -9860.404   -680.03879     102002.7      46.7237      46.7237      46.7237 
  191000    109.56594   -10885.013   -9866.3629   -507.86138     102002.7      46.7237      46.7237      46.7237 
  192000    111.08294   -10903.988   -9871.2333   -787.12907     102002.7      46.7237      46.7237      46.7237 
  193000    112.01474   -10876.913    -9835.496   -704.26604     102002.7      46.7237      46.7237      46.7237 
  194000    110.37802   -10890.101   -9863.9003   -643.14353     102002.7      46.7237      46.7237      46.7237 
  195000    108.05382   -10879.512   -9874.9201   -756.04951     102002.7      46.7237      46.7237      46.7237 
  196000    111.03469   -10912.792    -9880.486   -500.09231     102002.7      46.7237      46.7237      46.7237 
  197000     111.6053    -10895.17   -9857.5594   -633.02743     102002.7      46.7237      46.7237      46.7237 
  198000    109.55657   -10877.701    -9859.137   -618.46454     102002.7      46.7237      46.7237      46.7237 
  199000    108.54119   -10886.865   -9877.7412   -523.12154     102002.7      46.7237      46.7237      46.7237 
  200000    110.16121   -10883.249   -9859.0637   -750.38216     102002.7      46.7237      46.7237      46.7237 
  201000    111.62743   -10889.481   -9851.6643   -443.34279     102002.7      46.7237      46.7237      46.7237 
  202000     107.8257   -10896.174   -9893.7024   -504.57708     102002.7      46.7237      46.7237      46.7237 
  203000    109.71214   -10895.269   -9875.2588   -802.53181     102002.7      46.7237      46.7237      46.7237 
  204000    111.74505   -10872.329   -9833.4189   -834.26792     102002.7      46.7237      46.7237      46.7237 
  205000    110.21991   -10879.354   -9854.6238   -692.18839     102002.7      46.7237      46.7237      46.7237 
  206000     109.4822   -10877.429   -9859.5573   -542.30623     102002.7      46.7237      46.7237      46.7237 
  207000    110.70754   -10881.028   -9851.7637   -463.09785     102002.7      46.7237      46.7237      46.7237 
  208000    111.37242   -10892.971   -9857.5253   -421.27397     102002.7      46.7237      46.7237      46.7237 
  209000    109.66332   -10891.911   -9872.3554    -318.7783     102002.7      46.7237      46.7237      46.7237 
  210000    108.00265   -10886.251    -9882.135    -346.6649     102002.7      46.7237      46.7237      46.7237 
  211000    108.91935   -10886.015   -9873.3756   -559.51835     102002.7      46.7237      46.7237      46.7237 
  212000    110.34639   -10853.587   -9827.6807   -388.64247     102002.7      46.7237      46.7237      46.7237 
  213000    109.58719   -10881.907   -9863.0586   -691.43869     102002.7      46.7237      46.7237      46.7237 
  214000    111.22976   -10877.842   -9843.7224   -451.18208     102002.7      46.7237      46.7237      46.7237 
  215000    110.51261   -10875.654   -9848.2019   -451.75943     102002.7      46.7237      46.7237      46.7237 
  216000    107.99317   -10872.803   -9868.7752   -712.07375     102002.7      46.7237      46.7237      46.7237 
  217000    110.99545   -10871.924   -9839.9829   -665.66132     102002.7      46.7237      46.7237      46.7237 
  218000    110.19342   -10868.861   -9844.3763   -500.32615     102002.7      46.7237      46.7237      46.7237 
  219000    109.76232   -10876.592   -9856.1158   -701.87631     102002.7      46.7237      46.7237      46.7237 
  220000    113.39883   -10887.656   -9833.3705   -683.45932     102002.7      46.7237      46.7237      46.7237 
  221000    112.26811   -10859.704   -9815.9311   -497.95981     102002.7      46.7237      46.7237      46.7237 
  222000    107.66872    -10899.55   -9898.5377   -663.87899     102002.7      46.7237      46.7237      46.7237 
  223000    108.51599   -10886.997   -9878.1078   -576.30835     102002.7      46.7237      46.7237      46.7237 
  224000    110.31269   -10896.203   -9870.6094   -420.08116     102002.7      46.7237      46.7237      46.7237 
  225000    111.99447   -10866.738   -9825.5093   -532.55319     102002.7      46.7237      46.7237      46.7237 
  226000    110.40219   -10878.864   -9852.4391   -273.57881     102002.7      46.7237      46.7237      46.7237 
  227000    108.94121   -10865.594   -9852.7514   -355.26814     102002.7      46.7237      46.7237      46.7237 
  228000    109.25748   -10874.813   -9859.0301   -282.33675     102002.7      46.7237      46.7237      46.7237 
  229000    107.38959   -10873.525   -9875.1081   -275.98066     102002.7      46.7237      46.7237      46.7237 
  230000    109.75306   -10896.621   -9876.2307    -614.3345     102002.7      46.7237      46.7237      46.7237 
  231000    109.23833   -10870.021   -9854.4162   -469.54782     102002.7      46.7237      46.7237      46.7237 
  232000    111.22823   -10879.813   -9845.7076   -156.62669     102002.7      46.7237      46.7237      46.7237 
  233000    110.46022   -10910.097   -9883.1319   -633.23179     102002.7      46.7237      46.7237      46.7237 
  234000    111.27426   -10861.733   -9827.1998    -425.6154     102002.7      46.7237      46.7237      46.7237 
  235000    109.35165   -10889.071    -9872.413   -773.57769     102002.7      46.7237      46.7237      46.7237 
  236000    106.89955   -10880.057   -9886.1964   -763.38075     102002.7      46.7237      46.7237      46.7237 
  237000    110.60666   -10888.977    -9860.651   -727.40447     102002.7      46.7237      46.7237      46.7237 
  238000    110.65201   -10879.739    -9850.991   -310.98955     102002.7      46.7237      46.7237      46.7237 
  239000    107.36105   -10894.133   -9895.9818   -521.60093     102002.7      46.7237      46.7237      46.7237 
  240000    109.84078   -10887.044   -9865.8382   -372.91877     102002.7      46.7237      46.7237      46.7237 
  241000    110.24234   -10882.503   -9857.5642   -410.49749     102002.7      46.7237      46.7237      46.7237 
  242000    107.68917   -10865.239   -9864.0372   -330.45706     102002.7      46.7237      46.7237      46.7237 
  243000    106.66354   -10842.816   -9851.1497   -278.79168     102002.7      46.7237      46.7237      46.7237 
  244000    109.16778   -10874.613   -9859.6644   -575.22038     102002.7      46.7237      46.7237      46.7237 
  245000    112.56524   -10896.538   -9850.0023   -475.23727     102002.7      46.7237      46.7237      46.7237 
  246000    109.72032   -10898.677   -9878.5916   -489.99734     102002.7      46.7237      46.7237      46.7237 
  247000    107.85836   -10892.064   -9889.2894   -881.75449     102002.7      46.7237      46.7237      46.7237 
  248000    111.98706   -10876.461   -9835.3012   -779.72555     102002.7      46.7237      46.7237      46.7237 
  249000    109.81684   -10875.785   -9854.8018   -512.72171     102002.7      46.7237      46.7237      46.7237 
  250000    108.57303   -10885.797   -9876.3775    -648.4501     102002.7      46.7237      46.7237      46.7237 
  251000    112.09324   -10853.428   -9811.2812   -527.52317     102002.7      46.7237      46.7237      46.7237 
  252000    109.89138   -10885.354    -9863.678   -577.00181     102002.7      46.7237      46.7237      46.7237 
  253000    107.54201   -10853.575   -9853.7413   -495.54577     102002.7      46.7237      46.7237      46.7237 
  254000    110.07947   -10884.404   -9860.9788   -579.75587     102002.7      46.7237      46.7237      46.7237 
  255000    109.62553   -10861.784   -9842.5797    -485.9079     102002.7      46.7237      46.7237      46.7237 
  256000    111.07474   -10884.905   -9852.2265   -619.94012     102002.7      46.7237      46.7237      46.7237 
  257000    111.51323   -10888.104   -9851.3492   -813.54597     102002.7      46.7237      46.7237      46.7237 
  258000    108.61054   -10906.201   -9896.4329   -474.40186     102002.7      46.7237      46.7237      46.7237 
  259000    111.25904   -10880.992   -9846.6007   -855.15178     102002.7      46.7237      46.7237      46.7237 
  260000    108.23231   -10879.032   -9872.7804   -857.27534     102002.7      46.7237      46.7237      46.7237 
  261000    109.99304   -10868.806   -9846.1851   -546.10187     102002.7      46.7237      46.7237      46.7237 
  262000    112.57769   -10890.448   -9843.7968   -601.70486     102002.7      46.7237      46.7237      46.7237 
  263000     111.5326   -10877.293   -9840.3585   -483.42398     102002.7      46.7237      46.7237      46.7237 
  264000    112.28023   -10899.665   -9855.7789    -1011.048     102002.7      46.7237      46.7237      46.7237 
  265000    110.63084    -10883.55   -9854.9986   -534.62866     102002.7      46.7237      46.7237      46.7237 
  266000    107.34027   -10889.486   -9891.5281   -688.16244     102002.7      46.7237      46.7237      46.7237 
  267000    112.12933   -10871.314   -9828.8313   -787.65634     102002.7      46.7237      46.7237      46.7237 
  268000    108.45135   -10882.778   -9874.4904   -470.67541     102002.7      46.7237      46.7237      46.7237 
  269000     112.9121   -10885.473   -9835.7129   -785.93365     102002.7      46.7237      46.7237      46.7237 
  270000    109.51531   -10859.231   -9841.0506   -585.12715     102002.7      46.7237      46.7237      46.7237 
  271000    110.49568   -10860.944   -9833.6497   -397.91978     102002.7      46.7237      46.7237      46.7237 
  272000    111.00107   -10868.642   -9836.6488   -596.20649     102002.7      46.7237      46.7237      46.7237 
  273000    109.94537       -10906   -9883.8217   -537.75167     102002.7      46.7237      46.7237      46.7237 
  274000    109.79664   -10860.137   -9839.3415   -467.92318     102002.7      46.7237      46.7237      46.7237 
  275000    112.27744   -10886.218   -9842.3579   -713.32864     102002.7      46.7237      46.7237      46.7237 
  276000     110.5451   -10888.249   -9860.4953    -528.3433     102002.7      46.7237      46.7237      46.7237 
  277000    110.74789   -10878.622   -9848.9826   -721.63911     102002.7      46.7237      46.7237      46.7237 
  278000    112.66311   -10875.539   -9828.0939   -524.75662     102002.7      46.7237      46.7237      46.7237 
  279000    107.60959   -10910.263   -9909.8009    -349.8984     102002.7      46.7237      46.7237      46.7237 
  280000    109.18155   -10873.755   -9858.6783   -434.98248     102002.7      46.7237      46.7237      46.7237 
  281000    112.59545    -10859.43   -9812.6132   -573.25457     102002.7      46.7237      46.7237      46.7237 
  282000    111.96517   -10900.618   -9859.6617   -357.07613     102002.7      46.7237      46.7237      46.7237 
  283000    112.08832   -10880.242   -9838.1407   -253.29639     102002.7      46.7237      46.7237      46.7237 
  284000    110.96094   -10900.883    -9869.263   -553.92009     102002.7      46.7237      46.7237      46.7237 
  285000    109.98068   -10884.999   -9862.4928   -396.37595     102002.7      46.7237      46.7237      46.7237 
  286000    109.71587   -10890.929   -9870.8847   -720.88166     102002.7      46.7237      46.7237      46.7237 
  287000    111.86753   -10886.883   -9846.8338   -672.18445     102002.7      46.7237      46.7237      46.7237 
  288000    111.31052   -10864.611   -9829.7406   -500.04784     102002.7      46.7237      46.7237      46.7237 
  289000    108.59863   -10899.385   -9889.7277   -898.87978     102002.7      46.7237      46.7237      46.7237 
  290000    110.48059   -10878.463   -9851.3083    -1017.359     102002.7      46.7237      46.7237      46.7237 
  291000    110.37998   -10856.735   -9830.5162   -611.80746     102002.7      46.7237      46.7237      46.7237 
  292000    111.23467   -10898.953    -9864.788   -885.62719     102002.7      46.7237      46.7237      46.7237 
  293000    110.53072   -10879.259   -9851.6388   -740.72877     102002.7      46.7237      46.7237      46.7237 
  294000    112.18292   -10886.265   -9843.2834   -997.71282     102002.7      46.7237      46.7237      46.7237 
  295000    106.12369   -10891.327   -9904.6792   -598.27941     102002.7      46.7237      46.7237      46.7237 
  296000    111.50906   -10889.401   -9852.6851    -906.1673     102002.7      46.7237      46.7237      46.7237 
  297000    109.16769   -10897.571   -9882.6229   -589.59261     102002.7      46.7237      46.7237      46.7237 
  298000    109.66424   -10873.894   -9854.3297   -184.33866     102002.7      46.7237      46.7237      46.7237 
  299000    110.48775   -10855.015   -9827.7937   -657.61955     102002.7      46.7237      46.7237      46.7237 
  300000     112.2444   -10913.192   -9869.6392   -351.26137     102002.7      46.7237      46.7237      46.7237 
  301000    108.69283   -10871.728   -9861.1948   -883.69663     102002.7      46.7237      46.7237      46.7237 
  302000    109.21461   -10902.178   -9886.7937   -576.58736     102002.7      46.7237      46.7237      46.7237 
  303000    109.43798   -10894.604   -9877.1429    -399.4436     102002.7      46.7237      46.7237      46.7237 
  304000    112.36626   -10910.372    -9865.686   -604.07082     102002.7      46.7237      46.7237      46.7237 
  305000    107.85586   -10869.341   -9866.5893   -381.03135     102002.7      46.7237      46.7237      46.7237 
  306000     109.3734   -10887.165   -9870.3041   -954.12316     102002.7      46.7237      46.7237      46.7237 
  307000    113.87314   -10913.267   -9854.5718   -818.09027     102002.7      46.7237      46.7237      46.7237 
  308000    112.25774   -10902.619   -9858.9426   -669.85098     102002.7      46.7237      46.7237      46.7237 
  309000    111.56557   -10911.402   -9874.1609   -562.66254     102002.7      46.7237      46.7237      46.7237 
  310000    112.94324   -10892.841   -9842.7908   -754.73963     102002.7      46.7237      46.7237      46.7237 
  311000    107.38913   -10895.919   -9897.5064   -573.61545     102002.7      46.7237      46.7237      46.7237 
  312000    114.23785   -10898.666   -9836.5796   -898.20184     102002.7      46.7237      46.7237      46.7237 
  313000    109.67076   -10891.146   -9871.5205   -346.50628     102002.7      46.7237      46.7237      46.7237 
  314000    112.62403   -10880.262   -9833.1802   -491.97098     102002.7      46.7237      46.7237      46.7237 
  315000    109.68802   -10893.322   -9873.5363   -710.34037     102002.7      46.7237      46.7237      46.7237 
  316000    108.54613   -10869.598   -9860.4284     -555.603     102002.7      46.7237      46.7237      46.7237 
  317000    108.97947   -10876.371   -9863.1729   -441.35272     102002.7      46.7237      46.7237      46.7237 
  318000    112.47377   -10920.254    -9874.569   -384.09933     102002.7      46.7237      46.7237      46.7237 
  319000    110.60591   -10900.733   -9872.4141   -683.31584     102002.7      46.7237      46.7237      46.7237 
  320000    109.66617   -10908.469   -9888.8867   -618.83073     102002.7      46.7237      46.7237      46.7237 
  321000    110.34103    -10898.59   -9872.7329   -668.02477     102002.7      46.7237      46.7237      46.7237 
  322000    110.70226   -10896.477   -9867.2623   -838.10769     102002.7      46.7237      46.7237      46.7237 
  323000    110.48479   -10910.387   -9883.1934   -699.58063     102002.7      46.7237      46.7237      46.7237 
  324000    111.35405   -10892.133   -9856.8583   -780.81617     102002.7      46.7237      46.7237      46.7237 
  325000    108.89291   -10895.013   -9882.6193   -655.83543     102002.7      46.7237      46.7237      46.7237 
  326000    109.17108   -10879.737   -9864.7574   -563.48901     102002.7      46.7237      46.7237      46.7237 
  327000    112.36458   -10881.362   -9836.6922   -669.68383     102002.7      46.7237      46.7237      46.7237 
  328000    108.94938   -10875.401   -9862.4822   -702.12515     102002.7      46.7237      46.7237      46.7237 
  329000    111.61362   -10884.448   -9846.7598   -285.84817     102002.7      46.7237      46.7237      46.7237 
  330000    109.09171   -10886.124   -9871.8826   -617.72695     102002.7      46.7237      46.7237      46.7237 
  331000    107.65077   -10893.084   -9892.2389   -473.84483     102002.7      46.7237      46.7237      46.7237 
  332000    110.65123   -10877.797   -9849.0565   -783.83673     102002.7      46.7237      46.7237      46.7237 
  333000    110.05435   -10894.848   -9871.6568   -545.25912     102002.7      46.7237      46.7237      46.7237 
  334000    111.94335    -10893.23   -9852.4762   -358.77636     102002.7      46.7237      46.7237      46.7237 
  335000    111.01428   -10915.007    -9882.891    -492.7433     102002.7      46.7237      46.7237      46.7237 
  336000    109.64171   -10874.472   -9855.1169   -556.94575     102002.7      46.7237      46.7237      46.7237 
  337000    108.06868   -10898.808   -9894.0782   -536.72993     102002.7      46.7237      46.7237      46.7237 
  338000     109.0928   -10885.482   -9871.2298   -580.96363     102002.7      46.7237      46.7237      46.7237 
  339000    108.72825   -10893.621   -9882.7583   -649.63154     102002.7      46.7237      46.7237      46.7237 
  340000    107.53874   -10864.048    -9864.245   -696.49411     102002.7      46.7237      46.7237      46.7237 
  341000    108.75122    -10894.38   -9883.3041   -731.12229     102002.7      46.7237      46.7237      46.7237 
  342000    109.83167   -10879.609   -9858.4881   -600.42119     102002.7      46.7237      46.7237      46.7237 
  343000    110.81968   -10875.294   -9844.9869   -516.88387     102002.7      46.7237      46.7237      46.7237 
  344000    109.68462   -10917.703    -9897.949   -586.78401     102002.7      46.7237      46.7237      46.7237 
  345000    109.31002   -10907.039   -9890.7682   -726.95924     102002.7      46.7237      46.7237      46.7237 
  346000    108.46638   -10877.216   -9868.7882       -775.5     102002.7      46.7237      46.7237      46.7237 
  347000    109.53047   -10874.916   -9856.5952   -498.20994     102002.7      46.7237      46.7237      46.7237 
  348000    109.69546   -10894.801   -9874.9463   -232.06103     102002.7      46.7237      46.7237      46.7237 
  349000    110.68407   -10893.704   -9864.6577   -421.71762     102002.7      46.7237      46.7237      46.7237 
  350000    111.46987   -10860.871   -9824.5194   -594.54115     102002.7      46.7237      46.7237      46.7237 
  351000    109.87111   -10877.162   -9855.6737   -526.34122     102002.7      46.7237      46.7237      46.7237 
  352000    108.98415   -10888.324   -9875.0825   -534.08407     102002.7      46.7237      46.7237      46.7237 
  353000    113.48633   -10888.061   -9832.9621   -599.23687     102002.7      46.7237      46.7237      46.7237 
  354000    109.38427   -10876.452   -9859.4908   -357.33335     102002.7      46.7237      46.7237      46.7237 
  355000    107.71688   -10879.301   -9877.8418   -616.08402     102002.7      46.7237      46.7237      46.7237 
  356000     108.5097   -10899.379   -9890.5488   -398.00287     102002.7      46.7237      46.7237      46.7237 
  357000    111.72044   -10878.393   -9839.7121   -316.19958     102002.7      46.7237      46.7237      46.7237 
  358000    108.97322   -10881.977   -9868.8374   -342.90472     102002.7      46.7237      46.7237      46.7237 
  359000    111.67295   -10880.182    -9841.942   -372.22861     102002.7      46.7237      46.7237      46.7237 
  360000    111.52889   -10861.457    -9824.557   -285.99275     102002.7      46.7237      46.7237      46.7237 
  361000    112.51578   -10864.781   -9818.7053   -539.09279     102002.7      46.7237      46.7237      46.7237 
  362000    108.38307    -10897.23   -9889.5763   -443.70352     102002.7      46.7237      46.7237      46.7237 
  363000    110.20451   -10893.699   -9869.1115   -653.90199     102002.7      46.7237      46.7237      46.7237 
  364000    109.01867   -10865.705   -9852.1428   -654.24442     102002.7      46.7237      46.7237      46.7237 
  365000    111.34017   -10884.408   -9849.2618   -466.99348     102002.7      46.7237      46.7237      46.7237 
  366000    110.03108   -10878.991   -9856.0164   -688.24209     102002.7      46.7237      46.7237      46.7237 
  367000    109.06466   -10865.066   -9851.0758    -697.3493     102002.7      46.7237      46.7237      46.7237 
  368000    108.51091   -10894.039   -9885.1976   -446.79137     102002.7      46.7237      46.7237      46.7237 
  369000    109.40916   -10875.309   -9858.1159   -717.13579     102002.7      46.7237      46.7237      46.7237 
  370000    108.16898   -10872.727   -9867.0643   -675.60506     102002.7      46.7237      46.7237      46.7237 
  371000    111.24917   -10863.054   -9828.7544   -448.70073     102002.7      46.7237      46.7237      46.7237 
  372000    110.98976   -10885.363   -9853.4755   -694.70923     102002.7      46.7237      46.7237      46.7237 
  373000    111.57651   -10887.245   -9849.9017   -498.99089     102002.7      46.7237      46.7237      46.7237 
  374000    108.66668   -10864.688   -9854.3976   -531.76301     102002.7      46.7237      46.7237      46.7237 
  375000     108.0104   -10871.638   -9867.4492    -377.8313     102002.7      46.7237      46.7237      46.7237 
  376000    109.33877   -10880.471   -9863.9323   -817.72152     102002.7      46.7237      46.7237      46.7237 
  377000    109.99216   -10916.584   -9893.9708   -803.28212     102002.7      46.7237      46.7237      46.7237 
  378000    110.50676   -10900.242   -9872.8444   -315.82222     102002.7      46.7237      46.7237      46.7237 
  379000    110.77802   -10901.257   -9871.3371    -698.5778     102002.7      46.7237      46.7237      46.7237 
  380000    110.66546   -10870.112   -9841.2387   -481.30038     102002.7      46.7237      46.7237      46.7237 
  381000     108.2735   -10893.574   -9886.9394   -505.70423     102002.7      46.7237      46.7237      46.7237 
  382000    109.09974   -10875.198   -9860.8816   -763.78991     102002.7      46.7237      46.7237      46.7237 
  383000    113.44013   -10879.827   -9825.1574   -571.27613     102002.7      46.7237      46.7237      46.7237 
  384000    108.55081    -10880.16   -9870.9471   -596.75633     102002.7      46.7237      46.7237      46.7237 
  385000    109.34086   -10867.186   -9850.6278   -673.70227     102002.7      46.7237      46.7237      46.7237 
  386000     109.7703   -10874.489   -9853.9389   -319.50054     102002.7      46.7237      46.7237      46.7237 
  387000    110.70469   -10887.354   -9858.1162   -240.83367     102002.7      46.7237      46.7237      46.7237 
  388000    104.69759   -10900.573   -9927.1846   -428.54456     102002.7      46.7237      46.7237      46.7237 
  389000    109.60796   -10890.669   -9871.6273   -542.76058     102002.7      46.7237      46.7237      46.7237 
  390000     107.6323   -10851.565   -9850.8915   -517.23454     102002.7      46.7237      46.7237      46.7237 
  391000    112.06104   -10884.374   -9842.5266   -635.37173     102002.7      46.7237      46.7237      46.7237 
  392000    110.34658   -10916.344   -9890.4356   -803.23379     102002.7      46.7237      46.7237      46.7237 
  393000    110.60794   -10883.318   -9854.9803   -967.40637     102002.7      46.7237      46.7237      46.7237 
  394000    110.85007   -10847.216   -9816.6265   -485.96897     102002.7      46.7237      46.7237      46.7237 
  395000    110.17724   -10888.283   -9863.9486    -595.7173     102002.7      46.7237      46.7237      46.7237 
  396000    107.43162   -10893.723   -9894.9153    -708.1193     102002.7      46.7237      46.7237      46.7237 
  397000    111.15698   -10870.272   -9836.8295   -907.90688     102002.7      46.7237      46.7237      46.7237 
  398000    111.34915   -10894.127   -9858.8975   -788.63096     102002.7      46.7237      46.7237      46.7237 
  399000    111.18462   -10885.554   -9851.8547    -606.8829     102002.7      46.7237      46.7237      46.7237 
  400000    109.31332   -10875.364   -9859.0617   -215.15066     102002.7      46.7237      46.7237      46.7237 
  401000    108.54576   -10901.936   -9892.7697   -743.34627     102002.7      46.7237      46.7237      46.7237 
  402000       108.92   -10872.317   -9859.6716   -463.73337     102002.7      46.7237      46.7237      46.7237 
  403000    112.54409   -10890.171   -9843.8316   -465.64278     102002.7      46.7237      46.7237      46.7237 
  404000    109.13089   -10879.385   -9864.7794   -532.58898     102002.7      46.7237      46.7237      46.7237 
  405000    108.82394    -10876.91   -9865.1575   -169.13729     102002.7      46.7237      46.7237      46.7237 
  406000    109.35725   -10891.583   -9874.8728    -489.8385     102002.7      46.7237      46.7237      46.7237 
  407000    109.56741   -10900.562   -9881.8981    -727.5262     102002.7      46.7237      46.7237      46.7237 
  408000    110.38582   -10892.658   -9866.3853   -612.66751     102002.7      46.7237      46.7237      46.7237 
  409000    111.42635   -10864.906   -9828.9586   -620.17462     102002.7      46.7237      46.7237      46.7237 
  410000    110.38453   -10873.148   -9846.8864   -782.37454     102002.7      46.7237      46.7237      46.7237 
  411000     110.1847   -10913.184   -9888.7804   -706.39722     102002.7      46.7237      46.7237      46.7237 
  412000    107.22443   -10887.936   -9891.0549     -805.391     102002.7      46.7237      46.7237      46.7237 
  413000    109.76234   -10878.127   -9857.6502   -661.27604     102002.7      46.7237      46.7237      46.7237 
  414000    109.77315   -10885.073   -9864.4957    -548.1243     102002.7      46.7237      46.7237      46.7237 
  415000     109.7409   -10860.862   -9840.5848   -547.56831     102002.7      46.7237      46.7237      46.7237 
  416000    111.88053   -10868.124   -9827.9539   -284.04856     102002.7      46.7237      46.7237      46.7237 
  417000    106.71502   -10874.972   -9882.8271   -929.58546     102002.7      46.7237      46.7237      46.7237 
  418000     109.4417   -10897.793   -9880.2978   -668.36332     102002.7      46.7237      46.7237      46.7237 
  419000    108.08313   -10873.255   -9868.3902   -632.66945     102002.7      46.7237      46.7237      46.7237 
  420000    111.68035    -10891.61   -9853.3018   -708.31956     102002.7      46.7237      46.7237      46.7237 
  421000    111.48109   -10906.413   -9869.9568   -789.62616     102002.7      46.7237      46.7237      46.7237 
  422000    110.29635   -10877.319   -9851.8778   -663.02047     102002.7      46.7237      46.7237      46.7237 
  423000    107.74309    -10888.28   -9886.5763   -561.47324     102002.7      46.7237      46.7237      46.7237 
  424000    110.06599   -10884.151   -9860.8515   -407.13139     102002.7      46.7237      46.7237      46.7237 
  425000    107.73964   -10884.012   -9882.3411   -343.41061     102002.7      46.7237      46.7237      46.7237 
  426000     107.3517   -10898.064   -9899.9994   -431.21478     102002.7      46.7237      46.7237      46.7237 
  427000    111.54532   -10899.267   -9862.2138   -376.80906     102002.7      46.7237      46.7237      46.7237 
  428000    110.63668   -10876.868   -9848.2621   -446.44427     102002.7      46.7237      46.7237      46.7237 
  429000    110.10883   -10863.643   -9839.9449   -521.38321     102002.7      46.7237      46.7237      46.7237 
  430000    112.63983   -10864.371   -9817.1423   -360.67408     102002.7      46.7237      46.7237      46.7237 
  431000    107.22142   -10878.011   -9881.1575   -447.42543     102002.7      46.7237      46.7237      46.7237 
  432000    110.88863   -10881.226    -9850.278   -787.69215     102002.7      46.7237      46.7237      46.7237 
  433000    111.66251    -10890.83   -9852.6878    -583.6258     102002.7      46.7237      46.7237      46.7237 
  434000     108.7807   -10892.384   -9881.0342   -813.38014     102002.7      46.7237      46.7237      46.7237 
  435000    109.94572   -10871.739   -9849.5571   -388.49837     102002.7      46.7237      46.7237      46.7237 
  436000    111.48835   -10870.908   -9834.3844   -412.83904     102002.7      46.7237      46.7237      46.7237 
  437000    109.61289    -10912.43    -9893.343   -653.62255     102002.7      46.7237      46.7237      46.7237 
  438000     110.4735   -10868.953   -9841.8643   -756.75715     102002.7      46.7237      46.7237      46.7237 
  439000    110.08855   -10840.527   -9817.0181    -468.0767     102002.7      46.7237      46.7237      46.7237 
  440000    110.43656   -10890.211   -9863.4666    -701.3234     102002.7      46.7237      46.7237      46.7237 
  441000    109.42841   -10883.699   -9866.3274   -427.33753     102002.7      46.7237      46.7237      46.7237 
  442000    111.86987   -10855.876   -9815.8056   -562.65417     102002.7      46.7237      46.7237      46.7237 
  443000    107.10015   -10869.564   -9873.8383   -707.67219     102002.7      46.7237      46.7237      46.7237 
  444000    108.96306   -10865.148   -9852.1024   -575.81606     102002.7      46.7237      46.7237      46.7237 
  445000    111.46619   -10897.386   -9861.0687   -871.24429     102002.7      46.7237      46.7237      46.7237 
  446000    111.50424   -10873.059   -9836.3881   -593.86841     102002.7      46.7237      46.7237      46.7237 
  447000    106.76769   -10877.233   -9884.5982    -645.0009     102002.7      46.7237      46.7237      46.7237 
  448000    111.51332   -10864.482   -9827.7267   -870.61033     102002.7      46.7237      46.7237      46.7237 
  449000    110.11944   -10880.573   -9856.7763   -640.76464     102002.7      46.7237      46.7237      46.7237 
  450000     111.3078    -10891.69   -9856.8456   -761.19863     102002.7      46.7237      46.7237      46.7237 
  451000    110.40752   -10887.498   -9861.0231   -251.53076     102002.7      46.7237      46.7237      46.7237 
  452000    108.18688   -10870.163   -9864.3333   -969.66054     102002.7      46.7237      46.7237      46.7237 
  453000    110.55983   -10861.137   -9833.2463   -466.20189     102002.7      46.7237      46.7237      46.7237 
  454000    108.26792   -10889.386   -9882.8035    -507.9606     102002.7      46.7237      46.7237      46.7237 
  455000    110.81377   -10855.946   -9825.6938   -536.73211     102002.7      46.7237      46.7237      46.7237 
  456000    112.69658   -10870.777   -9823.0206   -698.92938     102002.7      46.7237      46.7237      46.7237 
  457000    110.75497   -10842.828    -9813.123   -853.34788     102002.7      46.7237      46.7237      46.7237 
  458000    110.10725   -10867.499   -9843.8162   -654.09151     102002.7      46.7237      46.7237      46.7237 
  459000    110.40136   -10889.217   -9862.7996   -536.98749     102002.7      46.7237      46.7237      46.7237 
  460000    108.04423   -10840.511   -9836.0084   -804.50705     102002.7      46.7237      46.7237      46.7237 
  461000    109.59807   -10880.597   -9861.6473   -851.60473     102002.7      46.7237      46.7237      46.7237 
  462000     109.5394   -10872.698    -9854.294   -652.11761     102002.7      46.7237      46.7237      46.7237 
  463000    110.71292   -10898.578    -9869.264   -352.70968     102002.7      46.7237      46.7237      46.7237 
  464000    110.09615   -10884.586   -9861.0057    -788.4777     102002.7      46.7237      46.7237      46.7237 
  465000    109.75683   -10876.813   -9856.3882   -514.28228     102002.7      46.7237      46.7237      46.7237 
  466000    109.30795   -10856.162   -9839.9096   -458.79958     102002.7      46.7237      46.7237      46.7237 
  467000    107.25828   -10870.495   -9873.2993   -620.19439     102002.7      46.7237      46.7237      46.7237 
  468000    109.31519   -10885.371    -9869.052   -445.26395     102002.7      46.7237      46.7237      46.7237 
  469000    111.25867   -10871.353   -9836.9651   -306.38521     102002.7      46.7237      46.7237      46.7237 
  470000    110.50826   -10879.147    -9851.736   -396.84032     102002.7      46.7237      46.7237      46.7237 
  471000    110.69284   -10888.105   -9858.9779   -680.96907     102002.7      46.7237      46.7237      46.7237 
  472000    111.46409    -10880.67   -9844.3723   -569.43132     102002.7      46.7237      46.7237      46.7237 
  473000    109.59518   -10867.529   -9848.6064   -420.22479     102002.7      46.7237      46.7237      46.7237 
  474000    111.33211   -10872.023    -9836.952   -593.07012     102002.7      46.7237      46.7237      46.7237 
  475000    108.88486   -10875.096   -9862.7778   -741.69894     102002.7      46.7237      46.7237      46.7237 
  476000    109.95417   -10870.005   -9847.7446   -604.23729     102002.7      46.7237      46.7237      46.7237 
  477000    115.54506   -10865.951   -9791.7111   -649.50597     102002.7      46.7237      46.7237      46.7237 
  478000    111.85635   -10884.469   -9844.5245   -479.44732     102002.7      46.7237      46.7237      46.7237 
  479000    108.31144   -10884.888   -9877.9007   -528.45301     102002.7      46.7237      46.7237      46.7237 
  480000    112.34704   -10860.762    -9816.255    -675.2682     102002.7      46.7237      46.7237      46.7237 
  481000    108.60073   -10874.032   -9864.3548   -620.34908     102002.7      46.7237      46.7237      46.7237 
  482000    109.80783   -10879.396   -9858.4965   -430.96999     102002.7      46.7237      46.7237      46.7237 
  483000    112.93483   -10853.131   -9803.1594   -510.63423     102002.7      46.7237      46.7237      46.7237 
  484000    111.76238   -10898.279   -9859.2078   -690.64315     102002.7      46.7237      46.7237      46.7237 
  485000    108.06204   -10855.888   -9851.2196   -627.96302     102002.7      46.7237      46.7237      46.7237 
  486000    109.47819   -10889.439   -9871.6039   -816.81244     102002.7      46.7237      46.7237      46.7237 
  487000    111.83024   -10885.671   -9845.9688   -705.17404     102002.7      46.7237      46.7237      46.7237 
  488000    109.29097   -10873.804   -9857.7096   -586.21386     102002.7      46.7237      46.7237      46.7237 
  489000    108.29525   -10893.427     -9886.59   -659.39025     102002.7      46.7237      46.7237      46.7237 
  490000    108.46788   -10893.555   -9885.1133   -687.40049     102002.7      46.7237      46.7237      46.7237 
  491000    110.83068    -10873.99   -9843.5812   -456.22196     102002.7      46.7237      46.7237      46.7237 
  492000    109.67564   -10868.151   -9848.4809   -493.45506     102002.7      46.7237      46.7237      46.7237 
  493000    109.53496   -10881.402   -9863.0396   -57.447894     102002.7      46.7237      46.7237      46.7237 
  494000    109.21421   -10869.063   -9853.6822   -353.10837     102002.7      46.7237      46.7237      46.7237 
  495000    109.90962   -10904.646   -9882.8006   -382.83658     102002.7      46.7237      46.7237      46.7237 
  496000    109.90335   -10908.448   -9886.6602   -647.54188     102002.7      46.7237      46.7237      46.7237 
  497000    107.92896   -10893.766   -9890.3345   -489.14029     102002.7      46.7237      46.7237      46.7237 
  498000    110.51014     -10878.4   -9850.9715   -326.91895     102002.7      46.7237      46.7237      46.7237 
  499000    112.66308   -10887.767   -9840.3216   -393.78735     102002.7      46.7237      46.7237      46.7237 
  500000    109.52345   -10885.715   -9867.4598   -700.82795     102002.7      46.7237      46.7237      46.7237 
  500500    107.43103   -10905.589    -9906.787   -619.63318     102002.7      46.7237      46.7237      46.7237 
Loop time of 910.078 on 24 procs for 500000 steps with 3120 atoms

Performance: 47.468 ns/day, 0.506 hours/ns, 549.403 timesteps/s
98.0% CPU use with 24 MPI tasks x no OpenMP threads

MPI task timing breakdown:
Section |  min time  |  avg time  |  max time  |%varavg| %total
---------------------------------------------------------------
Pair    | 287.01     | 455.46     | 651.68     | 545.8 | 50.05
Bond    | 50.925     | 78.474     | 106.57     | 221.1 |  8.62
Neigh   | 7.7668     | 7.7941     | 7.8211     |   0.6 |  0.86
Comm    | 131.73     | 352.81     | 541.87     | 714.6 | 38.77
Output  | 0.49322    | 0.49361    | 0.49822    |   0.1 |  0.05
Modify  | 4.3417     | 5.1217     | 5.8666     |  25.2 |  0.56
Other   |            | 9.918      |            |       |  1.09

Nlocal:    130 ave 172 max 88 min
Histogram: 1 2 3 2 3 4 4 1 3 1
Nghost:    3507.17 ave 3681 max 3402 min
Histogram: 6 9 1 0 0 0 0 0 4 4
Neighs:    7637.46 ave 15043 max 1614 min
Histogram: 2 3 5 2 1 3 4 0 2 2

Total # of neighbors = 183299
Ave neighs/atom = 58.7497
Ave special neighs/atom = 3.69231
Neighbor list builds = 4715
Dangerous builds = 0
Neighbor list info ...
  update every 1 steps, delay 10 steps, check yes
  max neighbors/atom: 2000, page size: 100000
  master list distance cutoff = 16
  ghost atom cutoff = 16
  binsize = 8, bins = 6 6 6
  3 neighbor lists, perpetual/occasional/extra = 3 0 0
  (1) pair buck6d/coul/gauss/dsf, perpetual, skip from (3)
      attributes: half, newton on
      pair build: skip
      stencil: none
      bin: none
  (2) pair lj/cut, perpetual, skip from (3)
      attributes: half, newton on
      pair build: skip
      stencil: none
      bin: none
  (3) neighbor class addition, perpetual
      attributes: half, newton on
      pair build: half/bin/newton
      stencil: half/bin/3d/newton
      bin: standard
Setting up Verlet run ...
  Unit style    : real
  Current step  : 500500
  Time step     : 1
WARNING: Inconsistent image flags (../domain.cpp:786)
Per MPI rank memory allocation (min/avg/max) = 23.9 | 24.5 | 24.66 Mbytes
Step Time TotEng KinEng PotEng E_mol E_pair Temp Pxx Pyy Pzz Pxy Pxz Pyz Cella Cellb Cellc CellAlpha CellBeta CellGamma Volume Press 
  500500       500000    -9906.787    998.80203   -10905.589    4263.0705   -15168.659    107.43103   -681.38629   -823.16596   -354.34728    71.289266    174.19172   -34.753076      46.7237      46.7237      46.7237           90           90           90     102002.7   -619.63318 
  501000       500500   -9882.6444     1017.453   -10900.097    4277.1097   -15177.207    109.43712   -748.73454   -333.59045   -286.78266    137.61917     50.63685     111.1662      46.7237      46.7237      46.7237           90           90           90     102002.7   -456.36922 
  502000       501500   -9843.6649    1041.5673   -10885.232    4257.5629   -15142.795    112.03086   -811.26874   -275.98794   -270.58788    286.83954    20.557476    190.84199      46.7237      46.7237      46.7237           90           90           90     102002.7   -452.61485 
  503000       502500   -9855.1925    1022.5807   -10877.773    4295.0315   -15172.805    109.98866   -39.609602   -888.94528   -420.82985    61.393633   -82.958698   -15.002422      46.7237      46.7237      46.7237           90           90           90     102002.7   -449.79491 
  504000       503500   -9853.6156    1034.0573   -10887.673    4260.3236   -15147.996    111.22308   -746.79893   -448.95589   -726.75679    101.60593     249.9836     81.66112      46.7237      46.7237      46.7237           90           90           90     102002.7   -640.83721 
  505000       504500    -9889.807    1012.4113   -10902.218    4281.2414    -15183.46    108.89485   -625.32078   -532.53872   -543.97264    143.21836   -12.856445    -1.601629      46.7237      46.7237      46.7237           90           90           90     102002.7   -567.27738 
  506000       505500   -9870.2748     1018.881   -10889.156    4272.0361   -15161.192    109.59072   -394.58826   -175.30896   -934.49733    48.062263   -187.08799   -172.30607      46.7237      46.7237      46.7237           90           90           90     102002.7   -501.46485 
  507000       506500   -9864.9063    1028.5476   -10893.454    4280.5804   -15174.034    110.63045   -518.72071   -882.25986   -990.64481   -17.863386    75.051385   -155.53381      46.7237      46.7237      46.7237           90           90           90     102002.7   -797.20846 
  508000       507500   -9858.0668    1019.4247   -10877.492     4291.223   -15168.715     109.6492   -845.19726   -677.21411   -525.97888    59.408795   -256.75182    144.75842      46.7237      46.7237      46.7237           90           90           90     102002.7   -682.79675 
  509000       508500    -9870.125    1011.4779   -10881.603    4281.9826   -15163.586    108.79444   -450.88156   -623.09635   -765.34869    47.523055   -269.98509    104.93463      46.7237      46.7237      46.7237           90           90           90     102002.7   -613.10887 
  510000       509500   -9884.8231    1018.3478   -10903.171    4278.0274   -15181.198    109.53337   -599.11819   -714.37852   -597.10965    58.876912   -89.899312   -192.15262      46.7237      46.7237      46.7237           90           90           90     102002.7   -636.86879 
  511000       510500   -9838.8382    1024.4687   -10863.307    4276.7435    -15140.05    110.19174    75.115764   -1009.4143   -370.30225    147.18983    234.59297   -43.078717      46.7237      46.7237      46.7237           90           90           90     102002.7   -434.86694 
  512000       511500    -9900.652    1016.6829   -10917.335    4257.8017   -15175.137    109.35429    -359.8971   -483.46178   -1274.8663     22.11836    15.710748    72.795193      46.7237      46.7237      46.7237           90           90           90     102002.7   -706.07507 
  513000       512500   -9873.8989    1013.2442   -10887.143    4278.7841   -15165.927    108.98443    -9.687574   -751.36355   -401.08911   -195.19662   -177.98217   -150.72877      46.7237      46.7237      46.7237           90           90           90     102002.7   -387.38008 
  514000       513500   -9857.3117    1033.8238   -10891.136    4276.2068   -15167.342    111.19797   -228.53459   -369.66754   -749.85284   -77.759065    -148.9805   -103.70162      46.7237      46.7237      46.7237           90           90           90     102002.7   -449.35165 
  515000       514500   -9887.8612     1005.348   -10893.209    4262.4656   -15155.675    108.13511   -521.06632   -660.68149   -308.87062   -95.126844    240.38744    106.49022      46.7237      46.7237      46.7237           90           90           90     102002.7   -496.87281 
  516000       515500   -9862.1963    1053.4933    -10915.69    4268.4896   -15184.179    113.31361   -515.72379   -1013.1138    149.92649    18.567791     33.59148    126.45216      46.7237      46.7237      46.7237           90           90           90     102002.7   -459.63703 
  517000       516500   -9897.3041    982.91807   -10880.222    4306.1282    -15186.35    105.72255   -632.62428   -481.86395   -847.88493   -77.349648   -51.287152   -33.306194      46.7237      46.7237      46.7237           90           90           90     102002.7   -654.12439 
  518000       517500   -9844.3247     1035.567   -10879.892    4282.1702   -15162.062    111.38547   -327.54292   -625.82739   -989.87092    94.370706     81.62964    237.05508      46.7237      46.7237      46.7237           90           90           90     102002.7   -647.74708 
  519000       518500   -9868.8102    1015.1374   -10883.948    4299.2698   -15183.217    109.18806   -549.61388    -716.6644   -673.08117    27.604245    52.301177   -36.934494      46.7237      46.7237      46.7237           90           90           90     102002.7   -646.45315 
  520000       519500   -9857.2311    1029.7438   -10886.975    4279.6199   -15166.595    110.75913   -396.13791   -682.39822   -737.96299   -61.370781    94.088597   -128.43436      46.7237      46.7237      46.7237           90           90           90     102002.7   -605.49971 
  521000       520500   -9893.9759    1001.6853   -10895.661    4278.3182   -15173.979    107.74115   -1023.0655    -506.0215   -925.42171   -44.716121     70.72039   -263.30622      46.7237      46.7237      46.7237           90           90           90     102002.7   -818.16957 
  522000       521500   -9844.6476    1010.9868   -10855.634    4319.6429   -15175.277    108.74162   -632.17331   -720.37055    -729.3838   -24.644749   -115.92909   -125.58722      46.7237      46.7237      46.7237           90           90           90     102002.7   -693.97589 
  523000       522500   -9910.1239    1015.7399   -10925.864    4251.6652   -15177.529    109.25286   -747.92658   -868.60604   -342.78415    131.81867   -173.45713    54.719073      46.7237      46.7237      46.7237           90           90           90     102002.7   -653.10559 
  524000       523500   -9881.4043    1015.9992   -10897.403    4264.4888   -15161.892    109.28075   -539.85803   -709.87922   -366.13148   -123.81976   -41.946045   -144.03476      46.7237      46.7237      46.7237           90           90           90     102002.7   -538.62291 
  525000       524500   -9858.6229    1032.4001   -10891.023    4285.2672    -15176.29    111.04483   -633.21921   -699.20182   -733.01569    76.713217    244.70255    76.430444      46.7237      46.7237      46.7237           90           90           90     102002.7    -688.4789 
  526000       525500   -9885.1146    1005.4136   -10890.528    4283.0165   -15173.545    108.14217   -715.24326   -595.56873    -138.9887     174.8271     7.889531   -35.803342      46.7237      46.7237      46.7237           90           90           90     102002.7    -483.2669 
  527000       526500   -9870.4973     1018.135   -10888.632    4279.5229   -15168.155    109.51049   -567.00935   -545.50336   -236.11611   -1.5003287   -101.93063    40.982013      46.7237      46.7237      46.7237           90           90           90     102002.7   -449.54294 
  528000       527500   -9856.3194    1019.1679   -10875.487    4274.4914   -15149.979    109.62158   -597.03366   -577.10981   -361.20166   -118.38173   -17.479113   -34.357917      46.7237      46.7237      46.7237           90           90           90     102002.7   -511.78171 
  529000       528500   -9888.3246     1002.681   -10891.006    4273.0257   -15164.031    107.84825   -1022.8354    -385.6402    -502.8793      -170.66   -53.243069    154.43616      46.7237      46.7237      46.7237           90           90           90     102002.7    -637.1183 
  530000       529500   -9824.6121    1043.4485   -10868.061    4289.9912   -15158.052     112.2332   -455.64771   -351.45181   -337.25048    254.88475    131.51723    209.18731      46.7237      46.7237      46.7237           90           90           90     102002.7      -381.45 
  531000       530500   -9858.0581    1030.6643   -10888.722    4282.9424   -15171.665    110.85814   -677.69042   -605.75832    3.4833731    22.216066   -39.730388    -95.08352      46.7237      46.7237      46.7237           90           90           90     102002.7   -426.65512 
  532000       531500   -9825.8019    1029.1283    -10854.93    4287.1507   -15142.081    110.69292   -459.83386    -594.8092   -714.46486   -127.05315    55.210724    128.61265      46.7237      46.7237      46.7237           90           90           90     102002.7   -589.70264 
  533000       532500   -9858.9562    1036.0374   -10894.994    4281.9912   -15176.985    111.43606    -798.7485   -491.58069    -882.0448   -118.53438    99.356585    22.479027      46.7237      46.7237      46.7237           90           90           90     102002.7   -724.12466 
  534000       533500   -9871.9288     1024.206   -10896.135    4263.8554    -15159.99    110.16348   -1164.6729   -470.51379   -469.94292    104.39823    139.77191   -141.89651      46.7237      46.7237      46.7237           90           90           90     102002.7   -701.70986 
  535000       534500   -9856.9677    1025.2875   -10882.255    4271.7409   -15153.996     110.2798    -483.3605   -931.15711   -1014.2283    94.784086   -89.566164    36.869629      46.7237      46.7237      46.7237           90           90           90     102002.7   -809.58197 
  536000       535500   -9866.0131    1019.0869     -10885.1    4284.6591   -15169.759    109.61286    -175.8527   -838.64144   -527.61843   -278.61172    108.04338   -12.928139      46.7237      46.7237      46.7237           90           90           90     102002.7   -514.03752 
  537000       536500   -9860.7772    1029.9517   -10890.729    4283.8188   -15174.548    110.78148   -1238.7385    -717.0987    -987.3224   -169.84765    51.848789   -196.59882      46.7237      46.7237      46.7237           90           90           90     102002.7   -981.05319 
  538000       537500   -9854.3485    1010.5948   -10864.943    4283.9937   -15148.937    108.69946   -843.80384   -695.90378   -480.98774    51.567776   -13.874747    72.558944      46.7237      46.7237      46.7237           90           90           90     102002.7   -673.56512 
  539000       538500   -9863.2752    1023.4231   -10886.698    4269.6418    -15156.34    110.07927   -368.61256   -387.45367   -140.13345    -170.9596   -25.125138    255.63428      46.7237      46.7237      46.7237           90           90           90     102002.7   -298.73322 
  540000       539500   -9843.3031    1030.8196   -10874.123    4279.0603   -15153.183    110.87484   -677.05488   -610.82916   -588.03421    -157.1342   -5.7332378   -233.19942      46.7237      46.7237      46.7237           90           90           90     102002.7   -625.30608 
  541000       540500    -9833.793    1048.5019   -10882.295    4282.4309   -15164.726    112.77674   -196.38096   -456.16542   -310.40654    77.256912     48.06921   -140.37591      46.7237      46.7237      46.7237           90           90           90     102002.7   -320.98431 
  542000       541500   -9845.2752    1030.1285   -10875.404    4306.1948   -15181.599     110.8005   -555.17238   -401.72374   -736.59567    109.98352   -27.804834    154.70592      46.7237      46.7237      46.7237           90           90           90     102002.7   -564.49726 
  543000       542500   -9840.0656     1021.062   -10861.128    4303.9819    -15165.11    109.82531    -593.2914   -492.37084   -257.31845    78.426074   -377.82101     144.8123      46.7237      46.7237      46.7237           90           90           90     102002.7   -447.66023 
  544000       543500   -9880.6401    1015.7175   -10896.358     4301.635   -15197.993    109.25045    -979.0776   -585.27054   -628.83423    88.150155     22.00287    34.674238      46.7237      46.7237      46.7237           90           90           90     102002.7   -731.06079 
  545000       544500   -9877.8118    1007.8149   -10885.627    4268.9263   -15154.553    108.40045   -686.10341   -805.29223    -281.2455   -295.90624   -135.00016    83.315212      46.7237      46.7237      46.7237           90           90           90     102002.7   -590.88038 
  546000       545500   -9875.7833    1009.5664    -10885.35    4268.8522   -15154.202    108.58884   -577.16411   -449.71707   -217.48309    123.57587   -49.483868   -80.979056      46.7237      46.7237      46.7237           90           90           90     102002.7   -414.78809 
  547000       546500   -9862.4361    1017.8312   -10880.267    4280.7871   -15161.054     109.4778   -910.42839   -697.36883   -584.29543    23.158778    -35.75484    15.167971      46.7237      46.7237      46.7237           90           90           90     102002.7   -730.69755 
  548000       547500   -9868.4507    1031.1611   -10899.612    4273.5862   -15173.198    110.91157    -545.5561   -844.98374   -148.46716   -235.14751   -134.31788    215.85394      46.7237      46.7237      46.7237           90           90           90     102002.7   -513.00233 
  549000       548500   -9833.8148    1048.6426   -10882.457    4287.2179   -15169.675    112.79187   -331.77281   -828.09799   -528.31906   -19.783807    272.60067   -129.06223      46.7237      46.7237      46.7237           90           90           90     102002.7   -562.72995 
  550000       549500   -9874.4002    1027.9178   -10902.318    4270.2951   -15172.613    110.56272   -376.77002     -661.822   -395.88572    56.534744   -9.6748588    36.967365      46.7237      46.7237      46.7237           90           90           90     102002.7   -478.15925 
  551000       550500   -9866.5188    1013.8106   -10880.329    4284.5566   -15164.886    109.04535   -734.63557   -287.96892   -745.69375   -115.14448   -7.7513622    63.328322      46.7237      46.7237      46.7237           90           90           90     102002.7   -589.43274 
  552000       551500   -9880.2681     1013.603   -10893.871     4263.777   -15157.648    109.02303   -374.26254   -1034.6833   -654.04119 -0.048705144    180.71569    113.17662      46.7237      46.7237      46.7237           90           90           90     102002.7   -687.66233 
  553000       552500   -9841.3569     1024.901   -10866.258    4284.3388   -15150.597    110.23824   -453.99158   -338.55058   -301.01662    158.10126    41.823073    148.05849      46.7237      46.7237      46.7237           90           90           90     102002.7   -364.51959 
  554000       553500   -9868.2093    1027.0684   -10895.278    4263.0203   -15158.298    110.47136   -602.10164   -449.21155   -389.81342   -210.36562    25.884052   -167.18187      46.7237      46.7237      46.7237           90           90           90     102002.7   -480.37554 
  555000       554500   -9872.7068    1010.6996   -10883.406    4286.4186   -15169.825    108.71073   -787.95598   -387.68514   -691.13914   -187.93441    -255.7613   -4.5949806      46.7237      46.7237      46.7237           90           90           90     102002.7   -622.26009 
[...]
  936000       935500   -9859.9177    1016.0388   -10875.956    4287.9765   -15163.933    109.28501   -914.99861   -1121.5176    -881.5542    43.314031   -125.64516   -74.274989      46.7237      46.7237      46.7237           90           90           90     102002.7   -972.69013 
  937000       936500   -9863.9182    1011.5483   -10875.466    4298.1894   -15173.656    108.80201   -752.62123   -713.11012   -905.17067    42.588148   -37.469384    177.40612      46.7237      46.7237      46.7237           90           90           90     102002.7   -790.30068 
  938000       937500   -9861.6192    1011.7972   -10873.416    4286.0128   -15159.429    108.82878   -846.14068   -676.05679    -754.4166   -56.338234   -238.28874   -196.27477      46.7237      46.7237      46.7237           90           90           90     102002.7   -758.87136 
  939000       938500   -9876.9611    1021.6092    -10898.57    4268.2563   -15166.827    109.88417    -960.5312   -953.94762   -929.67387    312.58164    42.722919   -58.589231      46.7237      46.7237      46.7237           90           90           90     102002.7    -948.0509 
  940000       939500   -9829.9099    1035.3151   -10865.225    4284.9948    -15150.22    111.35838   -332.55526   -656.66072   -539.01127    37.560742   -218.35672    6.8716603      46.7237      46.7237      46.7237           90           90           90     102002.7   -509.40908 
  941000       940500   -9838.4333    1038.7864    -10877.22    4266.2401    -15143.46    111.73175   -897.42911   -613.77525   -1013.3146   -175.48827    55.392608    59.282312      46.7237      46.7237      46.7237           90           90           90     102002.7   -841.50632 
  942000       941500   -9838.0491    1032.5618   -10870.611    4283.1115   -15153.722    111.06223   -242.40272   -595.55824   -423.95312    128.61468   -184.75202   -31.515642      46.7237      46.7237      46.7237           90           90           90     102002.7   -420.63803 
  943000       942500   -9845.9797    1031.2697   -10877.249    4282.0685   -15159.318    110.92325   -860.56307   -697.42201   -735.43347   -71.069321    187.27151    3.7258389      46.7237      46.7237      46.7237           90           90           90     102002.7   -764.47285 
  944000       943500   -9889.4768    982.97864   -10872.455     4270.707   -15143.162    105.72907   -390.72737   -1140.8896    -599.9907   -193.81984    33.887766   -190.46619      46.7237      46.7237      46.7237           90           90           90     102002.7   -710.53589 
  945000       944500   -9810.3536    1036.3366    -10846.69    4294.1349   -15140.825    111.46825    -693.8952   -495.46333   -520.52483   -7.5314352   -17.240009    -120.9165      46.7237      46.7237      46.7237           90           90           90     102002.7   -569.96112 
  946000       945500   -9855.8313    1023.5044   -10879.336    4266.6383   -15145.974    110.08802      -475.68    -503.1006    -940.3871   -70.554303   -143.21207     154.8311      46.7237      46.7237      46.7237           90           90           90     102002.7   -639.72257 
  947000       946500   -9907.2039    982.54656    -10889.75    4284.0235   -15173.774    105.68259    -481.3435   -159.70229   -164.58181    3.0426207    270.28284    53.179475      46.7237      46.7237      46.7237           90           90           90     102002.7   -268.54253 
  948000       947500   -9854.2875    1006.5067   -10860.794     4270.421   -15131.215    108.25974   -377.88443   -777.92312   -394.58939   -72.219566    75.178974   -29.464638      46.7237      46.7237      46.7237           90           90           90     102002.7   -516.79898 
  949000       948500   -9856.9343    1005.4217   -10862.356    4302.9304   -15165.286    108.14304   -360.47447   -596.44964   -467.48685    175.12126   -177.65467    87.132489      46.7237      46.7237      46.7237           90           90           90     102002.7   -474.80365 
  950000       949500   -9875.8808     1019.443   -10895.324    4285.3227   -15180.646    109.65117   -472.74994    -715.3486   -1081.6256   -159.03501    8.4886534    155.67199      46.7237      46.7237      46.7237           90           90           90     102002.7   -756.57473 
  951000       950500   -9858.9454    1008.1728   -10867.118    4300.7543   -15167.872    108.43895   -920.41392   -569.20887   -963.70483    448.74506   -48.549559    219.08879      46.7237      46.7237      46.7237           90           90           90     102002.7   -817.77587 
  952000       951500   -9866.2299     1020.846   -10887.076    4285.9125   -15172.988    109.80208   -718.31586   -696.11208   -537.68372    67.959408    9.8942717    47.853294      46.7237      46.7237      46.7237           90           90           90     102002.7   -650.70389 
  953000       952500   -9868.3174    1023.9165   -10892.234    4270.4894   -15162.723    110.13234   -349.91653   -990.66255   -939.17991     174.4452   -352.08379   -94.738477      46.7237      46.7237      46.7237           90           90           90     102002.7   -759.91966 
  954000       953500   -9837.3551    1032.5922   -10869.947    4283.9973   -15153.945     111.0655   -700.50815   -1237.8651   -498.23609   -97.438147   -110.67289   -210.19885      46.7237      46.7237      46.7237           90           90           90     102002.7   -812.20312 
  955000       954500   -9874.3823    1022.3946   -10896.777    4272.9599   -15169.737    109.96864     96.44089   -868.93281   -632.67547    205.70666   -225.77371   -149.57878      46.7237      46.7237      46.7237           90           90           90     102002.7   -468.38913 
  956000       955500   -9875.0547    1035.9223   -10910.977    4258.6645   -15169.642    111.42368   -567.68937   -600.56501   -655.16838    283.62968    17.376784    -116.1733      46.7237      46.7237      46.7237           90           90           90     102002.7   -607.80759 
  957000       956500   -9856.4511    1029.7965   -10886.248    4291.0227    -15177.27    110.76479   -213.90089   -899.01086   -420.26319   -320.09304   -24.877269    22.553432      46.7237      46.7237      46.7237           90           90           90     102002.7   -511.05831 
  958000       957500    -9851.504    1020.4312   -10871.935    4267.9769   -15139.912    109.75746   -646.08419   -82.042333   -660.39225    56.107758     6.365067   -96.239826      46.7237      46.7237      46.7237           90           90           90     102002.7   -462.83959 
  959000       958500   -9913.4056    993.03104   -10906.437    4287.6828   -15194.119     106.8103   -633.45267   -871.12862   -680.17902   -84.278344    100.68451   -81.144465      46.7237      46.7237      46.7237           90           90           90     102002.7   -728.25344 
  960000       959500    -9866.231    1025.7215   -10891.953    4283.8552   -15175.808    110.32648   -687.02271   -874.11509   -520.90482   -203.98253    -262.2531    19.118715      46.7237      46.7237      46.7237           90           90           90     102002.7   -694.01421 
  961000       960500   -9839.1419    1017.9757   -10857.118    4296.8367   -15153.954    109.49334   -1111.4935   -726.59883   -567.44167   -24.859972   -215.82265    129.71897      46.7237      46.7237      46.7237           90           90           90     102002.7   -801.84467 
  962000       961500   -9849.0673    1046.1149   -10895.182    4276.0895   -15171.272       112.52    -560.5886   -849.42313   -61.242045    -178.5131   -188.36502   -351.49684      46.7237      46.7237      46.7237           90           90           90     102002.7   -490.41793 
  963000       962500   -9888.2362    1003.3837    -10891.62    4277.4493   -15169.069    107.92383   -229.29184   -516.36911   -790.97726    -77.93295    140.66682   -175.01702      46.7237      46.7237      46.7237           90           90           90     102002.7   -512.21274 
  964000       963500   -9877.7974    1004.7632   -10882.561    4279.2681   -15161.829    108.07222   -518.70946    -708.0292   -704.29469    206.60978     92.70572    45.003658      46.7237      46.7237      46.7237           90           90           90     102002.7   -643.67778 
  965000       964500   -9848.4939    1030.7035   -10879.197    4278.7296   -15157.927    110.86235   -432.79311   -836.38722   -211.14876    42.582812   -95.333331    125.69778      46.7237      46.7237      46.7237           90           90           90     102002.7   -493.44303 
  966000       965500   -9852.5778    1013.6694   -10866.247    4278.0102   -15144.257    109.03017   -427.37135   -117.75307   -143.05047    256.22199   -11.014674    89.385441      46.7237      46.7237      46.7237           90           90           90     102002.7   -229.39163 
  967000       966500   -9879.5338    988.92459   -10868.458    4284.0281   -15152.486    106.36861   -477.92876   -75.431005   -785.60714   -11.385509    321.92432   -68.837321      46.7237      46.7237      46.7237           90           90           90     102002.7    -446.3223 
  968000       967500   -9840.5138    1033.7015   -10874.215    4275.8587   -15150.074    111.18481   -854.62299    -414.4788   -659.51694    249.34411    117.11697   -165.59437      46.7237      46.7237      46.7237           90           90           90     102002.7   -642.87291 
  969000       968500   -9801.3946    1065.5313   -10866.926    4273.6938    -15140.62    114.60842   -820.75753   -3.3539682    150.17601   -24.622097    134.76922    160.82028      46.7237      46.7237      46.7237           90           90           90     102002.7   -224.64517 
  970000       969500   -9867.8609    1023.9967   -10891.858    4262.3927    -15154.25    110.14096   -282.60946   -756.19409   -401.60018   -5.3740723   -158.11165    33.473242      46.7237      46.7237      46.7237           90           90           90     102002.7   -480.13458 
  971000       970500   -9845.2124    1023.5904   -10868.803     4289.477    -15158.28    110.09726   -570.39273   -458.67645   -536.68068   -120.28355    77.369785    20.031717      46.7237      46.7237      46.7237           90           90           90     102002.7   -521.91662 
  972000       971500   -9849.8238    1008.1907   -10858.015    4269.3086   -15127.323    108.44087   -425.41991   -576.43754   -483.32311   -157.13606    45.289565   -177.63895      46.7237      46.7237      46.7237           90           90           90     102002.7   -495.06019 
  973000       972500   -9853.3975    1021.7337   -10875.131    4311.8866   -15187.018    109.89756   -731.81792   -294.87385   -603.40096   -114.11955    111.48007   -163.84722      46.7237      46.7237      46.7237           90           90           90     102002.7   -543.36424 
  974000       973500   -9886.3279    1013.7342   -10900.062    4255.6746   -15155.737    109.03714   -1143.6459   -947.86921   -487.30421   -40.883435    331.09082    10.210996      46.7237      46.7237      46.7237           90           90           90     102002.7   -859.60646 
  975000       974500    -9856.183    1030.8984   -10887.081     4263.525   -15150.606    110.88331   -600.52875   -532.15419   -217.77494   -102.05845    129.96096   -39.751028      46.7237      46.7237      46.7237           90           90           90     102002.7   -450.15263 
  976000       975500   -9844.0172     1027.668   -10871.685    4271.5931   -15143.278    110.53586   -1238.1004   -835.06114   -86.993447    83.045532   -121.24515   -91.655278      46.7237      46.7237      46.7237           90           90           90     102002.7   -720.05168 
  977000       976500    -9849.487    1042.7178   -10892.205    4280.3373   -15172.542     112.1546   -1068.0525   -455.23468   -867.95911   -114.47593   -215.37877    36.363018      46.7237      46.7237      46.7237           90           90           90     102002.7   -797.08211 
  978000       977500   -9873.7355    1039.5988   -10913.334    4261.4022   -15174.737    111.81913   -400.40836   -1472.6909   -1060.4983    239.93715    89.923113    50.116806      46.7237      46.7237      46.7237           90           90           90     102002.7   -977.86586 
  979000       978500   -9858.7319    1038.8242   -10897.556    4274.2259   -15171.782    111.73581   -499.55678   -924.27579   -872.04548    309.72373   -26.006634    108.47736      46.7237      46.7237      46.7237           90           90           90     102002.7   -765.29268 
  980000       979500   -9845.5773    1036.9421   -10882.519    4280.4118   -15162.931    111.53337   -463.03554   -689.91088   -467.81546    153.03383   -101.28125    53.261151      46.7237      46.7237      46.7237           90           90           90     102002.7   -540.25396 
  981000       980500    -9857.506    1014.5826   -10872.089    4273.2433   -15145.332    109.12839   -917.90744   -367.84121   -530.18041   -18.844841    85.123093    230.53854      46.7237      46.7237      46.7237           90           90           90     102002.7   -605.30969 
  982000       981500   -9859.1636    1029.3542   -10888.518    4284.2795   -15172.797    110.71722    -468.2818   -1130.4149   -647.81542    77.248795   -24.882501    140.71178      46.7237      46.7237      46.7237           90           90           90     102002.7   -748.83737 
  983000       982500   -9882.2118    1034.4072   -10916.619    4276.2095   -15192.829    111.26072    -587.8723   -548.98681    -755.8886    191.08315    101.19937   -46.714873      46.7237      46.7237      46.7237           90           90           90     102002.7    -630.9159 
  984000       983500   -9853.9585    1030.2498   -10884.208    4273.2257   -15157.434    110.81355   -302.76402   -869.67218   -824.88973    72.520679    27.735488   -247.55093      46.7237      46.7237      46.7237           90           90           90     102002.7   -665.77531 
  985000       984500   -9855.7157    1023.4631   -10879.179    4267.3926   -15146.571    110.08358   -626.74692   -797.15041   -715.37913   -251.69915    160.96843   -183.65043      46.7237      46.7237      46.7237           90           90           90     102002.7   -713.09215 
  986000       985500   -9853.4766    1024.1426   -10877.619    4289.0162   -15166.635    110.15666   -418.96063   -102.02187   -500.70447   -127.72352     63.28961   -49.069214      46.7237      46.7237      46.7237           90           90           90     102002.7   -340.56232 
  987000       986500   -9874.5181    1018.9696   -10893.488     4281.437   -15174.925    109.60025   -479.24143   -698.30102   -829.96197    26.649938    71.474818   -120.43565      46.7237      46.7237      46.7237           90           90           90     102002.7   -669.16814 
  988000       987500     -9856.03    1018.0943   -10874.124    4278.0681   -15152.192    109.50611   -991.22813   -540.74421   -355.95721    45.564523   -70.099845    217.71081      46.7237      46.7237      46.7237           90           90           90     102002.7   -629.30985 
  989000       988500   -9840.2662    1044.9846   -10885.251    4285.4758   -15170.727    112.39842   -897.10763   -1451.0141   -162.00989   -9.2250551   -209.50454   -293.16744      46.7237      46.7237      46.7237           90           90           90     102002.7   -836.71052 
  990000       989500   -9864.9398    1021.3697    -10886.31    4265.9453   -15152.255    109.85841   -922.51224   -337.18857   -140.03427    127.49159   -27.825082    21.900525      46.7237      46.7237      46.7237           90           90           90     102002.7   -466.57836 
  991000       990500   -9838.3498    1047.6856   -10886.035    4261.4649     -15147.5    112.68894   -488.16563   -546.03249   -52.456144    39.776948    102.83882    3.0855595      46.7237      46.7237      46.7237           90           90           90     102002.7   -362.21809 
  992000       991500   -9887.2826    1027.8709   -10915.153     4263.814   -15178.968    110.55768   -1151.9274    -957.3037   -518.89925    53.686687    3.9243335   -22.362071      46.7237      46.7237      46.7237           90           90           90     102002.7   -876.04347 
  993000       992500   -9845.4131    1045.3953   -10890.808     4274.159   -15164.967    112.44259   -595.61318   -791.73555   -793.30194    75.843953   -15.878798   -119.41113      46.7237      46.7237      46.7237           90           90           90     102002.7   -726.88356 
  994000       993500   -9825.4294    1030.6717   -10856.101    4305.5092    -15161.61    110.85893   -507.74354   -475.81224   -672.92945    19.534458   -55.132321   -47.650898      46.7237      46.7237      46.7237           90           90           90     102002.7   -552.16174 
  995000       994500   -9828.5768    1031.0053   -10859.582    4284.3244   -15143.906    110.89481   -408.26313   -558.31745   -953.76921   -20.286251   -39.067099    306.97982      46.7237      46.7237      46.7237           90           90           90     102002.7    -640.1166 
  996000       995500   -9842.2996    1045.0439   -10887.344    4288.3472   -15175.691     112.4048    -842.3674   -760.18646   -112.94286    60.074856   -148.64853   -211.48883      46.7237      46.7237      46.7237           90           90           90     102002.7   -571.83224 
  997000       996500    -9907.696    983.56497   -10891.261    4276.5235   -15167.784    105.79213   -532.87237   -606.77096   -478.37919    402.38129    57.732574    3.0342074      46.7237      46.7237      46.7237           90           90           90     102002.7   -539.34084 
  998000       997500    -9845.721    1030.5606   -10876.282    4264.9987    -15141.28    110.84698   -697.03736   -713.40065   -290.88471   -29.158075    75.949593   -21.866228      46.7237      46.7237      46.7237           90           90           90     102002.7   -567.10757 
  999000       998500   -9819.3536     1059.706    -10879.06    4291.3496   -15170.409    113.98186   -438.28868    -606.5952   -728.89654   -116.15861   -132.90929    250.55469      46.7237      46.7237      46.7237           90           90           90     102002.7   -591.26014 
 1000000       999500   -9880.4401    1004.5828   -10885.023    4277.4854   -15162.508    108.05281   -952.32553   -458.01425   -818.36592    73.879284    8.8175033   -80.573056      46.7237      46.7237      46.7237           90           90           90     102002.7    -742.9019 
 1000500      1000000   -9856.8332    1008.3477   -10865.181    4284.7182   -15149.899    108.45776   -303.20244   -521.23264   -780.32265   -11.680446    280.74944   -73.945294      46.7237      46.7237      46.7237           90           90           90     102002.7   -534.91924 
Loop time of 1090.55 on 24 procs for 500000 steps with 3120 atoms

Performance: 39.613 ns/day, 0.606 hours/ns, 458.484 timesteps/s
98.3% CPU use with 24 MPI tasks x no OpenMP threads

MPI task timing breakdown:
Section |  min time  |  avg time  |  max time  |%varavg| %total
---------------------------------------------------------------
Pair    | 326.29     | 547.39     | 817.94     | 675.2 | 50.19
Bond    | 37.834     | 82.394     | 133.89     | 325.7 |  7.56
Neigh   | 7.9912     | 8.0227     | 8.0514     |   0.7 |  0.74
Comm    | 108.55     | 428.7      | 685.45     | 895.4 | 39.31
Output  | 0.83203    | 0.87863    | 0.88081    |   1.0 |  0.08
Modify  | 12.329     | 13.401     | 14.241     |  19.1 |  1.23
Other   |            | 9.764      |            |       |  0.90

Nlocal:    130 ave 176 max 92 min
Histogram: 2 2 1 3 6 6 0 2 1 1
Nghost:    3510.88 ave 3663 max 3406 min
Histogram: 1 8 6 1 0 0 1 1 4 2
Neighs:    7635.83 ave 13914 max 1991 min
Histogram: 2 2 3 4 4 1 3 1 1 3

Total # of neighbors = 183260
Ave neighs/atom = 58.7372
Ave special neighs/atom = 3.69231
Neighbor list builds = 4693
Dangerous builds = 0
Total wall time: 0:33:22
