LAMMPS (30 Mar 2018)
Reading data file ...
  orthogonal box = (0 0 0) to (46.7237 46.7237 46.7237)
  2 by 3 by 4 MPI processor grid
  reading atoms ...
  2024 atoms
  scanning bonds ...
  5 = max bonds/atom
  scanning angles ...
  10 = max angles/atom
  scanning dihedrals ...
  32 = max dihedrals/atom
  scanning impropers ...
  3 = max impropers/atom
  reading bonds ...
  2064 bonds
  reading angles ...
  3696 angles
  reading dihedrals ...
  6240 dihedrals
  reading impropers ...
  1008 impropers
Finding 1-2 1-3 1-4 neighbors ...
  special bond factors lj:   0          0          0         
  special bond factors coul: 0          0          0         
  5 = max # of 1-2 neighbors
  8 = max # of 1-3 neighbors
  20 = max # of 1-4 neighbors
  19 = max # of special neighbors
Finding 1-2 1-3 1-4 neighbors ...
  special bond factors lj:   0          0          1         
  special bond factors coul: 1          1          1         
  5 = max # of 1-2 neighbors
  8 = max # of 1-3 neighbors
  19 = max # of special neighbors
WARNING: Using 'neigh_modify every 1 delay 0 check yes' setting during minimization (../min.cpp:168)
Neighbor list info ...
  update every 1 steps, delay 0 steps, check yes
  max neighbors/atom: 2000, page size: 100000
  master list distance cutoff = 16
  ghost atom cutoff = 16
  binsize = 8, bins = 6 6 6
  3 neighbor lists, perpetual/occasional/extra = 3 0 0
  (1) pair buck6d/coul/gauss/dsf, perpetual, skip from (3)
      attributes: half, newton on
      pair build: skip
      stencil: none
      bin: none
  (2) pair lj/cut, perpetual, skip from (3)
      attributes: half, newton on
      pair build: skip
      stencil: none
      bin: none
  (3) neighbor class addition, perpetual
      attributes: half, newton on
      pair build: half/bin/newton
      stencil: half/bin/3d/newton
      bin: standard
Setting up cg style minimization ...
  Unit style    : real
  Current step  : 0
WARNING: Inconsistent image flags (../domain.cpp:786)
Per MPI rank memory allocation (min/avg/max) = 22.89 | 23.29 | 24.44 Mbytes
Step Temp E_pair E_mol TotEng Press 
       0            0    -12423.93    6482.8914   -5941.0382    6096.2787 
     501            0   -12544.347      3729.83   -8814.5171   -690.49506 
Loop time of 1.34596 on 24 procs for 501 steps with 2024 atoms

99.6% CPU use with 24 MPI tasks x no OpenMP threads

Minimization stats:
  Stopping criterion = max force evaluations
  Energy initial, next-to-last, final = 
        -5941.03818704     -8814.46815503     -8814.51711043
  Force two-norm initial, final = 2575.27 10.733
  Force max component initial, final = 152.104 1.93231
  Final line search alpha, max atom move = 0.00328794 0.00635331
  Iterations, force evaluations = 501 1000

MPI task timing breakdown:
Section |  min time  |  avg time  |  max time  |%varavg| %total
---------------------------------------------------------------
Pair    | 0.51626    | 0.6901     | 0.88634    |  10.9 | 51.27
Bond    | 0.11342    | 0.15769    | 0.20642    |   6.0 | 11.72
Neigh   | 0.010382   | 0.010978   | 0.011568   |   0.4 |  0.82
Comm    | 0.25481    | 0.45161    | 0.64235    |  13.2 | 33.55
Output  | 0          | 0          | 0          |   0.0 |  0.00
Modify  | 0          | 0          | 0          |   0.0 |  0.00
Other   |            | 0.03558    |            |       |  2.64

Nlocal:    84.3333 ave 100 max 64 min
Histogram: 1 1 1 4 1 5 3 2 4 2
Nghost:    2251.83 ave 2437 max 2156 min
Histogram: 16 0 0 0 0 0 0 0 4 4
Neighs:    7641.96 ave 11605 max 3747 min
Histogram: 1 0 3 3 6 3 5 2 0 1

Total # of neighbors = 183407
Ave neighs/atom = 90.6161
Ave special neighs/atom = 5.6917
Neighbor list builds = 14
Dangerous builds = 0
Neighbor list info ...
  update every 1 steps, delay 10 steps, check yes
  max neighbors/atom: 2000, page size: 100000
  master list distance cutoff = 16
  ghost atom cutoff = 16
  binsize = 8, bins = 6 6 6
  3 neighbor lists, perpetual/occasional/extra = 3 0 0
  (1) pair buck6d/coul/gauss/dsf, perpetual, skip from (3)
      attributes: half, newton on
      pair build: skip
      stencil: none
      bin: none
  (2) pair lj/cut, perpetual, skip from (3)
      attributes: half, newton on
      pair build: skip
      stencil: none
      bin: none
  (3) neighbor class addition, perpetual
      attributes: half, newton on
      pair build: half/bin/newton
      stencil: half/bin/3d/newton
      bin: standard
Setting up Verlet run ...
  Unit style    : real
  Current step  : 501
  Time step     : 1
WARNING: Inconsistent image flags (../domain.cpp:786)
Per MPI rank memory allocation (min/avg/max) = 22.53 | 22.7 | 23.31 Mbytes
Step Temp PotEng TotEng Press Volume Lx Ly Lz 
     501          110   -8814.5171   -8151.1975   -393.22988     102002.7      46.7237      46.7237      46.7237 
    1000    92.283458   -8209.6754   -7653.1896   -665.82642     102002.7      46.7237      46.7237      46.7237 
    2000    116.51998   -8137.7028   -7435.0665   -773.90971     102002.7      46.7237      46.7237      46.7237 
    3000    108.79756   -8111.5352   -7455.4664    -834.2641     102002.7      46.7237      46.7237      46.7237 
    4000    107.84477   -8100.0629   -7449.7396   -511.63326     102002.7      46.7237      46.7237      46.7237 
    5000    107.28415   -8097.2348   -7450.2922   -791.00096     102002.7      46.7237      46.7237      46.7237 
    6000    110.04787   -8098.7168   -7435.1085   -529.48127     102002.7      46.7237      46.7237      46.7237 
    7000    112.16412   -8084.2364   -7407.8667   -893.04456     102002.7      46.7237      46.7237      46.7237 
    8000    113.92231   -8123.1856   -7436.2137   -579.36481     102002.7      46.7237      46.7237      46.7237 
    9000    110.03692   -8080.0288   -7416.4864   -888.08241     102002.7      46.7237      46.7237      46.7237 
   10000    111.33405   -8125.8329   -7454.4687   -625.36807     102002.7      46.7237      46.7237      46.7237 
   11000    108.94934   -8122.0421   -7465.0581    -751.2925     102002.7      46.7237      46.7237      46.7237 
   12000    113.43398   -8106.0155   -7421.9883   -919.14916     102002.7      46.7237      46.7237      46.7237 
   13000    110.33421   -8112.4337   -7447.0986   -909.76468     102002.7      46.7237      46.7237      46.7237 
   14000    110.59885   -8112.3529    -7445.422   -879.89038     102002.7      46.7237      46.7237      46.7237 
   15000    108.89428   -8104.0176   -7447.3657   -438.23856     102002.7      46.7237      46.7237      46.7237 
   16000    114.41914   -8096.0446   -7406.0767    -876.1341     102002.7      46.7237      46.7237      46.7237 
   17000    109.69383   -8116.7014    -7455.228   -707.42468     102002.7      46.7237      46.7237      46.7237 
   18000    108.96583   -8131.4944   -7474.4109    -551.7065     102002.7      46.7237      46.7237      46.7237 
   19000    109.17269   -8105.5779   -7447.2471   -897.67785     102002.7      46.7237      46.7237      46.7237 
   20000    109.58847   -8113.3259   -7452.4878   -615.91198     102002.7      46.7237      46.7237      46.7237 
   21000    106.95972   -8119.7494   -7474.7631   -954.47051     102002.7      46.7237      46.7237      46.7237 
   22000    112.27431   -8110.1166   -7433.0824   -840.13354     102002.7      46.7237      46.7237      46.7237 
   23000    103.90684   -8131.5868     -7505.01   -478.14086     102002.7      46.7237      46.7237      46.7237 
   24000    110.35128   -8117.7441   -7452.3062   -872.67988     102002.7      46.7237      46.7237      46.7237 
   25000    108.91122   -8094.3173   -7437.5632   -636.01687     102002.7      46.7237      46.7237      46.7237 
   26000    105.84525   -8104.2481   -7465.9823   -756.37016     102002.7      46.7237      46.7237      46.7237 
   27000    110.03031   -8123.1156   -7459.6132   -853.48279     102002.7      46.7237      46.7237      46.7237 
   28000    110.53439   -8103.7612   -7437.2191   -587.54635     102002.7      46.7237      46.7237      46.7237 
   29000    107.92443   -8116.5126    -7465.709    -859.9087     102002.7      46.7237      46.7237      46.7237 
   30000    108.49425   -8100.8749   -7446.6352   -877.66874     102002.7      46.7237      46.7237      46.7237 
   31000    111.31442     -8107.63   -7436.3842   -744.68693     102002.7      46.7237      46.7237      46.7237 
   32000     107.6217    -8094.401   -7445.4229   -761.14046     102002.7      46.7237      46.7237      46.7237 
   33000    113.10879    -8096.055   -7413.9887   -718.48181     102002.7      46.7237      46.7237      46.7237 
   34000    112.90277   -8103.7808   -7422.9569   -922.68292     102002.7      46.7237      46.7237      46.7237 
   35000    106.63789   -8110.7122   -7467.6667     -1115.69     102002.7      46.7237      46.7237      46.7237 
   36000    105.99652   -8083.7247   -7444.5468   -441.68861     102002.7      46.7237      46.7237      46.7237 
   37000    113.51121   -8094.5894   -7410.0965   -740.57424     102002.7      46.7237      46.7237      46.7237 
   38000    111.25663   -8118.0842   -7447.1868   -566.40461     102002.7      46.7237      46.7237      46.7237 
   39000    110.35274   -8106.9723   -7441.5256   -629.49305     102002.7      46.7237      46.7237      46.7237 
   40000     110.0308   -8113.4775   -7449.9721    -786.7537     102002.7      46.7237      46.7237      46.7237 
   41000    109.44203   -8093.0073   -7433.0523    -539.1296     102002.7      46.7237      46.7237      46.7237 
   42000    111.71702   -8111.4363   -7437.7628   -945.01585     102002.7      46.7237      46.7237      46.7237 
   43000    107.09168   -8100.9032   -7455.1212   -714.87775     102002.7      46.7237      46.7237      46.7237 
   44000    109.00532    -8093.704   -7436.3824    -868.5825     102002.7      46.7237      46.7237      46.7237 
   45000    108.92234   -8108.2281    -7451.407   -1215.4713     102002.7      46.7237      46.7237      46.7237 
   46000    108.87482   -8109.5699   -7453.0353   -551.84074     102002.7      46.7237      46.7237      46.7237 
   47000    108.08426   -8123.4282   -7471.6607   -858.61593     102002.7      46.7237      46.7237      46.7237 
   48000    109.26611    -8086.372   -7427.4778   -826.38437     102002.7      46.7237      46.7237      46.7237 
   49000    110.16278   -8109.0355   -7444.7343   -542.11944     102002.7      46.7237      46.7237      46.7237 
   50000    106.87535   -8122.5016   -7478.0241   -714.38317     102002.7      46.7237      46.7237      46.7237 
   51000    109.63287   -8121.7263   -7460.6205   -601.63595     102002.7      46.7237      46.7237      46.7237 
   52000    106.37022   -8108.0218   -7466.5904   -904.58148     102002.7      46.7237      46.7237      46.7237 
   53000    112.31669    -8096.026   -7418.7363   -821.58677     102002.7      46.7237      46.7237      46.7237 
   54000    111.96413   -8096.8462   -7421.6825   -712.83634     102002.7      46.7237      46.7237      46.7237 
   55000     110.0813   -8071.4145   -7407.6046   -920.03369     102002.7      46.7237      46.7237      46.7237 
   56000    108.35374   -8106.9831   -7453.5907   -871.17552     102002.7      46.7237      46.7237      46.7237 
   57000    109.85207   -8122.0007   -7459.5731   -1249.7187     102002.7      46.7237      46.7237      46.7237 
   58000    113.48901   -8119.0861   -7434.7271    -690.0886     102002.7      46.7237      46.7237      46.7237 
   59000    110.74379   -8114.1005   -7446.2956   -712.59675     102002.7      46.7237      46.7237      46.7237 
   60000    110.53493    -8124.669   -7458.1237   -775.20905     102002.7      46.7237      46.7237      46.7237 
   61000      109.704   -8121.4469   -7459.9121    -887.9669     102002.7      46.7237      46.7237      46.7237 
   62000    111.66696    -8138.077   -7464.7052   -795.53938     102002.7      46.7237      46.7237      46.7237 
   63000    108.54285   -8103.3304   -7448.7976   -439.64633     102002.7      46.7237      46.7237      46.7237 
   64000    108.24216   -8123.5183   -7470.7987   -631.59135     102002.7      46.7237      46.7237      46.7237 
   65000    111.42649   -8100.3985   -7428.4768   -710.09229     102002.7      46.7237      46.7237      46.7237 
   66000    108.64914    -8121.158   -7465.9843   -649.54379     102002.7      46.7237      46.7237      46.7237 
   67000    108.28787   -8092.4154   -7439.4202   -1102.0113     102002.7      46.7237      46.7237      46.7237 
   68000    108.57656   -8091.2202   -7436.4842   -658.80067     102002.7      46.7237      46.7237      46.7237 
   69000    115.00626   -8100.1929   -7406.6846   -871.55133     102002.7      46.7237      46.7237      46.7237 
   70000    109.62142   -8103.4045   -7442.3678   -1088.9481     102002.7      46.7237      46.7237      46.7237 
   71000    105.62238   -8092.4711   -7455.5492    -687.6277     102002.7      46.7237      46.7237      46.7237 
   72000    111.72084   -8104.4229   -7430.7263   -745.80483     102002.7      46.7237      46.7237      46.7237 
   73000    107.38205   -8109.8512   -7462.3183   -1211.0605     102002.7      46.7237      46.7237      46.7237 
   74000    109.70782   -8109.6891   -7448.1313   -998.05113     102002.7      46.7237      46.7237      46.7237 
   75000    114.05568   -8116.9869   -7429.2108   -757.45715     102002.7      46.7237      46.7237      46.7237 
   76000    112.45224   -8117.2769   -7439.1697   -711.05274     102002.7      46.7237      46.7237      46.7237 
   77000    106.79589   -8116.8083     -7472.81   -906.71949     102002.7      46.7237      46.7237      46.7237 
   78000    110.99738   -8122.0138   -7452.6798   -679.55819     102002.7      46.7237      46.7237      46.7237 
   79000    109.77572   -8106.5898   -7444.6226   -751.04798     102002.7      46.7237      46.7237      46.7237 
   80000    111.01116   -8105.4073   -7435.9902   -888.15117     102002.7      46.7237      46.7237      46.7237 
   81000    116.22988   -8105.0581   -7404.1711   -819.22786     102002.7      46.7237      46.7237      46.7237 
   82000    110.32105   -8096.8406   -7431.5849   -849.73992     102002.7      46.7237      46.7237      46.7237 
   83000    111.36706   -8124.0512   -7452.4879   -969.04494     102002.7      46.7237      46.7237      46.7237 
   84000    108.18697   -8105.9695   -7453.5828   -966.23149     102002.7      46.7237      46.7237      46.7237 
   85000    111.19833   -8097.2026   -7426.6568   -922.29475     102002.7      46.7237      46.7237      46.7237 
   86000    110.13781   -8091.1808   -7427.0301   -931.29062     102002.7      46.7237      46.7237      46.7237 
   87000     106.6223   -8082.0941   -7439.1425   -1017.0083     102002.7      46.7237      46.7237      46.7237 
   88000    110.50677   -8087.0424   -7420.6668   -907.93085     102002.7      46.7237      46.7237      46.7237 
   89000    107.63402   -8098.4627   -7449.4103   -994.92588     102002.7      46.7237      46.7237      46.7237 
   90000    114.67242   -8096.6404   -7405.1451   -890.46743     102002.7      46.7237      46.7237      46.7237 
   91000    110.36825   -8094.8581   -7429.3178   -823.44491     102002.7      46.7237      46.7237      46.7237 
   92000    110.56788   -8085.6474   -7418.9033   -1268.3246     102002.7      46.7237      46.7237      46.7237 
   93000    107.01304   -8090.8556   -7445.5479   -1057.9469     102002.7      46.7237      46.7237      46.7237 
   94000    108.10075   -8111.2774   -7459.4106   -866.42524     102002.7      46.7237      46.7237      46.7237 
   95000    108.97087   -8092.8012   -7435.6874   -955.24264     102002.7      46.7237      46.7237      46.7237 
   96000    108.98208   -8116.0542   -7458.8728   -626.70246     102002.7      46.7237      46.7237      46.7237 
   97000    107.27472   -8101.0909   -7454.2052   -1056.4617     102002.7      46.7237      46.7237      46.7237 
   98000    108.45814   -8110.7441   -7456.7221    -426.9942     102002.7      46.7237      46.7237      46.7237 
   99000    111.39865   -8058.5002   -7386.7465   -941.26124     102002.7      46.7237      46.7237      46.7237 
  100000    108.32446   -8096.2694   -7443.0536   -1043.4479     102002.7      46.7237      46.7237      46.7237 
  101000    111.10167   -8113.1897   -7443.2268   -792.95458     102002.7      46.7237      46.7237      46.7237 
  102000    111.31256   -8093.3716    -7422.137   -821.74672     102002.7      46.7237      46.7237      46.7237 
  103000    106.76138   -8094.0398   -7450.2496   -906.98411     102002.7      46.7237      46.7237      46.7237 
  104000    109.82428   -8113.7386   -7451.4785   -1035.6231     102002.7      46.7237      46.7237      46.7237 
  105000    108.39349   -8123.0478   -7469.4157   -863.79664     102002.7      46.7237      46.7237      46.7237 
  106000      107.918   -8099.0973   -7448.3324   -640.80126     102002.7      46.7237      46.7237      46.7237 
  107000    109.70638    -8067.327   -7405.7779   -765.43961     102002.7      46.7237      46.7237      46.7237 
  108000    110.90734   -8110.0749   -7441.2839   -754.14535     102002.7      46.7237      46.7237      46.7237 
  109000    111.89392   -8090.0246   -7415.2843   -721.94641     102002.7      46.7237      46.7237      46.7237 
  110000    109.18779   -8096.7224   -7438.3005   -674.41208     102002.7      46.7237      46.7237      46.7237 
  111000    107.64645   -8092.4391   -7443.3117   -950.11691     102002.7      46.7237      46.7237      46.7237 
  112000    107.70824   -8096.1243   -7446.6243   -893.94445     102002.7      46.7237      46.7237      46.7237 
  113000    109.53298   -8079.5818   -7419.0783   -863.83346     102002.7      46.7237      46.7237      46.7237 
  114000    109.83777   -8113.8991   -7451.5577   -807.12166     102002.7      46.7237      46.7237      46.7237 
  115000    112.78711   -8097.7285    -7417.602   -567.39716     102002.7      46.7237      46.7237      46.7237 
  116000    111.53512   -8095.7738   -7423.1971   -886.14573     102002.7      46.7237      46.7237      46.7237 
  117000    112.32606   -8084.5758   -7407.2296   -849.47316     102002.7      46.7237      46.7237      46.7237 
  118000    109.55871   -8098.1645   -7437.5059   -799.90037     102002.7      46.7237      46.7237      46.7237 
  119000    111.14911   -8084.6051    -7414.356   -688.10353     102002.7      46.7237      46.7237      46.7237 
  120000    113.43601   -8125.2106   -7441.1712   -502.25889     102002.7      46.7237      46.7237      46.7237 
  121000     109.0692   -8109.2026   -7451.4958   -673.40835     102002.7      46.7237      46.7237      46.7237 
  122000    110.89169   -8123.4186   -7454.7219   -816.73257     102002.7      46.7237      46.7237      46.7237 
  123000      108.347   -8083.1991   -7429.8473   -773.89862     102002.7      46.7237      46.7237      46.7237 
  124000     109.1552   -8095.1872   -7436.9618   -670.15543     102002.7      46.7237      46.7237      46.7237 
  125000    111.40531   -8103.7715   -7431.9775   -877.66117     102002.7      46.7237      46.7237      46.7237 
  126000    111.54705   -8097.2418   -7424.5931   -449.67944     102002.7      46.7237      46.7237      46.7237 
  127000    109.41043   -8115.2549   -7455.4904   -906.67682     102002.7      46.7237      46.7237      46.7237 
  128000    111.29431    -8095.999   -7424.8744   -1040.8628     102002.7      46.7237      46.7237      46.7237 
  129000    110.03462   -8103.2174    -7439.689   -1006.7581     102002.7      46.7237      46.7237      46.7237 
  130000    109.82858   -8099.6098   -7437.3238   -786.97691     102002.7      46.7237      46.7237      46.7237 
  131000    109.89652   -8123.3574   -7460.6617   -927.12261     102002.7      46.7237      46.7237      46.7237 
  132000    112.22008   -8084.4572     -7407.75   -738.16189     102002.7      46.7237      46.7237      46.7237 
  133000    110.18537   -8096.2717   -7431.8343   -924.99983     102002.7      46.7237      46.7237      46.7237 
  134000    108.10018    -8106.862   -7454.9986   -723.33087     102002.7      46.7237      46.7237      46.7237 
  135000    110.97076   -8091.6381   -7422.4646    -775.2397     102002.7      46.7237      46.7237      46.7237 
  136000    110.88996   -8103.1386   -7434.4523    -856.8486     102002.7      46.7237      46.7237      46.7237 
  137000    108.94109     -8087.67   -7430.7357   -661.03517     102002.7      46.7237      46.7237      46.7237 
  138000    109.78232   -8085.3119   -7423.3049    -670.5817     102002.7      46.7237      46.7237      46.7237 
  139000     107.5504   -8072.3503   -7423.8022   -685.38783     102002.7      46.7237      46.7237      46.7237 
  140000    107.93858   -8105.9415   -7455.0526   -578.68274     102002.7      46.7237      46.7237      46.7237 
  141000    108.17553   -8133.1207   -7480.8029   -720.51638     102002.7      46.7237      46.7237      46.7237 
  142000    110.94936   -8112.3996   -7443.3551   -824.32975     102002.7      46.7237      46.7237      46.7237 
  143000    111.27569   -8111.5933    -7440.581   -815.06088     102002.7      46.7237      46.7237      46.7237 
  144000    110.72852   -8082.7104   -7414.9976   -624.56627     102002.7      46.7237      46.7237      46.7237 
  145000    107.88717   -8093.3701   -7442.7912   -879.17307     102002.7      46.7237      46.7237      46.7237 
  146000    113.84833     -8106.18   -7419.6543   -622.11562     102002.7      46.7237      46.7237      46.7237 
  147000    112.55952    -8106.208   -7427.4539   -736.08296     102002.7      46.7237      46.7237      46.7237 
  148000    109.53677    -8102.168   -7441.6417   -1090.5887     102002.7      46.7237      46.7237      46.7237 
  149000    106.10922   -8109.3947   -7469.5371    -938.9739     102002.7      46.7237      46.7237      46.7237 
  150000    108.91734     -8083.43    -7426.639   -605.41614     102002.7      46.7237      46.7237      46.7237 
  151000    109.59898   -8080.2096   -7419.3082   -757.01521     102002.7      46.7237      46.7237      46.7237 
  152000    110.15109   -8095.8213   -7431.5906   -521.83374     102002.7      46.7237      46.7237      46.7237 
  153000    115.18108   -8097.5357   -7402.9732   -538.52525     102002.7      46.7237      46.7237      46.7237 
  154000    110.78395   -8113.6201   -7445.5731   -701.33148     102002.7      46.7237      46.7237      46.7237 
  155000    109.30062   -8085.6929   -7426.5906   -831.47857     102002.7      46.7237      46.7237      46.7237 
  156000    109.63768   -8110.1224   -7448.9876   -512.42492     102002.7      46.7237      46.7237      46.7237 
  157000    114.11458   -8116.3568   -7428.2255   -971.78873     102002.7      46.7237      46.7237      46.7237 
  158000    109.30161   -8099.7937   -7440.6854   -842.55943     102002.7      46.7237      46.7237      46.7237 
  159000    110.54096   -8110.3197   -7443.7379    -593.7482     102002.7      46.7237      46.7237      46.7237 
  160000    111.22866    -8107.694   -7436.9653   -935.02712     102002.7      46.7237      46.7237      46.7237 
  161000    108.80428   -8108.4007   -7452.2914   -674.84492     102002.7      46.7237      46.7237      46.7237 
  162000    114.24627   -8100.1745   -7411.2491   -738.71164     102002.7      46.7237      46.7237      46.7237 
  163000    109.51648   -8081.0645   -7420.6606   -665.31886     102002.7      46.7237      46.7237      46.7237 
  164000    111.81689   -8112.5338   -7438.2579   -828.94696     102002.7      46.7237      46.7237      46.7237 
  165000    109.95856   -8140.0984   -7477.0286   -474.33727     102002.7      46.7237      46.7237      46.7237 
  166000    111.52631    -8084.247   -7411.7235   -524.54415     102002.7      46.7237      46.7237      46.7237 
  167000    107.34849   -8081.6633   -7434.3327   -399.05751     102002.7      46.7237      46.7237      46.7237 
  168000     108.9092   -8090.2432   -7433.5013   -865.98737     102002.7      46.7237      46.7237      46.7237 
  169000    108.89171   -8115.4262   -7458.7898   -545.16635     102002.7      46.7237      46.7237      46.7237 
  170000    111.73251   -8100.4012   -7426.6342   -745.70747     102002.7      46.7237      46.7237      46.7237 
  171000     110.9015   -8077.7046   -7408.9487   -637.56521     102002.7      46.7237      46.7237      46.7237 
  172000    110.75188   -8104.8168   -7436.9632   -561.98518     102002.7      46.7237      46.7237      46.7237 
  173000    108.99002   -8097.2257   -7439.9964   -809.40643     102002.7      46.7237      46.7237      46.7237 
  174000    109.79262   -8114.6241   -7452.5549    -657.3062     102002.7      46.7237      46.7237      46.7237 
  175000    110.03943   -8098.0058   -7434.4484   -629.93481     102002.7      46.7237      46.7237      46.7237 
  176000     110.8871   -8100.7501    -7432.081   -787.07443     102002.7      46.7237      46.7237      46.7237 
  177000    111.74769   -8107.1502   -7433.2917   -669.28623     102002.7      46.7237      46.7237      46.7237 
  178000     112.4053   -8087.8999   -7410.0759   -1015.9325     102002.7      46.7237      46.7237      46.7237 
  179000    111.52632   -8090.3522   -7417.8286   -906.25976     102002.7      46.7237      46.7237      46.7237 
  180000    107.86139   -8083.6277   -7433.2043   -1205.1717     102002.7      46.7237      46.7237      46.7237 
  181000    109.88627   -8123.3463   -7460.7124   -971.85447     102002.7      46.7237      46.7237      46.7237 
  182000     109.2156   -8109.8538   -7451.2642   -785.59177     102002.7      46.7237      46.7237      46.7237 
  183000    111.87875   -8084.6723   -7410.0235   -972.96194     102002.7      46.7237      46.7237      46.7237 
  184000    109.31915   -8083.2436   -7424.0296   -679.14644     102002.7      46.7237      46.7237      46.7237 
  185000    108.68359   -8082.2621   -7426.8806   -917.50994     102002.7      46.7237      46.7237      46.7237 
  186000    107.58356   -8115.0627   -7466.3146   -831.21666     102002.7      46.7237      46.7237      46.7237 
  187000    112.89202   -8109.0764   -7428.3174   -982.92807     102002.7      46.7237      46.7237      46.7237 
  188000    112.12382   -8093.8501   -7417.7235   -695.11463     102002.7      46.7237      46.7237      46.7237 
  189000    112.22511   -8096.0111   -7419.2736   -653.28448     102002.7      46.7237      46.7237      46.7237 
  190000     106.9362   -8093.3148   -7448.4704   -721.26308     102002.7      46.7237      46.7237      46.7237 
  191000    109.46352   -8116.4992   -7456.4146   -716.21341     102002.7      46.7237      46.7237      46.7237 
  192000    111.57908   -8093.5016   -7420.6599   -1133.5785     102002.7      46.7237      46.7237      46.7237 
  193000    114.08348   -8101.0901   -7413.1463   -559.54431     102002.7      46.7237      46.7237      46.7237 
  194000     109.1685   -8095.9167   -7437.6112   -695.80204     102002.7      46.7237      46.7237      46.7237 
  195000    106.43727   -8109.7319   -7467.8961   -671.75295     102002.7      46.7237      46.7237      46.7237 
  196000    110.38855   -8104.6306   -7438.9679   -674.73388     102002.7      46.7237      46.7237      46.7237 
  197000    110.84442   -8082.1373   -7413.7256   -827.42202     102002.7      46.7237      46.7237      46.7237 
  198000    108.83256    -8099.437   -7443.1572   -782.87046     102002.7      46.7237      46.7237      46.7237 
  199000    109.52898   -8098.9029   -7438.4236   -667.19801     102002.7      46.7237      46.7237      46.7237 
  200000    110.75886   -8093.7355   -7425.8398   -822.57365     102002.7      46.7237      46.7237      46.7237 
  201000    110.97438   -8095.0932   -7425.8978   -664.02192     102002.7      46.7237      46.7237      46.7237 
  202000    111.46479   -8121.1502   -7448.9976   -975.01088     102002.7      46.7237      46.7237      46.7237 
  203000    112.94234   -8090.2285    -7409.166   -813.86751     102002.7      46.7237      46.7237      46.7237 
  204000    108.28965    -8113.148   -7460.1421   -729.03727     102002.7      46.7237      46.7237      46.7237 
  205000    112.92569    -8111.263   -7430.3009   -857.29624     102002.7      46.7237      46.7237      46.7237 
  206000    109.49516   -8129.2855   -7469.0101   -1014.9863     102002.7      46.7237      46.7237      46.7237 
  207000    107.29124   -8106.6547   -7459.6693   -992.98821     102002.7      46.7237      46.7237      46.7237 
  208000    106.25715   -8115.3137   -7474.5641   -832.83394     102002.7      46.7237      46.7237      46.7237 
  209000    112.54685   -8107.4975   -7428.8199   -845.63952     102002.7      46.7237      46.7237      46.7237 
  210000    111.06465   -8115.8885   -7446.1488   -868.74701     102002.7      46.7237      46.7237      46.7237 
  211000    104.66912   -8114.2984   -7483.1249    -314.7434     102002.7      46.7237      46.7237      46.7237 
  212000    114.45859   -8140.9101   -7450.7043   -776.37625     102002.7      46.7237      46.7237      46.7237 
  213000    111.26255   -8100.0153   -7429.0822   -645.97654     102002.7      46.7237      46.7237      46.7237 
  214000    108.08978   -8130.9632   -7479.1626   -849.48188     102002.7      46.7237      46.7237      46.7237 
  215000    109.25332    -8118.774   -7459.9569   -970.66879     102002.7      46.7237      46.7237      46.7237 
  216000    111.26305    -8109.316   -7438.3799     -771.023     102002.7      46.7237      46.7237      46.7237 
  217000    112.39895   -8089.1859   -7411.4001   -770.81015     102002.7      46.7237      46.7237      46.7237 
  218000    108.81968   -8102.4472   -7446.2451   -683.30968     102002.7      46.7237      46.7237      46.7237 
  219000    110.64857   -8084.8852   -7417.6546   -923.45358     102002.7      46.7237      46.7237      46.7237 
  220000    109.55839   -8098.5731   -7437.9165   -766.70276     102002.7      46.7237      46.7237      46.7237 
  221000    109.68371    -8118.581   -7457.1687   -774.98936     102002.7      46.7237      46.7237      46.7237 
  222000    106.07528   -8098.6553   -7459.0024   -554.14929     102002.7      46.7237      46.7237      46.7237 
  223000    110.55233   -8113.9049   -7447.2546   -382.76596     102002.7      46.7237      46.7237      46.7237 
  224000    107.62244   -8081.2791   -7432.2965   -934.93544     102002.7      46.7237      46.7237      46.7237 
  225000    107.97178   -8133.1229   -7482.0338   -801.81398     102002.7      46.7237      46.7237      46.7237 
  226000    109.46276   -8131.3747   -7471.2947    -826.5388     102002.7      46.7237      46.7237      46.7237 
  227000    114.32353   -8091.3204   -7401.9291   -749.66092     102002.7      46.7237      46.7237      46.7237 
  228000    111.62123   -8113.2042   -7440.1083   -552.08653     102002.7      46.7237      46.7237      46.7237 
  229000    109.31798   -8105.5976   -7446.3907   -552.14853     102002.7      46.7237      46.7237      46.7237 
  230000    106.90973   -8131.8182   -7487.1335   -597.55408     102002.7      46.7237      46.7237      46.7237 
  231000    109.85221   -8111.2268   -7448.7983   -678.51315     102002.7      46.7237      46.7237      46.7237 
  232000     108.9239   -8116.1708   -7459.3403   -926.64493     102002.7      46.7237      46.7237      46.7237 
  233000    107.60705   -8124.9798   -7476.0901   -781.52623     102002.7      46.7237      46.7237      46.7237 
  234000    109.97922   -8113.7764   -7450.5821   -874.97172     102002.7      46.7237      46.7237      46.7237 
  235000    108.17584   -8119.8921   -7467.5725   -565.60887     102002.7      46.7237      46.7237      46.7237 
  236000    110.50181   -8106.8405   -7440.4948   -633.96062     102002.7      46.7237      46.7237      46.7237 
  237000    108.85391   -8109.8809   -7453.4723   -1011.2145     102002.7      46.7237      46.7237      46.7237 
  238000    108.12452   -8116.9046   -7464.8944   -660.84432     102002.7      46.7237      46.7237      46.7237 
  239000    115.11815   -8092.0001    -7397.817   -653.12578     102002.7      46.7237      46.7237      46.7237 
  240000    110.04485    -8108.662   -7445.0719   -568.40834     102002.7      46.7237      46.7237      46.7237 
  241000    108.67424   -8126.0446   -7470.7195   -629.82412     102002.7      46.7237      46.7237      46.7237 
  242000    105.39565    -8111.495   -7475.9404   -816.59559     102002.7      46.7237      46.7237      46.7237 
  243000    109.40328    -8111.281   -7451.5596   -486.08617     102002.7      46.7237      46.7237      46.7237 
  244000    111.56978    -8125.959   -7453.1732   -1132.1613     102002.7      46.7237      46.7237      46.7237 
  245000    111.31563   -8123.3074   -7452.0543   -743.11724     102002.7      46.7237      46.7237      46.7237 
  246000    107.92888   -8129.0658   -7478.2354   -746.28901     102002.7      46.7237      46.7237      46.7237 
  247000    108.88467     -8118.14    -7461.546   -623.24611     102002.7      46.7237      46.7237      46.7237 
  248000    111.46791   -8120.4289   -7448.2575   -779.00784     102002.7      46.7237      46.7237      46.7237 
  249000     111.0888   -8110.9893    -7441.104   -650.29195     102002.7      46.7237      46.7237      46.7237 
  250000    107.86262   -8107.9035   -7457.4726    -698.5507     102002.7      46.7237      46.7237      46.7237 
  251000    109.35345   -8122.9416   -7463.5207   -893.31355     102002.7      46.7237      46.7237      46.7237 
  252000    111.09689   -8129.2563   -7459.3222   -870.70119     102002.7      46.7237      46.7237      46.7237 
  253000    106.84128   -8111.2575   -7466.9855   -821.25392     102002.7      46.7237      46.7237      46.7237 
  254000     111.1899   -8096.3457   -7425.8507   -687.52302     102002.7      46.7237      46.7237      46.7237 
  255000    111.03674   -8128.6511   -7459.0797    -774.6749     102002.7      46.7237      46.7237      46.7237 
  256000    108.68514   -8108.1413   -7452.7505   -593.03873     102002.7      46.7237      46.7237      46.7237 
  257000    108.37144   -8078.1114   -7424.6122   -789.81944     102002.7      46.7237      46.7237      46.7237 
  258000    110.40127   -8119.7931   -7454.0537   -795.47044     102002.7      46.7237      46.7237      46.7237 
  259000    108.08803   -8110.5714   -7458.7812   -858.78741     102002.7      46.7237      46.7237      46.7237 
  260000    111.15883   -8104.2304   -7433.9227   -887.88962     102002.7      46.7237      46.7237      46.7237 
  261000    108.43106   -8107.0327    -7453.174   -613.87757     102002.7      46.7237      46.7237      46.7237 
  262000    106.11877    -8127.226   -7487.3109   -821.81425     102002.7      46.7237      46.7237      46.7237 
  263000    113.78831   -8117.0507   -7430.8869   -424.26035     102002.7      46.7237      46.7237      46.7237 
  264000    110.13613   -8116.7049   -7452.5643   -616.19911     102002.7      46.7237      46.7237      46.7237 
  265000    107.25192   -8102.4127   -7455.6645   -649.53811     102002.7      46.7237      46.7237      46.7237 
  266000    109.18794   -8135.5031   -7477.0803   -643.02397     102002.7      46.7237      46.7237      46.7237 
  267000    109.07848   -8111.5532   -7453.7905   -818.70454     102002.7      46.7237      46.7237      46.7237 
  268000    111.72549    -8085.323   -7411.5983    -491.2398     102002.7      46.7237      46.7237      46.7237 
  269000    110.35562   -8086.1606   -7420.6965   -400.10363     102002.7      46.7237      46.7237      46.7237 
  270000    109.54467   -8100.9186   -7440.3446    -851.1608     102002.7      46.7237      46.7237      46.7237 
  271000    107.54876   -8100.6547   -7452.1164   -511.51089     102002.7      46.7237      46.7237      46.7237 
  272000    108.82787    -8117.789   -7461.5375   -1172.7254     102002.7      46.7237      46.7237      46.7237 
  273000    106.18456   -8085.6728    -7445.361   -929.73566     102002.7      46.7237      46.7237      46.7237 
  274000    112.06254   -8095.1703   -7419.4132   -830.95055     102002.7      46.7237      46.7237      46.7237 
  275000    110.36539   -8097.6633   -7432.1403   -845.16017     102002.7      46.7237      46.7237      46.7237 
  276000     114.1652   -8115.5571   -7427.1206   -564.85435     102002.7      46.7237      46.7237      46.7237 
  277000    110.11005   -8093.6981   -7429.7149   -755.34995     102002.7      46.7237      46.7237      46.7237 
  278000    106.11359   -8130.2724   -7490.3885   -1198.6014     102002.7      46.7237      46.7237      46.7237 
  279000    110.16765   -8134.2351   -7469.9046   -931.98837     102002.7      46.7237      46.7237      46.7237 
  280000    106.70939   -8079.6907   -7436.2141   -1055.8126     102002.7      46.7237      46.7237      46.7237 
  281000     111.7263   -8090.7718   -7417.0423   -826.55044     102002.7      46.7237      46.7237      46.7237 
  282000      108.154   -8095.6615   -7443.4735   -746.16818     102002.7      46.7237      46.7237      46.7237 
  283000    111.67342   -8099.6473   -7426.2366    -605.2023     102002.7      46.7237      46.7237      46.7237 
  284000    107.68451   -8098.5849    -7449.228    -585.1514     102002.7      46.7237      46.7237      46.7237 
  285000    112.31832   -8113.1217   -7435.8221   -454.13252     102002.7      46.7237      46.7237      46.7237 
  286000    110.90417   -8108.5261   -7439.7542   -846.67353     102002.7      46.7237      46.7237      46.7237 
  287000    109.41333   -8106.7095   -7446.9276   -618.80532     102002.7      46.7237      46.7237      46.7237 
  288000    110.65326   -8099.8545   -7432.5956   -683.14043     102002.7      46.7237      46.7237      46.7237 
  289000    110.25953   -8112.2646     -7447.38   -790.58726     102002.7      46.7237      46.7237      46.7237 
  290000    113.29271   -8089.6843   -7406.5091   -650.34377     102002.7      46.7237      46.7237      46.7237 
  291000     109.0821    -8093.708   -7435.9234    -596.5366     102002.7      46.7237      46.7237      46.7237 
  292000    111.57822   -8099.4809   -7426.6443   -496.32743     102002.7      46.7237      46.7237      46.7237 
  293000    109.66796   -8082.5666   -7421.2492   -585.13803     102002.7      46.7237      46.7237      46.7237 
  294000    106.03934   -8106.9922   -7467.5561   -784.11476     102002.7      46.7237      46.7237      46.7237 
  295000    109.73984   -8095.3603   -7433.6095   -870.92253     102002.7      46.7237      46.7237      46.7237 
  296000    108.96542   -8123.8724   -7466.7914   -638.71343     102002.7      46.7237      46.7237      46.7237 
  297000    111.34106   -8087.4735    -7416.067   -728.51564     102002.7      46.7237      46.7237      46.7237 
  298000    109.17717   -8095.3629    -7437.005   -978.28659     102002.7      46.7237      46.7237      46.7237 
  299000     112.5845   -8112.6186   -7433.7139   -607.44349     102002.7      46.7237      46.7237      46.7237 
  300000    111.24872    -8104.013   -7433.1634   -813.53376     102002.7      46.7237      46.7237      46.7237 
  301000    109.11207   -8091.7749   -7433.8097   -643.77611     102002.7      46.7237      46.7237      46.7237 
  302000    109.84295   -8120.3437   -7457.9711   -810.62889     102002.7      46.7237      46.7237      46.7237 
  303000    113.15217   -8106.5944   -7424.2665   -1088.4981     102002.7      46.7237      46.7237      46.7237 
  304000    111.15847   -8125.5414   -7455.2359   -1046.0735     102002.7      46.7237      46.7237      46.7237 
  305000    110.14974   -8112.0406    -7447.818   -838.62263     102002.7      46.7237      46.7237      46.7237 
  306000    107.49097   -8106.1869   -7457.9971   -712.44501     102002.7      46.7237      46.7237      46.7237 
  307000    112.47666   -8128.0469   -7449.7925   -759.71755     102002.7      46.7237      46.7237      46.7237 
  308000    112.00026   -8109.9277   -7434.5461   -711.48289     102002.7      46.7237      46.7237      46.7237 
  309000    109.34887   -8113.8395   -7454.4463   -548.19409     102002.7      46.7237      46.7237      46.7237 
  310000    109.55301   -8076.7655   -7416.1412   -1008.6302     102002.7      46.7237      46.7237      46.7237 
  311000    114.32138    -8092.598   -7403.2197    -1003.864     102002.7      46.7237      46.7237      46.7237 
  312000    109.39264   -8092.2273   -7432.5701   -886.61555     102002.7      46.7237      46.7237      46.7237 
  313000    107.92288   -8091.0696   -7440.2754   -622.88463     102002.7      46.7237      46.7237      46.7237 
  314000    111.56741   -8090.7272   -7417.9557    -980.3199     102002.7      46.7237      46.7237      46.7237 
  315000     112.9642   -8109.6857   -7428.4914   -660.35632     102002.7      46.7237      46.7237      46.7237 
  316000    108.43016   -8092.0476   -7438.1943    -889.0158     102002.7      46.7237      46.7237      46.7237 
  317000    108.97976   -8098.8079   -7441.6405    -734.0836     102002.7      46.7237      46.7237      46.7237 
  318000    112.33955    -8091.058   -7413.6304   -914.33045     102002.7      46.7237      46.7237      46.7237 
  319000    109.98065   -8127.7969   -7464.5939   -703.01872     102002.7      46.7237      46.7237      46.7237 
  320000    111.24638   -8103.4333   -7432.5978   -642.39916     102002.7      46.7237      46.7237      46.7237 
  321000    107.43521   -8086.7077   -7438.8541   -518.45294     102002.7      46.7237      46.7237      46.7237 
  322000    110.47619   -8113.1649   -7446.9738   -732.14648     102002.7      46.7237      46.7237      46.7237 
  323000    108.80606   -8115.4765   -7459.3565   -756.38185     102002.7      46.7237      46.7237      46.7237 
  324000    110.94288   -8113.3983   -7444.3929   -648.27497     102002.7      46.7237      46.7237      46.7237 
  325000    111.44545   -8092.4935   -7420.4575   -572.89731     102002.7      46.7237      46.7237      46.7237 
  326000    110.11956    -8088.832   -7424.7913   -355.01316     102002.7      46.7237      46.7237      46.7237 
  327000    109.36016   -8109.7443    -7450.283   -769.66895     102002.7      46.7237      46.7237      46.7237 
  328000    107.37647   -8086.7331   -7439.2338   -799.11249     102002.7      46.7237      46.7237      46.7237 
  329000    107.60645   -8111.6964   -7462.8103   -806.21874     102002.7      46.7237      46.7237      46.7237 
  330000    111.74249   -8065.9274   -7392.1003   -875.38297     102002.7      46.7237      46.7237      46.7237 
  331000    110.68413   -8125.3057   -7457.8606   -962.05883     102002.7      46.7237      46.7237      46.7237 
  332000    112.06786   -8098.4851   -7422.6959   -876.97573     102002.7      46.7237      46.7237      46.7237 
  333000     111.1982   -8103.6144   -7433.0694   -525.40185     102002.7      46.7237      46.7237      46.7237 
  334000    112.08875   -8101.2839   -7425.3687   -937.22969     102002.7      46.7237      46.7237      46.7237 
  335000    110.24984   -8099.8597   -7435.0335   -633.49259     102002.7      46.7237      46.7237      46.7237 
  336000     109.1403    -8090.773   -7432.6375   -884.81369     102002.7      46.7237      46.7237      46.7237 
  337000    113.01667   -8094.5114   -7413.0007   -1083.4353     102002.7      46.7237      46.7237      46.7237 
  338000    111.68163    -8088.204   -7414.7438   -758.76689     102002.7      46.7237      46.7237      46.7237 
  339000    108.80276   -8113.2997   -7457.1995   -808.71756     102002.7      46.7237      46.7237      46.7237 
  340000    110.96294   -8115.6353   -7446.5089   -630.41853     102002.7      46.7237      46.7237      46.7237 
  341000    105.58311   -8088.3482   -7451.6631   -675.53614     102002.7      46.7237      46.7237      46.7237 
  342000    109.73783   -8071.8123   -7410.0736   -1180.1876     102002.7      46.7237      46.7237      46.7237 
  343000    109.32572   -8095.1302   -7435.8766   -671.71139     102002.7      46.7237      46.7237      46.7237 
  344000    110.33269   -8104.9102   -7439.5843   -705.21381     102002.7      46.7237      46.7237      46.7237 
  345000    106.74458   -8103.6429    -7459.954   -731.71132     102002.7      46.7237      46.7237      46.7237 
  346000    112.78554   -8099.0544   -7418.9374   -689.05234     102002.7      46.7237      46.7237      46.7237 
  347000    113.18295    -8109.737   -7427.2235   -578.71098     102002.7      46.7237      46.7237      46.7237 
  348000    108.97797   -8104.9589   -7447.8023    -630.4946     102002.7      46.7237      46.7237      46.7237 
  349000    107.92579   -8111.9116   -7461.0998   -637.14148     102002.7      46.7237      46.7237      46.7237 
  350000    110.95039   -8095.5196   -7426.4689   -630.21306     102002.7      46.7237      46.7237      46.7237 
  351000    111.26061   -8096.5913   -7425.6699   -1007.3228     102002.7      46.7237      46.7237      46.7237 
  352000    109.49337   -8130.9453   -7470.6807   -582.57193     102002.7      46.7237      46.7237      46.7237 
  353000    111.74035   -8103.7184   -7429.9041   -881.36332     102002.7      46.7237      46.7237      46.7237 
  354000    109.41086   -8097.2198   -7437.4528   -785.42763     102002.7      46.7237      46.7237      46.7237 
  355000    107.25628   -8104.1997   -7457.4252   -1092.8331     102002.7      46.7237      46.7237      46.7237 
  356000    109.91492   -8099.4524   -7436.6459   -1154.2463     102002.7      46.7237      46.7237      46.7237 
  357000     106.7556   -8095.9521   -7452.1968   -653.09211     102002.7      46.7237      46.7237      46.7237 
  358000    110.68183   -8104.3034   -7436.8722    -741.5263     102002.7      46.7237      46.7237      46.7237 
  359000    113.46552   -8113.7607   -7429.5433   -628.95336     102002.7      46.7237      46.7237      46.7237 
  360000    112.32669   -8085.3372   -7407.9872   -678.02053     102002.7      46.7237      46.7237      46.7237 
  361000    112.71124   -8087.1316   -7407.4627   -1029.4116     102002.7      46.7237      46.7237      46.7237 
  362000    107.70225   -8077.6819   -7428.2181   -1214.0429     102002.7      46.7237      46.7237      46.7237 
  363000     107.9019   -8101.0696   -7450.4019   -850.92448     102002.7      46.7237      46.7237      46.7237 
  364000    110.38099   -8084.8463   -7419.2292   -542.64325     102002.7      46.7237      46.7237      46.7237 
  365000    112.47898   -8086.8303    -7408.562   -660.48203     102002.7      46.7237      46.7237      46.7237 
  366000     109.9607   -8113.4238   -7450.3411   -681.30618     102002.7      46.7237      46.7237      46.7237 
  367000      109.716   -8091.3498   -7429.7427   -951.07564     102002.7      46.7237      46.7237      46.7237 
  368000    110.90541   -8092.6846   -7423.9051   -803.86311     102002.7      46.7237      46.7237      46.7237 
  369000    113.80136   -8062.3088   -7376.0662   -926.84312     102002.7      46.7237      46.7237      46.7237 
  370000    106.77196   -8098.5184   -7454.6643    -857.1239     102002.7      46.7237      46.7237      46.7237 
  371000    110.25626    -8091.743    -7426.878   -563.46229     102002.7      46.7237      46.7237      46.7237 
  372000    108.79798   -8082.1033    -7426.032   -674.44728     102002.7      46.7237      46.7237      46.7237 
  373000    111.45076   -8108.0019   -7435.9339    -583.3116     102002.7      46.7237      46.7237      46.7237 
  374000    111.04603    -8080.523   -7410.8956   -1012.8021     102002.7      46.7237      46.7237      46.7237 
  375000     111.5601   -8093.7716   -7421.0442   -659.55979     102002.7      46.7237      46.7237      46.7237 
  376000    107.03489   -8117.9044   -7472.4649   -736.17418     102002.7      46.7237      46.7237      46.7237 
  377000    109.35371   -8091.9243   -7432.5018   -600.89601     102002.7      46.7237      46.7237      46.7237 
  378000    108.56926   -8089.7963   -7435.1043   -750.11992     102002.7      46.7237      46.7237      46.7237 
  379000    113.46618   -8092.1832   -7407.9618   -525.11005     102002.7      46.7237      46.7237      46.7237 
  380000    108.75539   -8106.8394   -7451.0249    -825.8413     102002.7      46.7237      46.7237      46.7237 
  381000    109.19591   -8116.0683   -7457.5974   -590.28328     102002.7      46.7237      46.7237      46.7237 
  382000    108.41565   -8100.2484   -7446.4826   -859.06754     102002.7      46.7237      46.7237      46.7237 
  383000     109.9374   -8099.1527   -7436.2105   -825.02165     102002.7      46.7237      46.7237      46.7237 
  384000    114.05929   -8096.3613   -7408.5634   -751.58438     102002.7      46.7237      46.7237      46.7237 
  385000     109.1701   -8093.3767   -7435.0615   -907.80672     102002.7      46.7237      46.7237      46.7237 
  386000    109.00341     -8112.28   -7454.9699   -723.11494     102002.7      46.7237      46.7237      46.7237 
  387000    108.98323   -8074.8136   -7417.6253   -795.06505     102002.7      46.7237      46.7237      46.7237 
  388000    107.33295   -8101.6601   -7454.4232   -812.25294     102002.7      46.7237      46.7237      46.7237 
  389000    109.50767   -8077.6869    -7417.336   -1066.5931     102002.7      46.7237      46.7237      46.7237 
  390000    109.99349   -8073.7858   -7410.5054   -1014.8801     102002.7      46.7237      46.7237      46.7237 
  391000    110.73871   -8092.2945   -7424.5203   -861.48063     102002.7      46.7237      46.7237      46.7237 
  392000    108.62752   -8081.1261   -7426.0828   -884.49613     102002.7      46.7237      46.7237      46.7237 
  393000    108.59173    -8110.157   -7455.3295   -856.83674     102002.7      46.7237      46.7237      46.7237 
  394000    113.05819   -8098.7552   -7416.9941   -992.14897     102002.7      46.7237      46.7237      46.7237 
  395000    112.88643    -8101.929   -7421.2037   -768.27878     102002.7      46.7237      46.7237      46.7237 
  396000    110.46216   -8103.4565   -7437.3499   -1106.0568     102002.7      46.7237      46.7237      46.7237 
  397000    112.24731   -8078.1313     -7401.26   -918.79615     102002.7      46.7237      46.7237      46.7237 
  398000     110.5155   -8112.0642    -7445.636   -873.62414     102002.7      46.7237      46.7237      46.7237 
  399000    110.62521   -8085.9746   -7418.8848   -1063.7675     102002.7      46.7237      46.7237      46.7237 
  400000    108.29548   -8077.0127   -7423.9716   -852.01618     102002.7      46.7237      46.7237      46.7237 
  401000    108.56816   -8100.8281   -7446.1427   -1307.3068     102002.7      46.7237      46.7237      46.7237 
  402000    109.24928   -8098.7964   -7440.0037   -961.86475     102002.7      46.7237      46.7237      46.7237 
  403000    109.44528   -8089.2174   -7429.2428   -760.11114     102002.7      46.7237      46.7237      46.7237 
  404000    106.40806   -8081.9944   -7440.3348   -841.05279     102002.7      46.7237      46.7237      46.7237 
  405000    107.26629   -8092.9435   -7446.1086   -928.57305     102002.7      46.7237      46.7237      46.7237 
  406000    111.30902   -8086.8076   -7415.5943    -818.5054     102002.7      46.7237      46.7237      46.7237 
  407000    111.34659   -8109.8996   -7438.4598   -966.35129     102002.7      46.7237      46.7237      46.7237 
  408000    109.20894   -8107.8204    -7449.271    -1070.933     102002.7      46.7237      46.7237      46.7237 
  409000     111.5015   -8096.0881   -7423.7141   -517.52257     102002.7      46.7237      46.7237      46.7237 
  410000    106.70436     -8111.63   -7468.1836   -778.79648     102002.7      46.7237      46.7237      46.7237 
  411000    108.63353   -8068.5608   -7413.4812    -1023.636     102002.7      46.7237      46.7237      46.7237 
  412000     106.6261   -8116.8615    -7473.887   -1165.4638     102002.7      46.7237      46.7237      46.7237 
  413000    109.85695   -8079.4693   -7417.0122   -970.15075     102002.7      46.7237      46.7237      46.7237 
  414000    111.38323   -8103.1194   -7431.4587   -535.46494     102002.7      46.7237      46.7237      46.7237 
  415000    110.92647   -8087.7734    -7418.867    -826.9115     102002.7      46.7237      46.7237      46.7237 
  416000    111.93908   -8116.1845   -7441.1718   -705.02028     102002.7      46.7237      46.7237      46.7237 
  417000    110.95778   -8103.3432    -7434.248    -774.5758     102002.7      46.7237      46.7237      46.7237 
  418000    109.20529   -8131.5061   -7472.9787   -721.66505     102002.7      46.7237      46.7237      46.7237 
  419000    109.66138   -8083.8117    -7422.534   -662.68653     102002.7      46.7237      46.7237      46.7237 
  420000    109.66448   -8116.1965   -7454.9001   -623.91238     102002.7      46.7237      46.7237      46.7237 
  421000     110.1018    -8083.026   -7419.0925   -603.77604     102002.7      46.7237      46.7237      46.7237 
  422000    110.19178   -8108.7361     -7444.26   -903.18486     102002.7      46.7237      46.7237      46.7237 
  423000    112.55566   -8099.5973   -7420.8665   -659.95288     102002.7      46.7237      46.7237      46.7237 
  424000    111.23777   -8105.8866   -7435.1029   -786.22741     102002.7      46.7237      46.7237      46.7237 
  425000     106.3506   -8097.2459   -7455.9328   -818.25561     102002.7      46.7237      46.7237      46.7237 
  426000      109.984    -8080.449   -7417.2259   -862.15798     102002.7      46.7237      46.7237      46.7237 
  427000    109.65863   -8122.2825   -7461.0214   -927.16394     102002.7      46.7237      46.7237      46.7237 
  428000    112.46383   -8101.1024   -7422.9254   -986.96338     102002.7      46.7237      46.7237      46.7237 
  429000    109.83487   -8120.4821   -7458.1583      -694.03     102002.7      46.7237      46.7237      46.7237 
  430000    108.82982   -8098.7641   -7442.5008   -993.26708     102002.7      46.7237      46.7237      46.7237 
  431000    111.36665   -8110.2547   -7438.6939   -812.57285     102002.7      46.7237      46.7237      46.7237 
  432000    111.69749   -8095.9803   -7422.4245   -898.51435     102002.7      46.7237      46.7237      46.7237 
  433000    106.98642   -8109.7597   -7464.6124   -1094.9612     102002.7      46.7237      46.7237      46.7237 
  434000    108.68152   -8105.3816   -7450.0126   -904.91893     102002.7      46.7237      46.7237      46.7237 
  435000    108.84064   -8115.7575    -7459.429   -878.46614     102002.7      46.7237      46.7237      46.7237 
  436000    111.46814   -8097.1106   -7424.9378   -997.81546     102002.7      46.7237      46.7237      46.7237 
  437000    108.45095   -8106.4947   -7452.5161    -958.0658     102002.7      46.7237      46.7237      46.7237 
  438000    105.71914    -8089.077   -7451.5716     -680.962     102002.7      46.7237      46.7237      46.7237 
  439000    111.64378   -8118.8646   -7445.6327   -901.89527     102002.7      46.7237      46.7237      46.7237 
  440000    111.02136   -8085.4483   -7415.9697   -731.28247     102002.7      46.7237      46.7237      46.7237 
  441000    109.40938   -8114.0887   -7454.3306   -958.73168     102002.7      46.7237      46.7237      46.7237 
  442000    108.16724   -8115.9507   -7463.6829   -968.15941     102002.7      46.7237      46.7237      46.7237 
  443000    113.08308   -8121.8688   -7439.9576   -1162.3143     102002.7      46.7237      46.7237      46.7237 
  444000    111.80734   -8091.2426   -7417.0244   -914.92367     102002.7      46.7237      46.7237      46.7237 
  445000    112.27956   -8101.8693   -7424.8035   -817.36475     102002.7      46.7237      46.7237      46.7237 
  446000    110.20208   -8123.9285   -7459.3902    -923.3954     102002.7      46.7237      46.7237      46.7237 
  447000    109.61163   -8138.4943   -7477.5166   -868.66144     102002.7      46.7237      46.7237      46.7237 
  448000    111.34524   -8133.6946   -7462.2629   -747.42602     102002.7      46.7237      46.7237      46.7237 
  449000     109.1973   -8097.4352   -7438.9559   -1244.9345     102002.7      46.7237      46.7237      46.7237 
  450000    109.10015    -8112.614   -7454.7206   -818.99635     102002.7      46.7237      46.7237      46.7237 
  451000    112.16498   -8083.2056   -7406.8307   -668.49646     102002.7      46.7237      46.7237      46.7237 
  452000        108.2   -8117.2183    -7464.753   -607.84693     102002.7      46.7237      46.7237      46.7237 
  453000    108.31592   -8078.3145   -7425.1502   -464.75489     102002.7      46.7237      46.7237      46.7237 
  454000    109.11952   -8113.4686   -7455.4584   -942.52528     102002.7      46.7237      46.7237      46.7237 
  455000    110.09106   -8116.6857    -7452.817   -739.84829     102002.7      46.7237      46.7237      46.7237 
  456000    110.38489   -8104.6221   -7438.9815   -829.65523     102002.7      46.7237      46.7237      46.7237 
  457000    108.89997   -8130.8482    -7474.162   -611.46365     102002.7      46.7237      46.7237      46.7237 
  458000    109.04465   -8111.1315   -7453.5727   -631.52549     102002.7      46.7237      46.7237      46.7237 
  459000    111.69572   -8103.5111   -7429.9659   -951.56947     102002.7      46.7237      46.7237      46.7237 
  460000    108.41719   -8097.7163   -7443.9413   -1085.6931     102002.7      46.7237      46.7237      46.7237 
  461000    109.19861   -8089.3975   -7430.9104   -617.66167     102002.7      46.7237      46.7237      46.7237 
  462000    109.87796   -8121.7547    -7459.171   -728.48364     102002.7      46.7237      46.7237      46.7237 
  463000    109.28384   -8108.8925   -7449.8913   -789.57944     102002.7      46.7237      46.7237      46.7237 
  464000    109.44764   -8095.6367   -7435.6478   -588.71576     102002.7      46.7237      46.7237      46.7237 
  465000    107.27172   -8097.1252   -7450.2576   -718.25759     102002.7      46.7237      46.7237      46.7237 
  466000    108.52641   -8124.8276   -7470.3939   -750.12421     102002.7      46.7237      46.7237      46.7237 
  467000    111.96477   -8109.3926    -7434.225   -668.73644     102002.7      46.7237      46.7237      46.7237 
  468000     112.1764   -8111.9127    -7435.469    -847.5244     102002.7      46.7237      46.7237      46.7237 
  469000    110.04951   -8114.5737   -7450.9555   -801.98971     102002.7      46.7237      46.7237      46.7237 
  470000    110.18317   -8118.9045   -7454.4803   -832.03181     102002.7      46.7237      46.7237      46.7237 
  471000    106.26992   -8089.3663   -7448.5397   -1082.5124     102002.7      46.7237      46.7237      46.7237 
  472000    108.56977     -8097.72   -7443.0249   -838.68281     102002.7      46.7237      46.7237      46.7237 
  473000    109.90477   -8129.5442   -7466.7988   -853.95599     102002.7      46.7237      46.7237      46.7237 
  474000    110.49631   -8100.3585   -7434.0461   -1041.2408     102002.7      46.7237      46.7237      46.7237 
  475000    109.40358   -8116.3835   -7456.6604   -753.92962     102002.7      46.7237      46.7237      46.7237 
  476000     111.8099    -8109.002   -7434.7683   -1010.9765     102002.7      46.7237      46.7237      46.7237 
  477000    110.56788   -8108.7326   -7441.9886   -543.93402     102002.7      46.7237      46.7237      46.7237 
  478000    109.02163    -8085.882   -7428.4621   -723.53043     102002.7      46.7237      46.7237      46.7237 
  479000      107.617   -8109.5741   -7460.6243   -1005.6677     102002.7      46.7237      46.7237      46.7237 
  480000     108.6044   -8116.2986   -7461.3946   -792.99552     102002.7      46.7237      46.7237      46.7237 
  481000    109.95897   -8079.0016   -7415.9294    -876.7825     102002.7      46.7237      46.7237      46.7237 
  482000    111.45101    -8098.056   -7425.9865   -978.00741     102002.7      46.7237      46.7237      46.7237 
  483000    107.61683   -8116.5461   -7467.5974   -1051.5749     102002.7      46.7237      46.7237      46.7237 
  484000    107.63657   -8091.5465   -7442.4787   -1007.2224     102002.7      46.7237      46.7237      46.7237 
  485000    109.62913   -8087.3209   -7426.2377   -852.46435     102002.7      46.7237      46.7237      46.7237 
  486000    111.12889   -8111.7819   -7441.6548   -1047.5354     102002.7      46.7237      46.7237      46.7237 
  487000    107.16462    -8101.745   -7455.5232   -1045.8405     102002.7      46.7237      46.7237      46.7237 
  488000    109.56282   -8090.1148   -7429.4314   -844.91539     102002.7      46.7237      46.7237      46.7237 
  489000    111.02331   -8079.4991   -7410.0087   -964.96218     102002.7      46.7237      46.7237      46.7237 
  490000    109.03004    -8088.321   -7430.8503   -818.37486     102002.7      46.7237      46.7237      46.7237 
  491000    111.97124   -8100.8838   -7425.6772   -893.84882     102002.7      46.7237      46.7237      46.7237 
  492000     110.8321   -8088.3672   -7420.0299    -1157.691     102002.7      46.7237      46.7237      46.7237 
  493000     112.0322    -8119.566   -7443.9918   -848.90191     102002.7      46.7237      46.7237      46.7237 
  494000     110.2872   -8075.3208   -7410.2693   -579.65876     102002.7      46.7237      46.7237      46.7237 
  495000    111.60945   -8095.9906   -7422.9657   -789.28268     102002.7      46.7237      46.7237      46.7237 
  496000    108.55298    -8094.795   -7440.2011   -665.89121     102002.7      46.7237      46.7237      46.7237 
  497000    108.21101   -8116.5686   -7464.0368   -750.10547     102002.7      46.7237      46.7237      46.7237 
  498000    109.46563     -8095.86   -7435.7626   -753.95098     102002.7      46.7237      46.7237      46.7237 
  499000    112.77836   -8123.1877    -7443.114   -597.94652     102002.7      46.7237      46.7237      46.7237 
  500000    106.63246   -8114.3327   -7471.3199   -681.59158     102002.7      46.7237      46.7237      46.7237 
  500501    109.60881   -8101.6176   -7440.6569   -665.20867     102002.7      46.7237      46.7237      46.7237 
Loop time of 616.01 on 24 procs for 500000 steps with 2024 atoms

Performance: 70.129 ns/day, 0.342 hours/ns, 811.675 timesteps/s
99.7% CPU use with 24 MPI tasks x no OpenMP threads

MPI task timing breakdown:
Section |  min time  |  avg time  |  max time  |%varavg| %total
---------------------------------------------------------------
Pair    | 216.02     | 306.88     | 393.89     | 293.3 | 49.82
Bond    | 62.611     | 78.653     | 96.394     | 104.6 | 12.77
Neigh   | 3.2332     | 3.2579     | 3.2744     |   0.8 |  0.53
Comm    | 123.77     | 219.4      | 312.42     | 354.2 | 35.62
Output  | 0.35137    | 0.35175    | 0.35562    |   0.1 |  0.06
Modify  | 3.6978     | 4.1237     | 4.4598     |   9.7 |  0.67
Other   |            | 3.351      |            |       |  0.54

Nlocal:    84.3333 ave 110 max 53 min
Histogram: 1 1 3 4 2 1 2 5 2 3
Nghost:    2286.67 ave 2445 max 2194 min
Histogram: 8 6 2 0 0 0 0 1 2 5
Neighs:    7640.62 ave 12002 max 3489 min
Histogram: 3 1 4 2 4 2 0 3 2 3

Total # of neighbors = 183375
Ave neighs/atom = 90.6003
Ave special neighs/atom = 5.6917
Neighbor list builds = 4286
Dangerous builds = 0
Neighbor list info ...
  update every 1 steps, delay 10 steps, check yes
  max neighbors/atom: 2000, page size: 100000
  master list distance cutoff = 16
  ghost atom cutoff = 16
  binsize = 8, bins = 6 6 6
  3 neighbor lists, perpetual/occasional/extra = 3 0 0
  (1) pair buck6d/coul/gauss/dsf, perpetual, skip from (3)
      attributes: half, newton on
      pair build: skip
      stencil: none
      bin: none
  (2) pair lj/cut, perpetual, skip from (3)
      attributes: half, newton on
      pair build: skip
      stencil: none
      bin: none
  (3) neighbor class addition, perpetual
      attributes: half, newton on
      pair build: half/bin/newton
      stencil: half/bin/3d/newton
      bin: standard
Setting up Verlet run ...
  Unit style    : real
  Current step  : 500501
  Time step     : 1
WARNING: Inconsistent image flags (../domain.cpp:786)
Per MPI rank memory allocation (min/avg/max) = 24.13 | 24.5 | 24.59 Mbytes
Step Time TotEng KinEng PotEng E_mol E_pair Temp Pxx Pyy Pzz Pxy Pxz Pyz Cella Cellb Cellc CellAlpha CellBeta CellGamma Volume Press 
  500501       500000   -7440.6569    660.96071   -8101.6176    4287.9329    -12389.55    109.60881   -771.79411    -399.4723    -824.3596    56.249748    -147.0596   -78.140904      46.7237      46.7237      46.7237           90           90           90     102002.7   -665.20867 
  501000       500499   -7443.3684    673.44887   -8116.8173    4274.0445   -12390.862    111.67975   -228.82557    -1178.505   -266.89631    20.098215      30.0735   -46.367253      46.7237      46.7237      46.7237           90           90           90     102002.7   -558.07562 
  502000       501499   -7440.1229    670.22386   -8110.3467    4284.4365   -12394.783    111.14494   -785.45661   -587.48077   -274.25692   -96.748293   -21.118865    33.575358      46.7237      46.7237      46.7237           90           90           90     102002.7   -549.06477 
  503000       502499   -7439.3145    676.05195   -8115.3664     4272.845   -12388.211    112.11143   -636.28325   -1073.1357   -937.04107    90.567832    273.11768    229.20398      46.7237      46.7237      46.7237           90           90           90     102002.7   -882.15334 
  504000       503499   -7426.9451    674.55165   -8101.4968    4293.4835    -12394.98    111.86263   -453.50373   -249.98991   -840.19593    -2.719854    -358.4198    155.48372      46.7237      46.7237      46.7237           90           90           90     102002.7   -514.56319 
  505000       504499   -7449.0753    661.62545   -8110.7007    4273.9508   -12384.652    109.71904    -741.4956   -951.41599    -864.2646   -10.917954    27.239835    -149.5248      46.7237      46.7237      46.7237           90           90           90     102002.7   -852.39206 
  506000       505499   -7436.9644    667.44144   -8104.4059    4289.7947   -12394.201    110.68353   -193.63511   -627.14539   -980.42086    144.94535    34.261459    68.222031      46.7237      46.7237      46.7237           90           90           90     102002.7   -600.40045 
  507000       506499   -7443.4115     656.0958   -8099.5073    4280.0958   -12379.603    108.80205     -541.911   -461.31709   -795.33324   -45.834197    104.12836   -46.814909      46.7237      46.7237      46.7237           90           90           90     102002.7   -599.52044 
  508000       507499   -7404.0766    673.54417   -8077.6208    4310.3324   -12387.953    111.69556   -837.37499   -661.18324   -641.10098     46.21323   -176.61939    8.3918897      46.7237      46.7237      46.7237           90           90           90     102002.7   -713.21973 
  509000       508499   -7447.1897    667.54834   -8114.7381    4279.1515    -12393.89    110.70125   -715.98644   -323.52845   -611.58121    -120.8831    -52.41256    25.603158      46.7237      46.7237      46.7237           90           90           90     102002.7   -550.36537 
  510000       509499   -7467.2271    639.49357   -8106.7206    4279.2826   -12386.003    106.04886   -659.37838   -884.61169   -677.92033   -112.87333    75.005268    274.88845      46.7237      46.7237      46.7237           90           90           90     102002.7    -740.6368 
  511000       510499   -7434.8642    658.50255   -8093.3668      4304.94   -12398.307    109.20117   -441.07892   -622.78561   -835.60972    12.228029    132.64872   -114.62855      46.7237      46.7237      46.7237           90           90           90     102002.7   -633.15808 
  512000       511499   -7415.3298    665.97917    -8081.309    4310.3399   -12391.649    110.44103   -867.04151   -921.80273   -845.46104   -21.884265   -29.053742   -81.437255      46.7237      46.7237      46.7237           90           90           90     102002.7   -878.10176 
  513000       512499   -7464.4392    660.22331   -8124.6625    4281.6934   -12406.356    109.48652    -951.5753   -522.69859   -779.84594  -0.60410526   -32.447327    206.89408      46.7237      46.7237      46.7237           90           90           90     102002.7   -751.37327 
  514000       513499   -7435.9754    674.90344   -8110.8788    4283.5937   -12394.473    111.92097   -1019.6476   -895.24926   -740.07184   -146.88463    81.380691    -28.65326      46.7237      46.7237      46.7237           90           90           90     102002.7   -884.98955 
  515000       514499   -7439.9955    662.82575   -8102.8213         4290   -12392.821    109.91809   -740.81333   -1159.6915   -853.30419    66.902677    -138.2077   -110.49922      46.7237      46.7237      46.7237           90           90           90     102002.7   -917.93633 
  516000       515499   -7461.8118    646.06123   -8107.8731     4293.996   -12401.869    107.13799   -739.66952    -776.0265   -554.56985    108.91796   -53.398257   -209.53008      46.7237      46.7237      46.7237           90           90           90     102002.7   -690.08862 
  517000       516499   -7442.1326    649.45541    -8091.588    4298.5212   -12390.109    107.70086   -1185.1321   -826.61342   -1182.6671    64.501296   -38.616575   -195.59112      46.7237      46.7237      46.7237           90           90           90     102002.7   -1064.8042 
  518000       517499    -7423.589    671.72408    -8095.313    4309.5371    -12404.85    111.39373    -753.0431   -609.87387   -310.21207   -1.6518725   -175.82576    99.517424      46.7237      46.7237      46.7237           90           90           90     102002.7   -557.70968 
  519000       518499   -7420.3991    662.12488    -8082.524    4296.1025   -12378.626    109.80187    -884.6952    -990.4954   -325.70145    33.667313    147.33694    48.262479      46.7237      46.7237      46.7237           90           90           90     102002.7   -733.63068 
  520000       519499   -7432.2311     664.0108   -8096.2419    4304.3714   -12400.613    110.11461   -750.91459   -786.91061   -883.94301    133.28485   -82.904835   -9.1868026      46.7237      46.7237      46.7237           90           90           90     102002.7   -807.25607 
  521000       520499   -7435.6544    651.61879   -8087.2732    4293.7668    -12381.04    108.05961   -351.10438   -994.14851   -433.00816   -216.57168   -57.732747   -108.11455      46.7237      46.7237      46.7237           90           90           90     102002.7   -592.75369 
  522000       521499   -7434.2125    666.01075   -8100.2232    4297.9186   -12398.142    110.44627   -901.83924   -827.34145   -995.26987    54.482737      34.7583   -130.04517      46.7237      46.7237      46.7237           90           90           90     102002.7   -908.15018 
  523000       522499   -7438.9787    656.74071   -8095.7194    4285.8056   -12381.525      108.909   -631.18764   -533.66907   -728.38973   -65.423506    177.67022    7.3476973      46.7237      46.7237      46.7237           90           90           90     102002.7   -631.08215 
  524000       523499   -7419.7771    662.16233   -8081.9395    4299.7877   -12381.727    109.80808   -1038.4562   -681.11964   -858.38612    195.33504    2.6446763   -137.35514      46.7237      46.7237      46.7237           90           90           90     102002.7   -859.32064 
  525000       524499   -7455.1047    647.00004   -8102.1047      4283.52   -12385.625    107.29368   -976.42694   -878.29306   -1173.7905   -113.85893    138.33234   -235.93876      46.7237      46.7237      46.7237           90           90           90     102002.7   -1009.5035 
  526000       525499   -7429.2575    685.13111   -8114.3886    4268.2531   -12382.642    113.61705   -420.71639   -332.43339   -865.84878   -63.589015   -50.459478    109.55189      46.7237      46.7237      46.7237           90           90           90     102002.7   -539.66619 
  527000       526499   -7456.4745    638.82806   -8095.3026    4293.6088   -12388.911     105.9385   -707.01135    -644.1576   -895.10497    72.223451    16.520059    29.847316      46.7237      46.7237      46.7237           90           90           90     102002.7   -748.75797 
  528000       527499   -7450.0125    660.69559   -8110.7081    4291.1549   -12401.863    109.56484   -778.24009   -1010.8637   -873.24057   -66.887335    35.061575   -4.8788372      46.7237      46.7237      46.7237           90           90           90     102002.7   -887.44811 
  529000       528499   -7425.5304    660.73313   -8086.2636    4289.8609   -12376.125    109.57107   -465.99052   -551.41497   -908.65246   -65.484151   -43.821875   -60.451273      46.7237      46.7237      46.7237           90           90           90     102002.7   -642.01932 
  530000       529499   -7436.9034    663.57873   -8100.4821    4298.1413   -12398.623    110.04296   -1089.2005   -989.81384    -1062.391    223.55361    167.15907   -126.39129      46.7237      46.7237      46.7237           90           90           90     102002.7   -1047.1351 
  531000       530499   -7415.5537    662.59633     -8078.15    4304.1692   -12382.319    109.88005   -1264.3583   -1096.1808   -975.83774   -111.66781   -45.119181    -83.10851      46.7237      46.7237      46.7237           90           90           90     102002.7   -1112.1256 
  532000       531499   -7442.9356    659.09512   -8102.0307     4305.749    -12407.78    109.29943   -916.67945   -983.35985   -592.11439   -146.65337    369.72401     162.0295      46.7237      46.7237      46.7237           90           90           90     102002.7    -830.7179 
  533000       532499    -7407.262    658.53846   -8065.8005    4318.8645   -12384.665    109.20712   -1079.0142   -571.39643   -1130.5265    38.887483    137.45428    46.358221      46.7237      46.7237      46.7237           90           90           90     102002.7   -926.97907 
  534000       533499   -7460.4016    658.87784   -8119.2795    4300.1202     -12419.4     109.2634   -793.80339   -483.79127   -575.37049   -80.773769   -73.029182   -159.61348      46.7237      46.7237      46.7237           90           90           90     102002.7   -617.65505 
  535000       534499   -7412.4351      651.236   -8063.6711    4333.0186    -12396.69    107.99613   -912.51694   -911.89247   -1002.6421   -109.23105   -23.208573   -82.278993      46.7237      46.7237      46.7237           90           90           90     102002.7   -942.35051 
  536000       535499    -7420.288    683.51771   -8103.8057    4284.9282   -12388.734    113.34949   -1083.1392   -1032.6551   -668.60741    129.23142   -106.06366     275.9657      46.7237      46.7237      46.7237           90           90           90     102002.7    -928.1339 
  537000       536499   -7442.1587    667.29094   -8109.4496    4291.6271   -12401.077    110.65857   -498.34446   -914.87529   -659.41006    156.95293     141.0287    311.71353      46.7237      46.7237      46.7237           90           90           90     102002.7    -690.8766 
  538000       537499   -7443.1431    664.20802   -8107.3511    4286.9228   -12394.274    110.14732   -658.26891   -841.90367   -1038.5152   -41.658765    46.794893   -73.892793      46.7237      46.7237      46.7237           90           90           90     102002.7   -846.22927 
  539000       538499   -7432.8204    662.02415   -8094.8445    4290.0179   -12384.862    109.78516    -366.2858   -926.05042   -518.11851   -29.362235   -71.824635   -24.281122      46.7237      46.7237      46.7237           90           90           90     102002.7   -603.48491 
  540000       539499   -7418.3464    670.94028   -8089.2867    4299.7145   -12389.001    111.26375   -244.05092    -403.0328   -205.86454   -154.73062   -46.860684    411.88709      46.7237      46.7237      46.7237           90           90           90     102002.7   -284.31609 
  541000       540499   -7447.6793     644.8867    -8092.566    4298.8043    -12391.37    106.94321   -829.79518   -665.64382    -1289.209   -183.56848    230.72326    88.005288      46.7237      46.7237      46.7237           90           90           90     102002.7     -928.216 
  542000       541499    -7426.384    663.55356   -8089.9376    4300.4945   -12390.432    110.03879   -939.26781   -724.91099   -914.80073    45.488096    92.989198   -33.790532      46.7237      46.7237      46.7237           90           90           90     102002.7   -859.65984 
  543000       542499   -7423.5998    663.26306   -8086.8629    4298.7357   -12385.599    109.99061   -528.01901   -807.74983   -1248.8127    186.82865    37.601386   -84.271194      46.7237      46.7237      46.7237           90           90           90     102002.7   -861.52719 
  544000       543499   -7405.4261    670.52921   -8075.9553    4305.6493   -12381.605    111.19558    -679.2732   -440.84446   -811.00846    1.3775039   -199.52571    200.62328      46.7237      46.7237      46.7237           90           90           90     102002.7   -643.70871 
  545000       544499   -7444.0855    668.17055    -8112.256    4271.3434   -12383.599    110.80443   -1500.9051   -588.39616   -631.68969    360.91224   -106.77369    313.98307      46.7237      46.7237      46.7237           90           90           90     102002.7   -906.99698 
  546000       545499   -7463.1988    662.42936   -8125.6282    4259.5912   -12385.219    109.85236   -415.08319   -1067.6661    -371.6261   -266.38606    59.647071    246.90245      46.7237      46.7237      46.7237           90           90           90     102002.7   -618.12512 
  547000       546499   -7433.4032    655.19678   -8088.5999    4307.6946   -12396.295    108.65296   -433.75069   -789.85444   -770.21376   -65.216383   -27.141626    164.36942      46.7237      46.7237      46.7237           90           90           90     102002.7    -664.6063 
  548000       547499   -7416.6108    679.83586   -8096.4466    4303.0125   -12399.459    112.73892   -661.23465   -714.02441   -1061.2044    176.29242    149.35809   -128.81745      46.7237      46.7237      46.7237           90           90           90     102002.7    -812.1545 
  549000       548499    -7431.472    668.66168   -8100.1337    4286.1973   -12386.331    110.88588   -704.68723   -981.75525   -882.67172    55.433161   -26.040115   -49.940919      46.7237      46.7237      46.7237           90           90           90     102002.7    -856.3714 
  550000       549499   -7449.0238    669.70635   -8118.7302    4262.0003    -12380.73    111.05912   -634.99314   -411.23379   -761.48083    187.43906   -29.724924   -51.920302      46.7237      46.7237      46.7237           90           90           90     102002.7   -602.56925 
  551000       550499   -7440.1924    667.06437   -8107.2568    4287.4114   -12394.668    110.62099   -1061.8241   -1045.3141   -667.25052    63.714165     99.30903    168.32707      46.7237      46.7237      46.7237           90           90           90     102002.7   -924.79626 
  552000       551499   -7431.3784    673.28457    -8104.663    4281.4821   -12386.145    111.65251   -452.84539   -669.80425   -889.24339    112.11659    136.96427    47.424415      46.7237      46.7237      46.7237           90           90           90     102002.7   -670.63101 
  553000       552499   -7429.4953    663.75159   -8093.2469    4307.6228    -12400.87    110.07163    -660.9707   -1099.9373   -852.90232   -27.266175   -286.10162   -32.801891      46.7237      46.7237      46.7237           90           90           90     102002.7    -871.2701 
  554000       553499   -7456.4654    668.80946   -8125.2748    4282.5662   -12407.841    110.91039   -598.99757   -1103.4816   -744.83053   -158.46049   -46.367976   -133.37688      46.7237      46.7237      46.7237           90           90           90     102002.7   -815.76989 
  555000       554499   -7433.5114    661.36433   -8094.8757    4305.3984   -12400.274    109.67574   -626.88206   -1260.2477   -1103.4079   -160.90686     60.66846   -67.974249      46.7237      46.7237      46.7237           90           90           90     102002.7   -996.84587 
[...]
  936000       935499   -7431.9116    649.58739    -8081.499    4313.3864   -12394.885    107.72274   -874.39802   -828.29631   -1004.5749    35.793389   -34.826733      53.3818      46.7237      46.7237      46.7237           90           90           90     102002.7   -902.42308 
  937000       936499     -7441.52    649.09936   -8090.6193    4298.6251   -12389.244    107.64181   -833.91471   -1423.9562    -788.5819    272.04553   -90.707256    283.92404      46.7237      46.7237      46.7237           90           90           90     102002.7   -1015.4843 
  938000       937499   -7407.4383    681.44479    -8088.883     4290.905   -12379.788    113.00574   -280.60247   -983.39673   -413.22762    -87.94784   -112.48775    -87.18012      46.7237      46.7237      46.7237           90           90           90     102002.7   -559.07561 
  939000       938499   -7424.2443    671.02772    -8095.272    4292.1708   -12387.443    111.27825   -1158.2224   -963.47319   -1200.1861   -225.22234   -93.754407   -97.686423      46.7237      46.7237      46.7237           90           90           90     102002.7   -1107.2939 
  940000       939499   -7455.1115    644.68093   -8099.7925    4308.8804   -12408.673    106.90909   -771.14277   -854.50436   -1426.9312   -87.996925   -37.203104    26.450243      46.7237      46.7237      46.7237           90           90           90     102002.7   -1017.5261 
  941000       940499   -7399.7572    692.05386    -8091.811    4282.9048   -12374.716    114.76507   -630.88129   -480.43004   -1487.2321    354.49329   -174.99154   -209.14702      46.7237      46.7237      46.7237           90           90           90     102002.7   -866.18113 
  942000       941499   -7422.1685     668.5605    -8090.729    4312.3655   -12403.095     110.8691   -899.49618   -606.81896   -655.94031    96.310259   -43.114993    17.201811      46.7237      46.7237      46.7237           90           90           90     102002.7   -720.75181 
  943000       942499   -7408.2648    675.43534   -8083.7002    4306.2903    -12389.99    112.00917   -680.14423   -978.68879   -611.35107    81.633624    -67.37433   -19.180147      46.7237      46.7237      46.7237           90           90           90     102002.7   -756.72803 
  944000       943499   -7422.8169    663.75118    -8086.568    4290.9823    -12377.55    110.07156   -890.19138   -563.07131   -1034.4336     87.17741    -66.62039    98.789032      46.7237      46.7237      46.7237           90           90           90     102002.7   -829.23208 
  945000       944499   -7444.2701    673.73785    -8118.008    4266.1474   -12384.155    111.72767   -922.25203   -475.85494   -584.69827    243.27866   -50.867826   -86.697669      46.7237      46.7237      46.7237           90           90           90     102002.7   -660.93508 
  946000       945499   -7432.3397    647.37465   -8079.7143    4291.9918   -12371.706     107.3558   -550.07091   -965.07764    -563.1099    84.229601   -92.085651   -60.306606      46.7237      46.7237      46.7237           90           90           90     102002.7   -692.75282 
  947000       946499    -7436.782    657.51491   -8094.2969    4294.8446   -12389.141    109.03738   -1057.3268   -895.87415   -785.66608    73.349271   -2.4849657    87.763891      46.7237      46.7237      46.7237           90           90           90     102002.7   -912.95569 
  948000       947499   -7448.6629    654.49071   -8103.1537    4283.7109   -12386.865    108.53587   -698.14115   -724.32551    -811.4783   -58.331182    21.766689   -97.779311      46.7237      46.7237      46.7237           90           90           90     102002.7   -744.64832 
  949000       948499   -7429.3473    654.80577   -8084.1531    4282.9823   -12367.135    108.58812   -328.71832   -949.47002    -655.3357   -158.35623    -273.7364   -192.48294      46.7237      46.7237      46.7237           90           90           90     102002.7   -644.50801 
  950000       949499   -7438.2466    654.50393   -8092.7505    4287.3039   -12380.054    108.53806   -832.92133   -671.42219   -651.85921    161.00345   -138.48458   -222.93882      46.7237      46.7237      46.7237           90           90           90     102002.7   -718.73424 
  951000       950499   -7430.0446    660.67331   -8090.7179     4299.447   -12390.165    109.56115   -749.60182   -631.52005   -828.76968    186.82283    26.068695    65.760779      46.7237      46.7237      46.7237           90           90           90     102002.7   -736.63051 
  952000       951499   -7394.0324    666.51417   -8060.5465    4300.3692   -12360.916    110.52975   -534.12431    -1001.798   -964.26602    99.842409     6.396403   -86.138705      46.7237      46.7237      46.7237           90           90           90     102002.7   -833.39611 
  953000       952499   -7438.4845    665.17442   -8103.6589    4295.2064   -12398.865    110.30758   -854.15761   -891.89843   -1072.5426    191.26563     115.8885   -242.17168      46.7237      46.7237      46.7237           90           90           90     102002.7   -939.53289 
  954000       953499   -7426.5839    665.07566   -8091.6596    4300.3593   -12392.019     110.2912   -378.47294   -704.21722   -1317.0952    -153.3767    94.967141   -54.891442      46.7237      46.7237      46.7237           90           90           90     102002.7   -799.92846 
  955000       954499   -7429.2837    665.05544   -8094.3391    4299.4823   -12393.821    110.28785   -1032.7501   -1242.4022   -651.36472    84.676469    297.64806   -26.414594      46.7237      46.7237      46.7237           90           90           90     102002.7   -975.50568 
  956000       955499    -7428.255    664.55377   -8092.8088    4287.6009    -12380.41    110.20465   -689.25369   -771.44434   -821.41066   -51.965723    228.24488   -103.75199      46.7237      46.7237      46.7237           90           90           90     102002.7    -760.7029 
  957000       956499     -7439.71    665.92269   -8105.6327    4262.9597   -12368.592    110.43167   -1061.6616   -794.89396   -859.80257    34.946171    6.0635782   -46.705164      46.7237      46.7237      46.7237           90           90           90     102002.7   -905.45271 
  958000       957499   -7425.6349    681.84974   -8107.4846    4274.6308   -12382.115    113.07289   -692.52281    -925.0958     -571.554   -66.964873   -202.05714   -49.051766      46.7237      46.7237      46.7237           90           90           90     102002.7    -729.7242 
  959000       958499    -7441.859    660.52473   -8102.3838    4292.1799   -12394.564    109.53651   -1183.6844    -672.2928   -904.45529   -24.998153    107.81314   -70.989266      46.7237      46.7237      46.7237           90           90           90     102002.7   -920.14416 
  960000       959499   -7435.2539    660.83936   -8096.0933    4280.9433   -12377.037    109.58869   -820.23692   -794.63131   -868.59039     13.66979    191.74491    53.926245      46.7237      46.7237      46.7237           90           90           90     102002.7   -827.81954 
  961000       960499   -7432.2155    652.32448   -8084.5399    4290.9371   -12375.477    108.17664    -861.0165   -887.79794   -528.31416   -67.341868    156.75497    63.497661      46.7237      46.7237      46.7237           90           90           90     102002.7   -759.04287 
  962000       961499   -7431.5248    668.45622   -8099.9811    4282.8028   -12382.784    110.85181   -744.05954   -956.72346   -1083.3023   -409.81343    19.451798    129.88328      46.7237      46.7237      46.7237           90           90           90     102002.7   -928.02843 
  963000       962499   -7438.6435     650.2878   -8088.9313    4291.8832   -12380.814    107.83889   -858.06094   -587.40962   -1310.1465    201.18236    35.846772   -114.89347      46.7237      46.7237      46.7237           90           90           90     102002.7   -918.53901 
  964000       963499   -7457.6508    643.44622    -8101.097       4289.8   -12390.897    106.70434   -701.42194   -1340.7243   -1068.7275    196.23146   -97.049364    200.20663      46.7237      46.7237      46.7237           90           90           90     102002.7   -1036.9579 
  965000       964499   -7443.3239    666.50374   -8109.8277      4286.72   -12396.548    110.52802   -638.08154   -1140.3724   -560.50349    149.05351   -158.95387    145.24672      46.7237      46.7237      46.7237           90           90           90     102002.7   -779.65248 
  966000       965499   -7406.1895    682.49311   -8088.6826    4296.3257   -12385.008    113.17958     -704.004   -1193.6909   -835.47718    106.57921   -46.842466    438.69646      46.7237      46.7237      46.7237           90           90           90     102002.7   -911.05737 
  967000       966499   -7424.7983    665.38151   -8090.1798    4289.0712   -12379.251    110.34192   -989.67347   -639.94873   -918.11167   -60.175037   -61.047083   -197.96136      46.7237      46.7237      46.7237           90           90           90     102002.7   -849.24462 
  968000       967499   -7441.4511    659.45814   -8100.9093    4291.1781   -12392.087    109.35963    -657.1427   -604.39908   -686.36032   -230.31337    8.0204906   -265.77506      46.7237      46.7237      46.7237           90           90           90     102002.7    -649.3007 
  969000       968499   -7426.6404    668.40398   -8095.0444    4295.2191   -12390.263    110.84315   -619.09138   -1257.1524   -1008.5491   -82.345187   -77.064403   -284.59667      46.7237      46.7237      46.7237           90           90           90     102002.7   -961.59763 
  970000       969499   -7425.9973    650.09486   -8076.0922    4316.3098   -12392.402     107.8069   -678.94927    -571.1219   -175.52529     133.4204   -154.25658   -2.0395753      46.7237      46.7237      46.7237           90           90           90     102002.7   -475.19882 
  971000       970499   -7437.1567    664.52227   -8101.6789    4291.6081   -12393.287    110.19943   -1056.3303   -1082.0222   -810.27265    8.8481069   -33.663011    19.129207      46.7237      46.7237      46.7237           90           90           90     102002.7   -982.87508 
  972000       971499   -7403.5311    687.27931   -8090.8104    4312.8224   -12403.633    113.97329   -757.05508   -666.67469   -639.96891    27.670067    9.6206914    148.76057      46.7237      46.7237      46.7237           90           90           90     102002.7   -687.89956 
  973000       972499   -7402.9058    665.48149   -8068.3873    4294.9036   -12363.291     110.3585   -8.6415189   -555.17736   -403.94316   -19.710224    41.959931   -65.965199      46.7237      46.7237      46.7237           90           90           90     102002.7   -322.58735 
  974000       973499   -7428.3029     664.9372   -8093.2401    4301.9763   -12395.216    110.26824   -902.60085   -916.01919   -428.93202   -26.384635   -45.275459    67.003719      46.7237      46.7237      46.7237           90           90           90     102002.7   -749.18402 
  975000       974499   -7389.3907    693.91277   -8083.3035    4313.0005   -12396.304    115.07333   -775.77779   -745.12748    -292.4335    232.36573    14.201031    199.82793      46.7237      46.7237      46.7237           90           90           90     102002.7   -604.44626 
  976000       975499   -7443.0537    657.61623     -8100.67    4291.3948   -12392.065    109.05419   -794.71256   -1183.2156   -562.22328   -51.348823    210.92137    43.902489      46.7237      46.7237      46.7237           90           90           90     102002.7   -846.71716 
  977000       976499   -7425.3603    665.98481   -8091.3451    4285.7489   -12377.094    110.44197    -907.6869   -491.41766    -416.7365   -163.51618   -8.2521467   -108.39264      46.7237      46.7237      46.7237           90           90           90     102002.7   -605.28036 
  978000       977499   -7445.9897    646.42405   -8092.4137    4291.1565    -12383.57    107.19816   -576.18588   -683.75739   -805.75875    5.8326308    38.432782    91.050837      46.7237      46.7237      46.7237           90           90           90     102002.7   -688.56734 
  979000       978499   -7450.6273    675.76924   -8126.3966    4260.8315   -12387.228    112.06455   -867.42201    -512.3272   -1024.2532   -30.000319    228.35437   -88.356808      46.7237      46.7237      46.7237           90           90           90     102002.7   -801.33414 
  980000       979499   -7439.0447    674.46193   -8113.5067    4272.3041   -12385.811    111.84775    -410.7413   -655.74411   -552.07558    12.835797   -26.102162     178.3441      46.7237      46.7237      46.7237           90           90           90     102002.7   -539.52033 
  981000       980499   -7440.7412    641.60198   -8082.3432    4283.3834   -12365.727     106.3985   -651.01358   -492.43515   -664.81818    9.7801004    114.99946   -24.544703      46.7237      46.7237      46.7237           90           90           90     102002.7   -602.75564 
  982000       981499   -7448.8106    646.31016   -8095.1207    4286.2251   -12381.346    107.17927   -921.47183   -846.50147   -916.27418    161.15587   -23.748685   -31.470388      46.7237      46.7237      46.7237           90           90           90     102002.7   -894.74916 
  983000       982499   -7416.1747     662.6149   -8078.7896    4305.8713   -12384.661    109.88313   -274.20243   -290.07651   -660.14936     109.4444   -197.47722   -75.276335      46.7237      46.7237      46.7237           90           90           90     102002.7   -408.14276 
  984000       983499   -7443.1427    673.91731     -8117.06    4280.1589   -12397.219    111.75744   -658.17051    -589.7808   -814.26745    86.077502   -136.57598    280.77933      46.7237      46.7237      46.7237           90           90           90     102002.7   -687.40625 
  985000       984499   -7453.8591    637.42849   -8091.2876    4291.7801   -12383.068     105.7064   -479.60498   -586.28615   -1218.1745    29.631624   -259.05732    156.64495      46.7237      46.7237      46.7237           90           90           90     102002.7   -761.35522 
  986000       985499   -7433.5557    660.43359   -8093.9893    4286.5882   -12380.578    109.52139    -881.8986   -365.13076   -786.80598    -132.1216    -44.15065    14.452853      46.7237      46.7237      46.7237           90           90           90     102002.7   -677.94512 
  987000       986499   -7419.6053    671.43514   -8091.0404     4283.873   -12374.913    111.34581   -1143.7841   -645.91996   -828.86863    -150.5975   -112.82051   -62.319633      46.7237      46.7237      46.7237           90           90           90     102002.7   -872.85755 
  988000       987499   -7439.7794    659.88361    -8099.663      4285.89   -12385.553    109.43019   -271.24611   -603.78998   -255.26807   -286.94551   -133.00849    130.42216      46.7237      46.7237      46.7237           90           90           90     102002.7   -376.76805 
  989000       988499   -7442.7952    653.03745   -8095.8327    4300.3999   -12396.233    108.29487   -1121.7295   -618.98745   -888.77975     208.7179   -118.24121   -32.967785      46.7237      46.7237      46.7237           90           90           90     102002.7    -876.4989 
  990000       989499   -7476.6228    646.80126   -8123.4241    4270.8324   -12394.257    107.26071   -362.70066   -786.42552   -890.81786    77.498014    140.26741    42.851197      46.7237      46.7237      46.7237           90           90           90     102002.7   -679.98135 
  991000       990499   -7421.8712    689.31024   -8111.1815    4287.8288    -12399.01    114.31009   -811.98225   -920.91025   -380.72905   -86.233312    42.179492    -223.3249      46.7237      46.7237      46.7237           90           90           90     102002.7   -704.54052 
  992000       991499   -7439.2866    656.27091   -8095.5575    4306.3269   -12401.884    108.83109   -966.58037   -760.47617   -757.96747    33.843969    131.45752    149.17442      46.7237      46.7237      46.7237           90           90           90     102002.7   -828.34134 
  993000       992499   -7411.6722    678.56717   -8090.2394    4288.6472   -12378.887    112.52853   -733.91832   -425.57162   -850.20404   -17.561234    86.096178    117.93641      46.7237      46.7237      46.7237           90           90           90     102002.7   -669.89799 
  994000       993499   -7445.3022    660.39969   -8105.7019    4286.1715   -12391.873    109.51577   -730.74775   -872.94284   -745.90562    17.290737   -105.45948   -39.725828      46.7237      46.7237      46.7237           90           90           90     102002.7   -783.19874 
  995000       994499   -7431.7696    669.24466   -8101.0142    4282.7681   -12383.782    110.98256   -353.99766   -750.55401   -992.97823    84.086541   -138.77364    246.01695      46.7237      46.7237      46.7237           90           90           90     102002.7   -699.17663 
  996000       995499   -7432.3265    648.49407   -8080.8205       4321.4    -12402.22    107.54143   -958.83627   -744.10922   -814.16908   -39.832669   -66.456656    84.717735      46.7237      46.7237      46.7237           90           90           90     102002.7   -839.03819 
  997000       996499   -7461.9098    656.23019     -8118.14    4272.7674   -12390.907    108.82433   -433.91028   -476.71949    -673.3398    93.229339    -67.66939    91.300151      46.7237      46.7237      46.7237           90           90           90     102002.7   -527.98986 
  998000       997499   -7421.7216    656.96757   -8078.6892    4295.4818   -12374.171    108.94662   -460.13735   -643.38112   -1205.6082   -185.92664   -96.872201   -10.257358      46.7237      46.7237      46.7237           90           90           90     102002.7   -769.70891 
  999000       998499   -7407.0985    682.36603   -8089.4646    4301.7096   -12391.174    113.15851   -635.79671   -307.30899    -548.4499   -126.81348   -34.146914   -247.70378      46.7237      46.7237      46.7237           90           90           90     102002.7    -497.1852 
 1000000       999499   -7409.3478    679.12708   -8088.4749    4286.1364   -12374.611    112.62139   -215.38835   -471.48924   -623.85946   -210.52865    193.78529   -103.80946      46.7237      46.7237      46.7237           90           90           90     102002.7   -436.91235 
 1000501      1000000   -7470.2053    651.65972    -8121.865    4257.7994   -12379.664     108.0664   -611.32203   -214.58247   -986.56317   -152.40176   -130.10634   -69.324536      46.7237      46.7237      46.7237           90           90           90     102002.7   -604.15589 
Loop time of 765.891 on 24 procs for 500000 steps with 2024 atoms

Performance: 56.405 ns/day, 0.425 hours/ns, 652.834 timesteps/s
99.6% CPU use with 24 MPI tasks x no OpenMP threads

MPI task timing breakdown:
Section |  min time  |  avg time  |  max time  |%varavg| %total
---------------------------------------------------------------
Pair    | 196.47     | 347.77     | 533.75     | 548.0 | 45.41
Bond    | 55.709     | 82.788     | 115.7      | 197.8 | 10.81
Neigh   | 3.5364     | 3.5641     | 3.5879     |   0.9 |  0.47
Comm    | 97.832     | 315.45     | 481.87     | 661.1 | 41.19
Output  | 0.41087    | 0.44695    | 0.44875    |   1.1 |  0.06
Modify  | 11.724     | 12.346     | 12.756     |   8.0 |  1.61
Other   |            | 3.527      |            |       |  0.46

Nlocal:    84.3333 ave 113 max 63 min
Histogram: 4 2 2 1 5 4 1 3 1 1
Nghost:    2296.42 ave 2474 max 2190 min
Histogram: 9 7 0 0 0 0 0 0 3 5
Neighs:    7650.83 ave 12086 max 3752 min
Histogram: 2 2 1 3 6 5 1 1 2 1

Total # of neighbors = 183620
Ave neighs/atom = 90.7213
Ave special neighs/atom = 5.6917
Neighbor list builds = 4347
Dangerous builds = 0
Total wall time: 0:23:03
