LAMMPS (30 Mar 2018)
Reading data file ...
  orthogonal box = (0 0 0) to (46.7237 46.7237 46.7237)
  2 by 2 by 4 MPI processor grid
  reading atoms ...
  1777 atoms
  scanning bonds ...
  5 = max bonds/atom
  scanning angles ...
  10 = max angles/atom
  scanning dihedrals ...
  32 = max dihedrals/atom
  scanning impropers ...
  3 = max impropers/atom
  reading bonds ...
  2064 bonds
  reading angles ...
  3696 angles
  reading dihedrals ...
  6240 dihedrals
  reading impropers ...
  1008 impropers
Finding 1-2 1-3 1-4 neighbors ...
  special bond factors lj:   0          0          0         
  special bond factors coul: 0          0          0         
  5 = max # of 1-2 neighbors
  8 = max # of 1-3 neighbors
  20 = max # of 1-4 neighbors
  19 = max # of special neighbors
Finding 1-2 1-3 1-4 neighbors ...
  special bond factors lj:   0          0          1         
  special bond factors coul: 1          1          1         
  5 = max # of 1-2 neighbors
  8 = max # of 1-3 neighbors
  19 = max # of special neighbors
WARNING: Using 'neigh_modify every 1 delay 0 check yes' setting during minimization (../min.cpp:168)
Neighbor list info ...
  update every 1 steps, delay 0 steps, check yes
  max neighbors/atom: 2000, page size: 100000
  master list distance cutoff = 16
  ghost atom cutoff = 16
  binsize = 8, bins = 6 6 6
  3 neighbor lists, perpetual/occasional/extra = 3 0 0
  (1) pair buck6d/coul/gauss/dsf, perpetual, skip from (3)
      attributes: half, newton on
      pair build: skip
      stencil: none
      bin: none
  (2) pair lj/cut, perpetual, skip from (3)
      attributes: half, newton on
      pair build: skip
      stencil: none
      bin: none
  (3) neighbor class addition, perpetual
      attributes: half, newton on
      pair build: half/bin/newton
      stencil: half/bin/3d/newton
      bin: standard
Setting up cg style minimization ...
  Unit style    : real
  Current step  : 0
WARNING: Inconsistent image flags (../domain.cpp:786)
Per MPI rank memory allocation (min/avg/max) = 22.89 | 23.35 | 23.79 Mbytes
Step Temp E_pair E_mol TotEng Press 
       0            0   -11645.692    6482.8914   -5162.8001    6223.6714 
     504            0   -11683.594    3731.9185   -7951.6756    -529.9365 
Loop time of 2.66879 on 16 procs for 504 steps with 1777 atoms

99.9% CPU use with 16 MPI tasks x no OpenMP threads

Minimization stats:
  Stopping criterion = max force evaluations
  Energy initial, next-to-last, final = 
        -5162.80009957     -7951.66480988     -7951.67561371
  Force two-norm initial, final = 2576.67 4.79847
  Force max component initial, final = 151.99 1.2467
  Final line search alpha, max atom move = 0.00889015 0.0110833
  Iterations, force evaluations = 504 1001

MPI task timing breakdown:
Section |  min time  |  avg time  |  max time  |%varavg| %total
---------------------------------------------------------------
Pair    | 1.1343     | 1.5977     | 1.902      |  18.9 | 59.86
Bond    | 0.30258    | 0.36086    | 0.45462    |   6.2 | 13.52
Neigh   | 0.015541   | 0.015691   | 0.015825   |   0.1 |  0.59
Comm    | 0.3535     | 0.65641    | 1.1253     |  29.7 | 24.60
Output  | 0          | 0          | 0          |   0.0 |  0.00
Modify  | 0          | 0          | 0          |   0.0 |  0.00
Other   |            | 0.03818    |            |       |  1.43

Nlocal:    111.062 ave 130 max 92 min
Histogram: 1 2 0 2 3 4 1 1 0 2
Nghost:    2233.19 ave 2250 max 2211 min
Histogram: 2 0 1 0 3 1 4 2 1 2
Neighs:    11457.1 ave 14944 max 8267 min
Histogram: 4 2 0 2 0 0 2 2 2 2

Total # of neighbors = 183313
Ave neighs/atom = 103.159
Ave special neighs/atom = 6.48284
Neighbor list builds = 13
Dangerous builds = 0
Neighbor list info ...
  update every 1 steps, delay 10 steps, check yes
  max neighbors/atom: 2000, page size: 100000
  master list distance cutoff = 16
  ghost atom cutoff = 16
  binsize = 8, bins = 6 6 6
  3 neighbor lists, perpetual/occasional/extra = 3 0 0
  (1) pair buck6d/coul/gauss/dsf, perpetual, skip from (3)
      attributes: half, newton on
      pair build: skip
      stencil: none
      bin: none
  (2) pair lj/cut, perpetual, skip from (3)
      attributes: half, newton on
      pair build: skip
      stencil: none
      bin: none
  (3) neighbor class addition, perpetual
      attributes: half, newton on
      pair build: half/bin/newton
      stencil: half/bin/3d/newton
      bin: standard
Setting up Verlet run ...
  Unit style    : real
  Current step  : 504
  Time step     : 1
WARNING: Inconsistent image flags (../domain.cpp:786)
Per MPI rank memory allocation (min/avg/max) = 22.54 | 22.6 | 22.67 Mbytes
Step Temp PotEng TotEng Press Volume Lx Ly Lz 
     504          130   -7951.6756   -7263.4662   -221.51703     102002.7      46.7237      46.7237      46.7237 
    1000     117.1611   -7356.2351   -6735.9938    -686.0227     102002.7      46.7237      46.7237      46.7237 
    2000    128.22434   -7217.8643   -6539.0551   -597.32711     102002.7      46.7237      46.7237      46.7237 
    3000    128.05047    -7239.305   -6561.4162   -745.87003     102002.7      46.7237      46.7237      46.7237 
    4000    128.56452   -7248.0687   -6567.4586   -560.15774     102002.7      46.7237      46.7237      46.7237 
    5000    132.31997   -7242.8794   -6542.3883   -771.23826     102002.7      46.7237      46.7237      46.7237 
    6000    129.96435   -7275.6575   -6587.6369   -456.48476     102002.7      46.7237      46.7237      46.7237 
    7000    132.41294   -7246.1988   -6545.2155   -681.17656     102002.7      46.7237      46.7237      46.7237 
    8000    129.18259    -7245.121   -6561.2389   -638.51576     102002.7      46.7237      46.7237      46.7237 
    9000    131.91471   -7239.3544   -6541.0086   -612.64066     102002.7      46.7237      46.7237      46.7237 
   10000    129.77574   -7252.7905   -6565.7683   -553.38758     102002.7      46.7237      46.7237      46.7237 
   11000    132.86857   -7254.4189   -6551.0235   -632.34382     102002.7      46.7237      46.7237      46.7237 
   12000    131.50539   -7220.1039   -6523.9251    -747.9621     102002.7      46.7237      46.7237      46.7237 
   13000    129.63802   -7258.2284   -6571.9353     -526.076     102002.7      46.7237      46.7237      46.7237 
   14000    136.44244   -7243.5761   -6521.2609   -728.76311     102002.7      46.7237      46.7237      46.7237 
   15000    127.34647    -7250.673   -6576.5111   -374.75762     102002.7      46.7237      46.7237      46.7237 
   16000    132.42514   -7251.3915   -6550.3436   -380.30171     102002.7      46.7237      46.7237      46.7237 
   17000    133.18665    -7255.854   -6550.7747   -429.84281     102002.7      46.7237      46.7237      46.7237 
   18000    131.49375   -7238.1356   -6542.0184   -784.99487     102002.7      46.7237      46.7237      46.7237 
   19000    129.26753   -7256.5447   -6572.2129   -619.01551     102002.7      46.7237      46.7237      46.7237 
   20000    126.76734    -7268.261   -6597.1651   -679.32684     102002.7      46.7237      46.7237      46.7237 
   21000    135.21873   -7257.4415   -6541.6045   -685.48523     102002.7      46.7237      46.7237      46.7237 
   22000    130.82639   -7260.3649   -6567.7806   -510.72064     102002.7      46.7237      46.7237      46.7237 
   23000    126.85618   -7232.5435   -6560.9772   -832.74067     102002.7      46.7237      46.7237      46.7237 
   24000    134.29634   -7237.9909    -6527.037   -686.48863     102002.7      46.7237      46.7237      46.7237 
   25000    133.12249   -7253.5985   -6548.8589   -667.63417     102002.7      46.7237      46.7237      46.7237 
   26000    128.80914   -7265.1605   -6583.2554   -1112.6663     102002.7      46.7237      46.7237      46.7237 
   27000    130.34182   -7249.3269   -6559.3079   -1086.0207     102002.7      46.7237      46.7237      46.7237 
   28000    125.15992   -7231.7354    -6569.149   -821.74002     102002.7      46.7237      46.7237      46.7237 
   29000    128.49627   -7246.8523   -6566.6035   -911.63029     102002.7      46.7237      46.7237      46.7237 
   30000     130.9884   -7234.6303   -6541.1884   -533.96483     102002.7      46.7237      46.7237      46.7237 
   31000    125.66977   -7238.3496    -6573.064   -449.42813     102002.7      46.7237      46.7237      46.7237 
   32000    131.10686   -7242.2562   -6548.1872   -794.07275     102002.7      46.7237      46.7237      46.7237 
   33000    135.93233   -7256.8971   -6537.2824   -510.11513     102002.7      46.7237      46.7237      46.7237 
   34000    129.88242   -7256.0222   -6568.4353   -652.68064     102002.7      46.7237      46.7237      46.7237 
   35000     133.7303   -7238.5709   -6530.6136   -207.78386     102002.7      46.7237      46.7237      46.7237 
   36000    128.09496   -7248.5578   -6570.4336   -740.12406     102002.7      46.7237      46.7237      46.7237 
   37000    129.90604   -7242.5716   -6554.8596   -687.25227     102002.7      46.7237      46.7237      46.7237 
   38000    127.15953   -7227.6883   -6554.5161   -631.93215     102002.7      46.7237      46.7237      46.7237 
   39000    130.77517   -7255.3843   -6563.0712   -878.19587     102002.7      46.7237      46.7237      46.7237 
   40000    131.60874    -7239.026      -6542.3   -667.69462     102002.7      46.7237      46.7237      46.7237 
   41000    132.20033   -7237.9223   -6538.0645   -404.95491     102002.7      46.7237      46.7237      46.7237 
   42000    128.37411    -7256.143   -6576.5409   -432.18793     102002.7      46.7237      46.7237      46.7237 
   43000     129.5457   -7248.4333   -6562.6289   -647.53045     102002.7      46.7237      46.7237      46.7237 
   44000    128.98828     -7255.93   -6573.0765   -604.11082     102002.7      46.7237      46.7237      46.7237 
   45000    132.71635   -7252.1759   -6549.5863   -685.64555     102002.7      46.7237      46.7237      46.7237 
   46000    127.51826   -7251.0752   -6576.0039   -639.02297     102002.7      46.7237      46.7237      46.7237 
   47000    132.30938   -7259.0079   -6558.5728   -371.76524     102002.7      46.7237      46.7237      46.7237 
   48000    131.44126   -7232.2508   -6536.4115    -935.4029     102002.7      46.7237      46.7237      46.7237 
   49000    128.51477   -7253.1122   -6572.7655   -708.64511     102002.7      46.7237      46.7237      46.7237 
   50000    131.29188   -7239.4928   -6544.4443   -942.90637     102002.7      46.7237      46.7237      46.7237 
   51000    132.81255   -7246.9568    -6543.858   -481.59748     102002.7      46.7237      46.7237      46.7237 
   52000    130.55846   -7253.0501   -6561.8842   -865.80053     102002.7      46.7237      46.7237      46.7237 
   53000    132.10836   -7246.3199    -6546.949   -807.03456     102002.7      46.7237      46.7237      46.7237 
   54000    131.91902   -7226.9891   -6528.6206   -1134.9799     102002.7      46.7237      46.7237      46.7237 
   55000    131.02801   -7276.4486   -6582.7969   -770.63082     102002.7      46.7237      46.7237      46.7237 
   56000    133.33865    -7242.611    -6536.727   -445.18595     102002.7      46.7237      46.7237      46.7237 
   57000    128.37934   -7213.1869   -6533.5572    -720.7526     102002.7      46.7237      46.7237      46.7237 
   58000    124.35662   -7233.0929    -6574.759   -718.28278     102002.7      46.7237      46.7237      46.7237 
   59000    132.43954   -7256.9154   -6555.7913   -747.42667     102002.7      46.7237      46.7237      46.7237 
   60000    128.00655   -7242.9524   -6565.2961   -926.93274     102002.7      46.7237      46.7237      46.7237 
   61000    132.60441   -7260.9282   -6558.9313   -1401.0701     102002.7      46.7237      46.7237      46.7237 
   62000    128.24962   -7231.4011   -6552.4581   -852.14128     102002.7      46.7237      46.7237      46.7237 
   63000    132.09796   -7244.6289   -6545.3131   -907.29333     102002.7      46.7237      46.7237      46.7237 
   64000     131.0135    -7240.307   -6546.7322   -897.80497     102002.7      46.7237      46.7237      46.7237 
   65000    127.76448   -7234.6729   -6558.2981   -617.97635     102002.7      46.7237      46.7237      46.7237 
   66000    129.27471   -7245.4383   -6561.0685   -975.13492     102002.7      46.7237      46.7237      46.7237 
   67000     126.1896   -7253.1194   -6585.0819    -993.7514     102002.7      46.7237      46.7237      46.7237 
   68000    129.81879   -7256.2588   -6569.0086   -721.15122     102002.7      46.7237      46.7237      46.7237 
   69000    129.01684   -7219.7094   -6536.7048   -856.58061     102002.7      46.7237      46.7237      46.7237 
   70000    128.22477    -7244.557   -6565.7454   -750.44462     102002.7      46.7237      46.7237      46.7237 
   71000    127.70701   -7244.7176   -6568.6471   -949.62129     102002.7      46.7237      46.7237      46.7237 
   72000    130.47964   -7255.8846   -6565.1361   -930.70238     102002.7      46.7237      46.7237      46.7237 
   73000    127.11252   -7227.2874   -6554.3641    -644.6811     102002.7      46.7237      46.7237      46.7237 
   74000    135.91832   -7251.2165   -6531.6759   -791.85093     102002.7      46.7237      46.7237      46.7237 
   75000    129.49735   -7248.0322   -6562.4838   -785.84935     102002.7      46.7237      46.7237      46.7237 
   76000    122.77098    -7241.693   -6591.7534   -847.73506     102002.7      46.7237      46.7237      46.7237 
   77000    131.64211    -7265.631   -6568.7284   -691.45603     102002.7      46.7237      46.7237      46.7237 
   78000    130.68102   -7234.0186   -6542.2039   -890.37396     102002.7      46.7237      46.7237      46.7237 
   79000    133.10874   -7265.5064   -6560.8396   -935.48409     102002.7      46.7237      46.7237      46.7237 
   80000    133.39255   -7263.6249   -6557.4556   -758.75438     102002.7      46.7237      46.7237      46.7237 
   81000    127.07893   -7251.7163   -6578.9707    -758.1662     102002.7      46.7237      46.7237      46.7237 
   82000    131.14139    -7251.856   -6557.6042   -718.17404     102002.7      46.7237      46.7237      46.7237 
   83000    132.92414   -7252.1115   -6548.4219    -805.0613     102002.7      46.7237      46.7237      46.7237 
   84000    123.28097   -7221.4592   -6568.8198   -582.92786     102002.7      46.7237      46.7237      46.7237 
   85000    130.41355   -7256.1375   -6565.7388    -765.6634     102002.7      46.7237      46.7237      46.7237 
   86000    128.58043   -7238.2793    -6557.585   -674.37574     102002.7      46.7237      46.7237      46.7237 
   87000    130.46177   -7261.5976   -6570.9436   -349.91762     102002.7      46.7237      46.7237      46.7237 
   88000    129.13285   -7237.4754   -6553.8566    -679.3782     102002.7      46.7237      46.7237      46.7237 
   89000    128.94729   -7203.1886   -6520.5522   -1034.9687     102002.7      46.7237      46.7237      46.7237 
   90000    131.94073   -7249.6236   -6551.1402   -751.06447     102002.7      46.7237      46.7237      46.7237 
   91000     129.2141   -7262.4046   -6578.3557   -807.92059     102002.7      46.7237      46.7237      46.7237 
   92000    130.65208   -7250.4561   -6558.7946   -900.30939     102002.7      46.7237      46.7237      46.7237 
   93000    131.76134   -7220.6648    -6523.131   -693.42483     102002.7      46.7237      46.7237      46.7237 
   94000    128.87286   -7257.7722   -6575.5298   -958.65501     102002.7      46.7237      46.7237      46.7237 
   95000    126.83417   -7251.0693   -6579.6196   -659.84994     102002.7      46.7237      46.7237      46.7237 
   96000    129.62515    -7269.652    -6583.427   -715.92478     102002.7      46.7237      46.7237      46.7237 
   97000    131.58736   -7257.1794   -6560.5666   -1070.2958     102002.7      46.7237      46.7237      46.7237 
   98000    128.33881   -7235.5252   -6556.1099   -582.69584     102002.7      46.7237      46.7237      46.7237 
   99000    131.13778   -7248.4388    -6554.206   -1002.7438     102002.7      46.7237      46.7237      46.7237 
  100000    133.38953   -7228.9498   -6522.7965   -833.63754     102002.7      46.7237      46.7237      46.7237 
  101000    130.93904   -7247.1521   -6553.9715   -884.28471     102002.7      46.7237      46.7237      46.7237 
  102000    129.87253   -7249.2752   -6561.7405   -753.03595     102002.7      46.7237      46.7237      46.7237 
  103000    126.36489    -7226.435   -6557.4695   -764.88349     102002.7      46.7237      46.7237      46.7237 
  104000    130.14587   -7248.8684   -6559.8867      -1123.6     102002.7      46.7237      46.7237      46.7237 
  105000    130.25213   -7243.6031   -6554.0589   -732.73948     102002.7      46.7237      46.7237      46.7237 
  106000    131.05063   -7243.8715   -6550.1001   -896.80445     102002.7      46.7237      46.7237      46.7237 
  107000    129.84508   -7260.7629   -6573.3736    -704.7249     102002.7      46.7237      46.7237      46.7237 
  108000    133.28987   -7260.1271   -6554.5014   -702.35042     102002.7      46.7237      46.7237      46.7237 
  109000    131.02387   -7226.4145   -6532.7848   -795.61875     102002.7      46.7237      46.7237      46.7237 
  110000    130.83287   -7256.0992   -6563.4807   -696.28309     102002.7      46.7237      46.7237      46.7237 
  111000    132.13312   -7233.5248   -6534.0228   -918.42944     102002.7      46.7237      46.7237      46.7237 
  112000    131.18206   -7239.1196   -6544.6524   -914.70858     102002.7      46.7237      46.7237      46.7237 
  113000    128.66405   -7248.5554   -6567.4183   -920.46475     102002.7      46.7237      46.7237      46.7237 
  114000    131.94115   -7248.6581   -6550.1724   -1028.1445     102002.7      46.7237      46.7237      46.7237 
  115000    130.05356   -7258.7681   -6570.2751   -678.85109     102002.7      46.7237      46.7237      46.7237 
  116000    138.90385   -7231.7396   -6496.3939   -884.14809     102002.7      46.7237      46.7237      46.7237 
  117000    128.52174   -7224.6379   -6544.2543   -713.34183     102002.7      46.7237      46.7237      46.7237 
  118000    125.63438   -7228.4294   -6563.3312   -638.29477     102002.7      46.7237      46.7237      46.7237 
  119000    135.11354    -7238.264   -6522.9839   -708.16146     102002.7      46.7237      46.7237      46.7237 
  120000    127.38616   -7253.8839    -6579.512   -698.61183     102002.7      46.7237      46.7237      46.7237 
  121000    134.28384    -7234.422   -6523.5342   -702.02507     102002.7      46.7237      46.7237      46.7237 
  122000    128.06468   -7239.7114   -6561.7474    -614.1514     102002.7      46.7237      46.7237      46.7237 
  123000    135.44973   -7219.7403   -6502.6805   -1143.5605     102002.7      46.7237      46.7237      46.7237 
  124000    129.87976   -7254.9104   -6567.3376   -914.51896     102002.7      46.7237      46.7237      46.7237 
  125000    130.42477   -7253.4278   -6562.9696   -587.74972     102002.7      46.7237      46.7237      46.7237 
  126000    127.68718   -7229.5933   -6553.6278   -891.73985     102002.7      46.7237      46.7237      46.7237 
  127000    129.16505     -7230.47   -6546.6807   -567.74598     102002.7      46.7237      46.7237      46.7237 
  128000    129.46668   -7246.6032   -6561.2171   -770.64309     102002.7      46.7237      46.7237      46.7237 
  129000    130.88611   -7248.6935   -6555.7931   -561.64168     102002.7      46.7237      46.7237      46.7237 
  130000    130.22405   -7259.9372   -6570.5417   -801.11622     102002.7      46.7237      46.7237      46.7237 
  131000    133.63793   -7216.2622   -6508.7939    -581.4208     102002.7      46.7237      46.7237      46.7237 
  132000    126.83611   -7234.0281   -6562.5681   -823.18886     102002.7      46.7237      46.7237      46.7237 
  133000    128.37257   -7243.5157   -6563.9218   -791.93007     102002.7      46.7237      46.7237      46.7237 
  134000    132.32444   -7267.0957   -6566.5809   -850.50726     102002.7      46.7237      46.7237      46.7237 
  135000    130.46174   -7238.6069   -6547.9531    -816.5643     102002.7      46.7237      46.7237      46.7237 
  136000    128.15809   -7262.7602   -6584.3017   -534.56362     102002.7      46.7237      46.7237      46.7237 
  137000    128.50393   -7246.6141   -6566.3247   -634.51535     102002.7      46.7237      46.7237      46.7237 
  138000    130.44809   -7242.4591   -6551.8775   -667.99911     102002.7      46.7237      46.7237      46.7237 
  139000    131.18354   -7253.1043   -6558.6293   -497.87543     102002.7      46.7237      46.7237      46.7237 
  140000    132.29405   -7256.0499    -6555.696    -532.0932     102002.7      46.7237      46.7237      46.7237 
  141000    132.95411   -7233.3103    -6529.462   -775.30233     102002.7      46.7237      46.7237      46.7237 
  142000     131.0621   -7247.3473   -6553.5152   -667.33319     102002.7      46.7237      46.7237      46.7237 
  143000    124.21834   -7256.2846   -6598.6828   -602.52812     102002.7      46.7237      46.7237      46.7237 
  144000    128.47708   -7237.2825   -6557.1354   -600.01587     102002.7      46.7237      46.7237      46.7237 
  145000    128.67074   -7221.5583   -6540.3859   -470.56403     102002.7      46.7237      46.7237      46.7237 
  146000    126.23037    -7241.669   -6573.4157    -343.0317     102002.7      46.7237      46.7237      46.7237 
  147000    129.25226   -7238.6838   -6554.4329   -705.18259     102002.7      46.7237      46.7237      46.7237 
  148000    122.52602   -7254.0524   -6605.4096   -717.62179     102002.7      46.7237      46.7237      46.7237 
  149000    129.73881   -7233.4856   -6546.6589   -923.68772     102002.7      46.7237      46.7237      46.7237 
  150000    130.53255   -7214.6144   -6523.5857   -795.42111     102002.7      46.7237      46.7237      46.7237 
  151000    129.87317   -7245.9293   -6558.3913   -836.34816     102002.7      46.7237      46.7237      46.7237 
  152000    132.14322   -7238.3612   -6538.8057    -728.5788     102002.7      46.7237      46.7237      46.7237 
  153000    127.08447   -7260.9239   -6588.1491   -504.45545     102002.7      46.7237      46.7237      46.7237 
  154000    131.83318   -7242.1116   -6544.1975   -626.40059     102002.7      46.7237      46.7237      46.7237 
  155000    130.45054   -7252.7915    -6562.197   -671.93652     102002.7      46.7237      46.7237      46.7237 
  156000    129.30698   -7263.8899   -6579.3492   -715.34679     102002.7      46.7237      46.7237      46.7237 
  157000    130.08066   -7251.3972   -6562.7608   -490.71191     102002.7      46.7237      46.7237      46.7237 
  158000    129.52246   -7232.7578   -6547.0764   -702.26944     102002.7      46.7237      46.7237      46.7237 
  159000    132.91941   -7271.5052   -6567.8407      -634.33     102002.7      46.7237      46.7237      46.7237 
  160000    130.57734   -7221.0447   -6529.7789   -527.61854     102002.7      46.7237      46.7237      46.7237 
  161000    129.00952   -7266.3815   -6583.4155     -626.901     102002.7      46.7237      46.7237      46.7237 
  162000    132.22516   -7263.2916   -6563.3024   -817.05628     102002.7      46.7237      46.7237      46.7237 
  163000    132.64105   -7246.7951   -6544.6042   -227.97015     102002.7      46.7237      46.7237      46.7237 
  164000     132.9727   -7244.8226   -6540.8759   -630.15513     102002.7      46.7237      46.7237      46.7237 
  165000    128.97107   -7229.2185   -6546.4561   -738.57557     102002.7      46.7237      46.7237      46.7237 
  166000    129.76627   -7215.5082   -6528.5362   -643.76014     102002.7      46.7237      46.7237      46.7237 
  167000    129.22692   -7233.6209   -6549.5041   -766.99363     102002.7      46.7237      46.7237      46.7237 
  168000    126.66923   -7257.3918   -6586.8152     -481.345     102002.7      46.7237      46.7237      46.7237 
  169000    130.81305   -7233.1887   -6540.6751   -860.15479     102002.7      46.7237      46.7237      46.7237 
  170000    128.05373   -7239.0627   -6561.1567   -843.01504     102002.7      46.7237      46.7237      46.7237 
  171000    130.90331   -7263.7734   -6570.7819   -588.74923     102002.7      46.7237      46.7237      46.7237 
  172000    133.56022   -7257.1701   -6550.1132   -792.02744     102002.7      46.7237      46.7237      46.7237 
  173000    134.36116   -7262.5312   -6551.2341   -742.99109     102002.7      46.7237      46.7237      46.7237 
  174000    129.38331   -7269.5737   -6584.6289   -1103.5752     102002.7      46.7237      46.7237      46.7237 
  175000    132.86935   -7256.4247   -6553.0252   -604.24928     102002.7      46.7237      46.7237      46.7237 
  176000    128.59203   -7247.9847    -6567.229    -656.2159     102002.7      46.7237      46.7237      46.7237 
  177000    126.39435   -7271.9163   -6602.7949   -678.85803     102002.7      46.7237      46.7237      46.7237 
  178000    129.90549   -7242.5284   -6554.8193   -531.49089     102002.7      46.7237      46.7237      46.7237 
  179000     130.1273   -7251.3158   -6562.4325   -591.25356     102002.7      46.7237      46.7237      46.7237 
  180000    126.65987      -7268.7   -6598.1729   -522.26342     102002.7      46.7237      46.7237      46.7237 
  181000    131.20426    -7236.319   -6541.7343   -556.27426     102002.7      46.7237      46.7237      46.7237 
  182000    132.69224   -7274.3919     -6571.93   -407.80046     102002.7      46.7237      46.7237      46.7237 
  183000    132.68073   -7248.0945   -6545.6935   -819.21935     102002.7      46.7237      46.7237      46.7237 
  184000    127.08984   -7240.3338   -6567.5305    -474.4994     102002.7      46.7237      46.7237      46.7237 
  185000    125.95949   -7255.0008   -6588.1815   -536.06608     102002.7      46.7237      46.7237      46.7237 
  186000    129.83321   -7223.3476   -6536.0212   -847.70734     102002.7      46.7237      46.7237      46.7237 
  187000    130.79985   -7253.5976   -6561.1538   -784.66281     102002.7      46.7237      46.7237      46.7237 
  188000    126.88264   -7242.9497   -6571.2433   -978.67747     102002.7      46.7237      46.7237      46.7237 
  189000    131.68162   -7226.3871   -6529.2753   -747.74276     102002.7      46.7237      46.7237      46.7237 
  190000    134.68199   -7232.9298   -6519.9344   -778.46288     102002.7      46.7237      46.7237      46.7237 
  191000    127.17756   -7250.5844   -6577.3168   -886.64239     102002.7      46.7237      46.7237      46.7237 
  192000    130.02332   -7230.6651   -6542.3323   -650.26644     102002.7      46.7237      46.7237      46.7237 
  193000    130.58961   -7222.2646   -6530.9338   -786.20486     102002.7      46.7237      46.7237      46.7237 
  194000    122.75908   -7280.1818   -6630.3052   -482.04058     102002.7      46.7237      46.7237      46.7237 
  195000     129.2629   -7229.8047   -6545.4975   -690.34099     102002.7      46.7237      46.7237      46.7237 
  196000    130.60845   -7252.9086   -6561.4781   -667.91584     102002.7      46.7237      46.7237      46.7237 
  197000    127.17982   -7239.3697   -6566.0901   -736.71625     102002.7      46.7237      46.7237      46.7237 
  198000    134.27627     -7254.58   -6543.7323   -498.03669     102002.7      46.7237      46.7237      46.7237 
  199000    128.63843   -7256.0071   -6575.0057   -797.62829     102002.7      46.7237      46.7237      46.7237 
  200000    128.78375   -7228.4481   -6546.6774   -1006.7063     102002.7      46.7237      46.7237      46.7237 
  201000    130.93364   -7238.7966   -6545.6445   -592.15446     102002.7      46.7237      46.7237      46.7237 
  202000    128.66071   -7248.0646   -6566.9453   -1014.3386     102002.7      46.7237      46.7237      46.7237 
  203000    130.07434   -7237.8106   -6549.2077   -891.48708     102002.7      46.7237      46.7237      46.7237 
  204000    129.37989   -7256.3865   -6571.4599   -698.20721     102002.7      46.7237      46.7237      46.7237 
  205000    133.94414    -7242.448   -6533.3586   -620.49672     102002.7      46.7237      46.7237      46.7237 
  206000    131.46306   -7239.2963   -6543.3415   -898.73741     102002.7      46.7237      46.7237      46.7237 
  207000    132.67292    -7259.566   -6557.2063   -605.75101     102002.7      46.7237      46.7237      46.7237 
  208000    128.31607   -7248.1016   -6568.8067   -724.48272     102002.7      46.7237      46.7237      46.7237 
  209000    127.71714   -7242.7086   -6566.5845   -743.33013     102002.7      46.7237      46.7237      46.7237 
  210000    131.70287   -7252.1351   -6554.9108   -719.96821     102002.7      46.7237      46.7237      46.7237 
  211000    125.66975   -7251.7627   -6586.4772   -708.51791     102002.7      46.7237      46.7237      46.7237 
  212000    127.20933   -7217.1738    -6543.738   -171.78423     102002.7      46.7237      46.7237      46.7237 
  213000    131.83952    -7245.879   -6547.9313   -881.38199     102002.7      46.7237      46.7237      46.7237 
  214000    127.69776   -7270.4176   -6594.3961   -771.52771     102002.7      46.7237      46.7237      46.7237 
  215000    128.34633   -7224.7646   -6545.3095   -920.28315     102002.7      46.7237      46.7237      46.7237 
  216000    132.30518   -7259.1737   -6558.7608   -833.94424     102002.7      46.7237      46.7237      46.7237 
  217000    128.42603   -7233.6233   -6553.7464   -982.51577     102002.7      46.7237      46.7237      46.7237 
  218000    132.73798    -7233.655   -6530.9509   -788.15976     102002.7      46.7237      46.7237      46.7237 
  219000    131.26319   -7256.6569   -6561.7603   -710.84516     102002.7      46.7237      46.7237      46.7237 
  220000      125.205   -7231.6025   -6568.7774   -879.86767     102002.7      46.7237      46.7237      46.7237 
  221000    130.85114   -7232.4157   -6539.7004   -773.15625     102002.7      46.7237      46.7237      46.7237 
  222000    128.05749   -7255.5747   -6577.6488   -556.41011     102002.7      46.7237      46.7237      46.7237 
  223000    129.54966    -7243.742   -6557.9166   -820.32156     102002.7      46.7237      46.7237      46.7237 
  224000    132.67652   -7223.7392   -6521.3605   -962.38895     102002.7      46.7237      46.7237      46.7237 
  225000    127.61138   -7235.9793    -6560.415   -808.56696     102002.7      46.7237      46.7237      46.7237 
  226000    128.33084   -7227.9781   -6548.6051   -862.26678     102002.7      46.7237      46.7237      46.7237 
  227000    129.58365   -7244.4145   -6558.4092   -699.92251     102002.7      46.7237      46.7237      46.7237 
  228000    127.73714   -7257.6885   -6581.4585    -800.9832     102002.7      46.7237      46.7237      46.7237 
  229000    128.08207   -7253.4759   -6575.4199   -794.98984     102002.7      46.7237      46.7237      46.7237 
  230000    128.07375   -7230.8729   -6552.8609   -785.48478     102002.7      46.7237      46.7237      46.7237 
  231000     124.4368   -7241.0177   -6582.2594   -553.37663     102002.7      46.7237      46.7237      46.7237 
  232000    135.51289   -7252.6204   -6535.2262   -566.68635     102002.7      46.7237      46.7237      46.7237 
  233000    128.81324   -7227.6513   -6545.7245   -910.34819     102002.7      46.7237      46.7237      46.7237 
  234000    134.49419   -7275.1861   -6563.1848   -799.84172     102002.7      46.7237      46.7237      46.7237 
  235000    132.31535   -7266.9497    -6566.483   -761.40582     102002.7      46.7237      46.7237      46.7237 
  236000     134.8813   -7244.7549   -6530.7042   -789.58648     102002.7      46.7237      46.7237      46.7237 
  237000    130.18752   -7260.8856   -6571.6834   -823.79472     102002.7      46.7237      46.7237      46.7237 
  238000    133.80275    -7248.673   -6540.3322   -595.99639     102002.7      46.7237      46.7237      46.7237 
  239000    128.64227   -7250.8785   -6569.8568   -882.70509     102002.7      46.7237      46.7237      46.7237 
  240000    127.75134   -7215.8301   -6539.5249   -907.82072     102002.7      46.7237      46.7237      46.7237 
  241000    130.62013   -7252.7721   -6561.2798   -536.38191     102002.7      46.7237      46.7237      46.7237 
  242000    129.44308   -7247.2506   -6561.9895   -720.84254     102002.7      46.7237      46.7237      46.7237 
  243000    126.93693   -7237.2779   -6565.2841   -609.17577     102002.7      46.7237      46.7237      46.7237 
  244000    130.24772   -7266.3391   -6576.8182   -647.26162     102002.7      46.7237      46.7237      46.7237 
  245000    128.89929   -7236.0054    -6553.623   -489.98474     102002.7      46.7237      46.7237      46.7237 
  246000    130.16559    -7240.085   -6550.9989   -605.72476     102002.7      46.7237      46.7237      46.7237 
  247000    126.42338   -7251.5844   -6582.3093   -578.29394     102002.7      46.7237      46.7237      46.7237 
  248000    129.85173   -7244.1033   -6556.6788   -861.38498     102002.7      46.7237      46.7237      46.7237 
  249000     125.7966    -7267.606   -6601.6491   -504.28347     102002.7      46.7237      46.7237      46.7237 
  250000    132.76408   -7242.5293    -6539.687   -1284.9745     102002.7      46.7237      46.7237      46.7237 
  251000    125.55238   -7244.5331   -6579.8691   -937.59371     102002.7      46.7237      46.7237      46.7237 
  252000    134.17124    -7238.978   -6528.6864   -558.66304     102002.7      46.7237      46.7237      46.7237 
  253000    130.68089   -7237.7296   -6545.9156   -675.75103     102002.7      46.7237      46.7237      46.7237 
  254000    127.65371   -7252.2841   -6576.4957   -360.64244     102002.7      46.7237      46.7237      46.7237 
  255000    135.31005   -7247.0874    -6530.767   -579.78596     102002.7      46.7237      46.7237      46.7237 
  256000    129.46404   -7241.8596   -6556.4876   -643.33755     102002.7      46.7237      46.7237      46.7237 
  257000    134.35792   -7239.5817   -6528.3018    -705.3936     102002.7      46.7237      46.7237      46.7237 
  258000    128.76914   -7253.8719   -6572.1785   -658.07243     102002.7      46.7237      46.7237      46.7237 
  259000    129.63008   -7235.0462   -6548.7951   -761.69109     102002.7      46.7237      46.7237      46.7237 
  260000    132.91479   -7227.8944   -6524.2543   -677.98746     102002.7      46.7237      46.7237      46.7237 
  261000     129.9166   -7239.0889    -6551.321   -990.64209     102002.7      46.7237      46.7237      46.7237 
  262000    128.59998    -7244.918   -6564.1202   -582.54094     102002.7      46.7237      46.7237      46.7237 
  263000    130.47069   -7225.6615   -6534.9602   -1012.8249     102002.7      46.7237      46.7237      46.7237 
  264000    129.16727    -7255.157   -6571.3559   -853.37318     102002.7      46.7237      46.7237      46.7237 
  265000    133.64279   -7259.2454   -6551.7513   -806.95547     102002.7      46.7237      46.7237      46.7237 
  266000    131.99556   -7248.5178    -6549.744   -656.53997     102002.7      46.7237      46.7237      46.7237 
  267000      124.627   -7234.2378   -6574.4725      -849.61     102002.7      46.7237      46.7237      46.7237 
  268000    133.19639   -7238.4732   -6533.3423   -584.49097     102002.7      46.7237      46.7237      46.7237 
  269000    130.12132   -7241.2098   -6552.3582   -627.97778     102002.7      46.7237      46.7237      46.7237 
  270000    125.31329    -7230.933   -6567.5347   -856.36265     102002.7      46.7237      46.7237      46.7237 
  271000    132.57749   -7238.5308   -6536.6763   -865.01696     102002.7      46.7237      46.7237      46.7237 
  272000     126.5298   -7254.2266   -6584.3881    -439.5597     102002.7      46.7237      46.7237      46.7237 
  273000    130.59679   -7252.0391   -6560.6703   -853.39874     102002.7      46.7237      46.7237      46.7237 
  274000    133.15671   -7218.8413   -6513.9205   -758.10689     102002.7      46.7237      46.7237      46.7237 
  275000     128.1693    -7248.812   -6570.2941   -746.05849     102002.7      46.7237      46.7237      46.7237 
  276000    127.04324   -7270.8104   -6598.2538   -664.54731     102002.7      46.7237      46.7237      46.7237 
  277000    132.41055   -7256.1361   -6555.1655   -708.49725     102002.7      46.7237      46.7237      46.7237 
  278000    125.80066   -7250.5748   -6584.5963   -777.85267     102002.7      46.7237      46.7237      46.7237 
  279000    130.89992   -7233.9615    -6540.988   -821.08265     102002.7      46.7237      46.7237      46.7237 
  280000    128.95321   -7245.5039   -6562.8361   -742.23767     102002.7      46.7237      46.7237      46.7237 
  281000    133.31656   -7236.2058   -6530.4387   -587.68291     102002.7      46.7237      46.7237      46.7237 
  282000    128.83643   -7248.9625   -6566.9129   -1220.2079     102002.7      46.7237      46.7237      46.7237 
  283000    131.76074   -7283.7732   -6586.2426   -628.77628     102002.7      46.7237      46.7237      46.7237 
  284000    126.52194   -7204.9276   -6535.1308   -1136.5222     102002.7      46.7237      46.7237      46.7237 
  285000    129.19204   -7266.9219   -6582.9897   -694.46538     102002.7      46.7237      46.7237      46.7237 
  286000    132.19308   -7247.8159   -6547.9965   -999.92522     102002.7      46.7237      46.7237      46.7237 
  287000    128.71541   -7271.9105   -6590.5016   -987.59668     102002.7      46.7237      46.7237      46.7237 
  288000    128.05437   -7249.5461   -6571.6367   -700.34105     102002.7      46.7237      46.7237      46.7237 
  289000    129.06651   -7227.4525   -6544.1849   -1207.2764     102002.7      46.7237      46.7237      46.7237 
  290000    132.50207   -7246.9283   -6545.4731   -709.65221     102002.7      46.7237      46.7237      46.7237 
  291000    135.94917   -7227.6616   -6507.9578    -809.7738     102002.7      46.7237      46.7237      46.7237 
  292000    131.08962   -7281.5562   -6587.5784   -826.52936     102002.7      46.7237      46.7237      46.7237 
  293000    131.33173   -7237.1708   -6541.9113    -672.2306     102002.7      46.7237      46.7237      46.7237 
  294000    134.29025   -7247.1113   -6536.1897    -1049.416     102002.7      46.7237      46.7237      46.7237 
  295000    129.42272    -7249.341   -6564.1876   -678.22322     102002.7      46.7237      46.7237      46.7237 
  296000    128.37253   -7230.8312   -6551.2374   -880.97188     102002.7      46.7237      46.7237      46.7237 
  297000    128.40023   -7238.5235   -6558.7832   -752.84117     102002.7      46.7237      46.7237      46.7237 
  298000    134.48523   -7239.5361   -6527.5822   -861.96491     102002.7      46.7237      46.7237      46.7237 
  299000    128.32052   -7247.6676   -6568.3492   -561.58422     102002.7      46.7237      46.7237      46.7237 
  300000    130.17134   -7263.9641   -6574.8477   -572.58415     102002.7      46.7237      46.7237      46.7237 
  301000    134.58483   -7249.9868   -6537.5057   -958.71934     102002.7      46.7237      46.7237      46.7237 
  302000    128.71936   -7247.8161   -6566.3863   -661.84685     102002.7      46.7237      46.7237      46.7237 
  303000    127.12707   -7259.5574    -6586.557   -672.43374     102002.7      46.7237      46.7237      46.7237 
  304000    130.65227   -7236.3659   -6544.7034    -672.4856     102002.7      46.7237      46.7237      46.7237 
  305000    126.29892   -7262.1222    -6593.506   -618.28415     102002.7      46.7237      46.7237      46.7237 
  306000     131.6487   -7252.6574   -6555.7199   -754.59356     102002.7      46.7237      46.7237      46.7237 
  307000    128.25005   -7237.5431   -6558.5977    -961.1236     102002.7      46.7237      46.7237      46.7237 
  308000    131.38412   -7253.5119    -6557.975   -797.04818     102002.7      46.7237      46.7237      46.7237 
  309000    131.75011   -7239.8483   -6542.3739   -823.48654     102002.7      46.7237      46.7237      46.7237 
  310000    127.54226   -7251.1834    -6575.985    -679.3885     102002.7      46.7237      46.7237      46.7237 
  311000     136.0001   -7221.3484   -6501.3749   -876.92142     102002.7      46.7237      46.7237      46.7237 
  312000    130.72125   -7263.2571   -6571.2294   -815.51368     102002.7      46.7237      46.7237      46.7237 
  313000    130.38263    -7251.153   -6560.9179   -702.93858     102002.7      46.7237      46.7237      46.7237 
  314000    125.22727   -7247.5884   -6584.6454   -870.62986     102002.7      46.7237      46.7237      46.7237 
  315000    133.75107   -7259.2692   -6551.2019   -903.32105     102002.7      46.7237      46.7237      46.7237 
  316000     126.2611   -7248.5013   -6580.0853   -810.63428     102002.7      46.7237      46.7237      46.7237 
  317000    132.68724    -7239.977   -6537.5416   -581.64618     102002.7      46.7237      46.7237      46.7237 
  318000    132.32772   -7238.5891   -6538.0569   -651.24322     102002.7      46.7237      46.7237      46.7237 
  319000    129.18582   -7238.6286   -6554.7294   -475.79172     102002.7      46.7237      46.7237      46.7237 
  320000     127.3408   -7259.0281   -6584.8962   -581.42547     102002.7      46.7237      46.7237      46.7237 
  321000    130.24602   -7221.3536   -6531.8418   -532.56537     102002.7      46.7237      46.7237      46.7237 
  322000    128.96848   -7259.2963   -6576.5476   -778.03101     102002.7      46.7237      46.7237      46.7237 
  323000    130.71882   -7235.7444   -6543.7296   -864.21767     102002.7      46.7237      46.7237      46.7237 
  324000    124.76852   -7255.5882   -6595.0738   -815.58273     102002.7      46.7237      46.7237      46.7237 
  325000    130.91337    -7235.052   -6542.0073   -756.30863     102002.7      46.7237      46.7237      46.7237 
  326000    131.59449   -7225.8923   -6529.2418   -593.87231     102002.7      46.7237      46.7237      46.7237 
  327000     130.3204   -7250.2523   -6560.3467   -1121.0758     102002.7      46.7237      46.7237      46.7237 
  328000    130.65816   -7269.6808   -6577.9871   -1013.0501     102002.7      46.7237      46.7237      46.7237 
  329000    130.12629   -7262.2923   -6573.4144   -674.56905     102002.7      46.7237      46.7237      46.7237 
  330000    136.24879   -7268.0789   -6546.7889   -712.55269     102002.7      46.7237      46.7237      46.7237 
  331000    130.70924     -7262.95   -6570.9859   -1070.5245     102002.7      46.7237      46.7237      46.7237 
  332000    129.74354   -7252.8673   -6566.0155   -757.02605     102002.7      46.7237      46.7237      46.7237 
  333000     128.1308   -7240.3479   -6562.0339   -914.12176     102002.7      46.7237      46.7237      46.7237 
  334000    130.85248   -7224.9588   -6532.2364   -837.79481     102002.7      46.7237      46.7237      46.7237 
  335000    129.06958   -7251.8689   -6568.5851   -721.95995     102002.7      46.7237      46.7237      46.7237 
  336000    133.37023   -7230.0495   -6523.9984   -967.30223     102002.7      46.7237      46.7237      46.7237 
  337000    131.04743   -7238.4061   -6544.6516   -989.31849     102002.7      46.7237      46.7237      46.7237 
  338000    129.96937    -7218.218   -6530.1707   -444.65663     102002.7      46.7237      46.7237      46.7237 
  339000    130.81275   -7270.9619   -6578.4498   -740.86886     102002.7      46.7237      46.7237      46.7237 
  340000    127.13804   -7230.6371   -6557.5787   -654.60712     102002.7      46.7237      46.7237      46.7237 
  341000    131.59914   -7249.7626   -6553.0875   -849.09429     102002.7      46.7237      46.7237      46.7237 
  342000    132.83223   -7237.2453   -6534.0423   -622.38523     102002.7      46.7237      46.7237      46.7237 
  343000    131.59944    -7245.121   -6548.4443    -634.8529     102002.7      46.7237      46.7237      46.7237 
  344000    129.70698   -7243.9063   -6557.2481   -782.10534     102002.7      46.7237      46.7237      46.7237 
  345000    130.88439   -7246.7452   -6553.8539   -736.11797     102002.7      46.7237      46.7237      46.7237 
  346000    128.68749   -7263.5572   -6582.2961   -559.12911     102002.7      46.7237      46.7237      46.7237 
  347000    130.84113   -7241.0669   -6548.4046   -707.86528     102002.7      46.7237      46.7237      46.7237 
  348000    130.87994   -7223.4115   -6530.5438   -1004.5974     102002.7      46.7237      46.7237      46.7237 
  349000    130.50631   -7256.3007   -6565.4109   -985.24213     102002.7      46.7237      46.7237      46.7237 
  350000    125.53642   -7255.6032   -6591.0236    -416.7992     102002.7      46.7237      46.7237      46.7237 
  351000     130.4697   -7240.4636   -6549.7677   -944.67633     102002.7      46.7237      46.7237      46.7237 
  352000     129.2749   -7253.8525   -6569.4816   -999.13755     102002.7      46.7237      46.7237      46.7237 
  353000    131.49967   -7231.5637   -6535.4152   -674.17673     102002.7      46.7237      46.7237      46.7237 
  354000    130.22046   -7254.2688   -6564.8923   -874.27501     102002.7      46.7237      46.7237      46.7237 
  355000     127.9935   -7234.7664   -6557.1792   -1055.2922     102002.7      46.7237      46.7237      46.7237 
  356000    130.58423   -7233.6304   -6542.3281   -649.60857     102002.7      46.7237      46.7237      46.7237 
  357000     134.0044   -7253.8131   -6544.4047   -878.72155     102002.7      46.7237      46.7237      46.7237 
  358000    133.69866   -7241.1166   -6533.3268   -1110.3948     102002.7      46.7237      46.7237      46.7237 
  359000    131.25799   -7239.5728   -6544.7037   -939.18442     102002.7      46.7237      46.7237      46.7237 
  360000    123.41649   -7265.0651   -6611.7083   -965.63804     102002.7      46.7237      46.7237      46.7237 
  361000    130.29458   -7233.4354   -6543.6665   -1120.4188     102002.7      46.7237      46.7237      46.7237 
  362000    127.12238   -7269.0421   -6596.0665   -848.42286     102002.7      46.7237      46.7237      46.7237 
  363000    132.11917   -7267.5504   -6568.1222    -746.5671     102002.7      46.7237      46.7237      46.7237 
  364000    131.82286   -7234.1427   -6536.2832   -1237.4026     102002.7      46.7237      46.7237      46.7237 
  365000    127.02023   -7244.0662   -6571.6314   -985.36801     102002.7      46.7237      46.7237      46.7237 
  366000    130.69147   -7242.7458   -6550.8758    -1191.999     102002.7      46.7237      46.7237      46.7237 
  367000    126.79854   -7267.2433   -6595.9822   -699.26472     102002.7      46.7237      46.7237      46.7237 
  368000    130.62858   -7235.4449   -6543.9078   -728.20228     102002.7      46.7237      46.7237      46.7237 
  369000    131.86609   -7263.1252   -6565.0368   -641.46171     102002.7      46.7237      46.7237      46.7237 
  370000    129.95187   -7230.6575   -6542.7029   -679.66908     102002.7      46.7237      46.7237      46.7237 
  371000    130.50644   -7238.9115    -6548.021   -665.55835     102002.7      46.7237      46.7237      46.7237 
  372000    126.95548   -7258.9635   -6586.8715   -1055.4884     102002.7      46.7237      46.7237      46.7237 
  373000    129.36156   -7253.4848   -6568.6552   -1059.2926     102002.7      46.7237      46.7237      46.7237 
  374000    131.12365      -7229.2    -6535.042   -571.56855     102002.7      46.7237      46.7237      46.7237 
  375000    131.83313    -7257.199   -6559.2852   -763.96918     102002.7      46.7237      46.7237      46.7237 
  376000    132.17844   -7238.7602   -6539.0183   -953.14646     102002.7      46.7237      46.7237      46.7237 
  377000    126.26489   -7243.6453   -6575.2092   -371.91377     102002.7      46.7237      46.7237      46.7237 
  378000    129.62561   -7276.2518   -6590.0244   -672.28866     102002.7      46.7237      46.7237      46.7237 
  379000    128.23153   -7229.7159   -6550.8686   -602.20446     102002.7      46.7237      46.7237      46.7237 
  380000    128.45275   -7243.4696   -6563.4512   -603.25425     102002.7      46.7237      46.7237      46.7237 
  381000    136.25538   -7257.9259    -6536.601   -728.85031     102002.7      46.7237      46.7237      46.7237 
  382000    127.43898    -7246.813   -6572.1614   -681.83196     102002.7      46.7237      46.7237      46.7237 
  383000    129.25363   -7230.9695   -6546.7113    -954.0335     102002.7      46.7237      46.7237      46.7237 
  384000    129.08571   -7277.4792   -6594.1099   -624.70864     102002.7      46.7237      46.7237      46.7237 
  385000    127.59515   -7262.4496   -6586.9713    -879.4964     102002.7      46.7237      46.7237      46.7237 
  386000    131.96699   -7259.9577   -6561.3352   -585.85038     102002.7      46.7237      46.7237      46.7237 
  387000    132.92754   -7251.7348   -6548.0271   -749.89218     102002.7      46.7237      46.7237      46.7237 
  388000    128.92478   -7255.9841   -6573.4668   -526.08374     102002.7      46.7237      46.7237      46.7237 
  389000    130.70545   -7250.6761   -6558.7321   -750.08086     102002.7      46.7237      46.7237      46.7237 
  390000    129.56685   -7245.9918   -6560.0754   -676.94647     102002.7      46.7237      46.7237      46.7237 
  391000    129.29769   -7246.8813   -6562.3898   -866.32076     102002.7      46.7237      46.7237      46.7237 
  392000    128.60748   -7245.1646    -6564.327    -848.5053     102002.7      46.7237      46.7237      46.7237 
  393000    133.41722   -7250.5294   -6544.2295   -827.75435     102002.7      46.7237      46.7237      46.7237 
  394000    124.53998   -7237.9503   -6578.6457   -786.75863     102002.7      46.7237      46.7237      46.7237 
  395000    129.60716   -7226.5814   -6540.4516   -1064.5914     102002.7      46.7237      46.7237      46.7237 
  396000    133.48865   -7262.5399   -6555.8618   -605.88766     102002.7      46.7237      46.7237      46.7237 
  397000    127.37941   -7233.5616   -6559.2253   -765.54526     102002.7      46.7237      46.7237      46.7237 
  398000    127.46839   -7280.0604   -6605.2532   -708.27795     102002.7      46.7237      46.7237      46.7237 
  399000    127.84263    -7230.847   -6554.0585   -1018.0746     102002.7      46.7237      46.7237      46.7237 
  400000    128.08905   -7286.6142   -6608.5211   -813.30684     102002.7      46.7237      46.7237      46.7237 
  401000    129.86543   -7235.2443   -6547.7473   -588.36912     102002.7      46.7237      46.7237      46.7237 
  402000    127.81505   -7253.9061   -6577.2636   -809.28293     102002.7      46.7237      46.7237      46.7237 
  403000    130.22282   -7256.4546   -6567.0656   -858.45627     102002.7      46.7237      46.7237      46.7237 
  404000     127.9083   -7236.1647   -6559.0286   -786.35606     102002.7      46.7237      46.7237      46.7237 
  405000    131.22468   -7261.4253   -6566.7325   -876.31981     102002.7      46.7237      46.7237      46.7237 
  406000    127.24885   -7253.5704   -6579.9254   -655.40628     102002.7      46.7237      46.7237      46.7237 
  407000    133.10907   -7225.1361   -6520.4675   -756.78039     102002.7      46.7237      46.7237      46.7237 
  408000    132.61335    -7271.019   -6568.9747   -512.22354     102002.7      46.7237      46.7237      46.7237 
  409000    128.45055   -7236.9602   -6556.9535   -949.87841     102002.7      46.7237      46.7237      46.7237 
  410000    126.80895   -7226.2811   -6554.9648   -779.25914     102002.7      46.7237      46.7237      46.7237 
  411000     125.0925   -7243.8376   -6581.6081   -801.01597     102002.7      46.7237      46.7237      46.7237 
  412000    133.39367   -7260.7339   -6554.5587   -933.75554     102002.7      46.7237      46.7237      46.7237 
  413000    130.72291   -7255.3332   -6563.2967   -739.83694     102002.7      46.7237      46.7237      46.7237 
  414000    124.87199   -7269.1939   -6608.1317   -843.52217     102002.7      46.7237      46.7237      46.7237 
  415000    128.95615   -7235.6421   -6552.9587   -851.47402     102002.7      46.7237      46.7237      46.7237 
  416000     128.3072   -7240.6836   -6561.4357   -549.84935     102002.7      46.7237      46.7237      46.7237 
  417000    135.07439   -7254.4305   -6539.3577   -802.13143     102002.7      46.7237      46.7237      46.7237 
  418000    129.11023   -7277.8771   -6594.3781   -716.49663     102002.7      46.7237      46.7237      46.7237 
  419000     130.3489   -7244.4736   -6554.4171   -585.17714     102002.7      46.7237      46.7237      46.7237 
  420000     131.1575   -7229.0802    -6534.743    -1061.744     102002.7      46.7237      46.7237      46.7237 
  421000    131.07045   -7242.6484   -6548.7721   -904.99414     102002.7      46.7237      46.7237      46.7237 
  422000    127.10702   -7232.0193   -6559.1251   -691.16369     102002.7      46.7237      46.7237      46.7237 
  423000    130.05913    -7231.305   -6542.7825   -913.80435     102002.7      46.7237      46.7237      46.7237 
  424000    132.05878   -7241.8967   -6542.7883   -773.22242     102002.7      46.7237      46.7237      46.7237 
  425000    130.27545   -7241.3445   -6551.6768   -591.25958     102002.7      46.7237      46.7237      46.7237 
  426000    130.17404   -7256.8001   -6567.6693   -561.51393     102002.7      46.7237      46.7237      46.7237 
  427000    126.69771    -7230.048   -6559.3207   -539.10661     102002.7      46.7237      46.7237      46.7237 
  428000    131.26938   -7214.8326   -6519.9032   -611.66399     102002.7      46.7237      46.7237      46.7237 
  429000    129.97331   -7249.0683   -6561.0001   -722.06202     102002.7      46.7237      46.7237      46.7237 
  430000    129.32979   -7248.0386   -6563.3772   -482.60957     102002.7      46.7237      46.7237      46.7237 
  431000    130.78119   -7233.5049   -6541.1599   -861.38854     102002.7      46.7237      46.7237      46.7237 
  432000     131.5878   -7267.7369   -6571.1218   -541.96851     102002.7      46.7237      46.7237      46.7237 
  433000    132.72541   -7250.7451   -6548.1076   -666.34701     102002.7      46.7237      46.7237      46.7237 
  434000    130.13078   -7246.3345   -6557.4327   -803.05837     102002.7      46.7237      46.7237      46.7237 
  435000     129.9412   -7243.2211    -6555.323   -860.21483     102002.7      46.7237      46.7237      46.7237 
  436000    126.65381   -7247.0407   -6576.5458   -673.60406     102002.7      46.7237      46.7237      46.7237 
  437000    130.08317   -7246.6702   -6558.0205   -728.78862     102002.7      46.7237      46.7237      46.7237 
  438000    130.00096    -7236.957   -6548.7425   -679.02716     102002.7      46.7237      46.7237      46.7237 
  439000     131.0949   -7250.1913   -6556.1856   -842.93897     102002.7      46.7237      46.7237      46.7237 
  440000    127.75004   -7242.3709   -6566.0726   -1024.5437     102002.7      46.7237      46.7237      46.7237 
  441000    131.08129   -7269.8314   -6575.8977   -1010.7568     102002.7      46.7237      46.7237      46.7237 
  442000    129.84134   -7237.7522   -6550.3827   -998.87166     102002.7      46.7237      46.7237      46.7237 
  443000     127.9272   -7250.4363   -6573.2001   -827.95443     102002.7      46.7237      46.7237      46.7237 
  444000    129.66668   -7231.5932   -6545.1484   -597.90638     102002.7      46.7237      46.7237      46.7237 
  445000    131.37647   -7233.9889   -6538.4926   -820.49701     102002.7      46.7237      46.7237      46.7237 
  446000    128.21445   -7262.3725   -6583.6156   -612.90685     102002.7      46.7237      46.7237      46.7237 
  447000    128.89736   -7247.5806   -6565.2085   -982.63025     102002.7      46.7237      46.7237      46.7237 
  448000      127.213   -7245.3514   -6571.8961    -954.8886     102002.7      46.7237      46.7237      46.7237 
  449000    131.33986   -7228.5361   -6533.2335   -1062.7364     102002.7      46.7237      46.7237      46.7237 
  450000     131.3638   -7275.5737   -6580.1445   -834.43425     102002.7      46.7237      46.7237      46.7237 
  451000    127.68998   -7242.8881   -6566.9078    -685.9845     102002.7      46.7237      46.7237      46.7237 
  452000    132.76272   -7240.1977   -6537.3627   -774.70904     102002.7      46.7237      46.7237      46.7237 
  453000    122.44577   -7260.5908   -6612.3728   -895.27915     102002.7      46.7237      46.7237      46.7237 
  454000    132.68509   -7251.0423   -6548.6182   -676.89872     102002.7      46.7237      46.7237      46.7237 
  455000    129.87431   -7257.6901   -6570.1461   -838.36198     102002.7      46.7237      46.7237      46.7237 
  456000    134.91755   -7236.0501   -6521.8075   -922.03957     102002.7      46.7237      46.7237      46.7237 
  457000     128.8779   -7260.2652   -6577.9961   -593.39301     102002.7      46.7237      46.7237      46.7237 
  458000    131.28136   -7242.2438    -6547.251   -643.47485     102002.7      46.7237      46.7237      46.7237 
  459000    129.85837   -7227.3783   -6539.9187   -664.45769     102002.7      46.7237      46.7237      46.7237 
  460000    127.28847   -7245.3164   -6571.4616   -540.10962     102002.7      46.7237      46.7237      46.7237 
  461000    125.91465   -7237.0854   -6570.5035   -417.67434     102002.7      46.7237      46.7237      46.7237 
  462000     129.7283   -7231.9965   -6545.2254   -790.96938     102002.7      46.7237      46.7237      46.7237 
  463000     123.6349   -7247.3033   -6592.7902   -841.32095     102002.7      46.7237      46.7237      46.7237 
  464000    128.29362   -7252.0428   -6572.8668   -1096.7732     102002.7      46.7237      46.7237      46.7237 
  465000    133.12412   -7216.7135   -6511.9652   -908.67845     102002.7      46.7237      46.7237      46.7237 
  466000    128.80383   -7249.4309   -6567.5539    -734.2217     102002.7      46.7237      46.7237      46.7237 
  467000    134.84706   -7228.8823   -6515.0129   -769.17709     102002.7      46.7237      46.7237      46.7237 
  468000    128.15546    -7245.297   -6566.8524   -713.67647     102002.7      46.7237      46.7237      46.7237 
  469000    128.01727   -7214.5809   -6536.8679   -625.06532     102002.7      46.7237      46.7237      46.7237 
  470000    132.75875   -7232.5933   -6529.7793   -944.22138     102002.7      46.7237      46.7237      46.7237 
  471000    130.92078   -7230.4723   -6537.3883    -775.1555     102002.7      46.7237      46.7237      46.7237 
  472000    129.82422   -7248.2566   -6560.9777   -829.14169     102002.7      46.7237      46.7237      46.7237 
  473000     129.0236   -7233.8829   -6550.8425   -739.18034     102002.7      46.7237      46.7237      46.7237 
  474000    135.29039   -7245.7981   -6529.5818   -871.66268     102002.7      46.7237      46.7237      46.7237 
  475000    132.08278   -7245.2912   -6546.0557   -434.61223     102002.7      46.7237      46.7237      46.7237 
  476000    133.68734   -7248.4831   -6540.7532   -855.74619     102002.7      46.7237      46.7237      46.7237 
  477000    126.04946   -7251.0855   -6583.7899   -743.67555     102002.7      46.7237      46.7237      46.7237 
  478000    131.68685   -7249.9604   -6552.8209   -415.86863     102002.7      46.7237      46.7237      46.7237 
  479000    127.98416   -7267.9642   -6590.4264   -764.75169     102002.7      46.7237      46.7237      46.7237 
  480000    130.72194    -7260.453   -6568.4217   -758.71552     102002.7      46.7237      46.7237      46.7237 
  481000    126.98514    -7246.753    -6574.504   -543.49708     102002.7      46.7237      46.7237      46.7237 
  482000    128.00848   -7226.7127   -6549.0462   -836.78924     102002.7      46.7237      46.7237      46.7237 
  483000    132.24894    -7257.634   -6557.5189   -328.98699     102002.7      46.7237      46.7237      46.7237 
  484000    131.98747   -7233.9769   -6535.2459   -735.49752     102002.7      46.7237      46.7237      46.7237 
  485000    125.95252   -7265.9502   -6599.1678   -633.09466     102002.7      46.7237      46.7237      46.7237 
  486000    132.85347    -7254.217   -6550.9015   -769.29518     102002.7      46.7237      46.7237      46.7237 
  487000    126.93603   -7242.8874   -6570.8984   -958.70937     102002.7      46.7237      46.7237      46.7237 
  488000    129.76773    -7237.072   -6550.0922   -976.11735     102002.7      46.7237      46.7237      46.7237 
  489000    128.25495   -7255.8048   -6576.8335   -1072.3015     102002.7      46.7237      46.7237      46.7237 
  490000     129.2409   -7234.9268    -6550.736   -636.94959     102002.7      46.7237      46.7237      46.7237 
  491000    131.57654    -7227.072   -6530.5165   -614.82533     102002.7      46.7237      46.7237      46.7237 
  492000    127.13149   -7233.2808    -6560.257   -645.17949     102002.7      46.7237      46.7237      46.7237 
  493000     128.1944     -7213.87   -6535.2193   -335.29878     102002.7      46.7237      46.7237      46.7237 
  494000    129.67897   -7241.4978   -6554.9879   -684.71025     102002.7      46.7237      46.7237      46.7237 
  495000    132.30084   -7231.4356   -6531.0457   -767.62417     102002.7      46.7237      46.7237      46.7237 
  496000    128.33347   -7240.8689    -6561.482   -886.45497     102002.7      46.7237      46.7237      46.7237 
  497000    129.68691   -7230.8289    -6544.277   -767.47515     102002.7      46.7237      46.7237      46.7237 
  498000    133.48476   -7247.6278   -6540.9704    -969.2028     102002.7      46.7237      46.7237      46.7237 
  499000    126.39552   -7238.3526    -6569.225   -730.94601     102002.7      46.7237      46.7237      46.7237 
  500000    128.86748   -7263.1138   -6580.8998   -992.33012     102002.7      46.7237      46.7237      46.7237 
  500504    128.27051   -7253.5204   -6574.4668   -752.35921     102002.7      46.7237      46.7237      46.7237 
Loop time of 1336.88 on 16 procs for 500000 steps with 1777 atoms

Performance: 32.314 ns/day, 0.743 hours/ns, 374.004 timesteps/s
99.8% CPU use with 16 MPI tasks x no OpenMP threads

MPI task timing breakdown:
Section |  min time  |  avg time  |  max time  |%varavg| %total
---------------------------------------------------------------
Pair    | 484.79     | 696.54     | 905.87     | 581.0 | 52.10
Bond    | 152.66     | 174.17     | 191.04     |  90.3 | 13.03
Neigh   | 5.3124     | 5.364      | 5.4512     |   2.1 |  0.40
Comm    | 226.33     | 447.8      | 664.54     | 774.1 | 33.50
Output  | 0.020011   | 0.020422   | 0.023558   |   0.6 |  0.00
Modify  | 7.4524     | 7.7926     | 8.4387     |  10.5 |  0.58
Other   |            | 5.197      |            |       |  0.39

Nlocal:    111.062 ave 136 max 74 min
Histogram: 2 1 0 0 1 3 2 2 2 3
Nghost:    2260.31 ave 2299 max 2234 min
Histogram: 1 4 2 1 2 3 0 0 1 2
Neighs:    11461.4 ave 16433 max 6485 min
Histogram: 2 2 1 2 0 3 0 1 4 1

Total # of neighbors = 183383
Ave neighs/atom = 103.198
Ave special neighs/atom = 6.48284
Neighbor list builds = 4243
Dangerous builds = 0
Neighbor list info ...
  update every 1 steps, delay 10 steps, check yes
  max neighbors/atom: 2000, page size: 100000
  master list distance cutoff = 16
  ghost atom cutoff = 16
  binsize = 8, bins = 6 6 6
  3 neighbor lists, perpetual/occasional/extra = 3 0 0
  (1) pair buck6d/coul/gauss/dsf, perpetual, skip from (3)
      attributes: half, newton on
      pair build: skip
      stencil: none
      bin: none
  (2) pair lj/cut, perpetual, skip from (3)
      attributes: half, newton on
      pair build: skip
      stencil: none
      bin: none
  (3) neighbor class addition, perpetual
      attributes: half, newton on
      pair build: half/bin/newton
      stencil: half/bin/3d/newton
      bin: standard
Setting up Verlet run ...
  Unit style    : real
  Current step  : 500504
  Time step     : 1
WARNING: Inconsistent image flags (../domain.cpp:786)
Per MPI rank memory allocation (min/avg/max) = 23.07 | 23.3 | 23.34 Mbytes
Step Time TotEng KinEng PotEng E_mol E_pair Temp Pxx Pyy Pzz Pxy Pxz Pyz Cella Cellb Cellc CellAlpha CellBeta CellGamma Volume Press 
  500504       500000   -6574.4668    679.05364   -7253.5204    4394.6792     -11648.2    128.27051   -1020.0835   -441.70215   -795.29202   -111.21355    83.945898    -72.58413      46.7237      46.7237      46.7237           90           90           90     102002.7   -752.35921 
  501000       500496   -6545.5719    697.90608    -7243.478    4410.8918    -11654.37    131.83166   -633.82143   -1148.3345   -223.59852    45.332398   -126.34283     168.9196      46.7237      46.7237      46.7237           90           90           90     102002.7    -668.5848 
  502000       501496   -6580.8728    681.97299   -7262.8458    4386.6824   -11649.528    128.82196   -821.20618    -711.9751   -907.85775   -47.918532   -253.05706    309.72683      46.7237      46.7237      46.7237           90           90           90     102002.7   -813.67968 
  503000       502496   -6536.9225    674.87843   -7211.8009    4435.7617   -11647.563    127.48183   -779.62063   -967.49336   -235.53751   -280.59198    170.05119     196.7284      46.7237      46.7237      46.7237           90           90           90     102002.7   -660.88383 
  504000       503496   -6553.9595    670.40844    -7224.368    4430.1822    -11654.55    126.63747   -781.26099   -576.05641   -627.60482    63.903401    75.318595   -71.102304      46.7237      46.7237      46.7237           90           90           90     102002.7   -661.64074 
  505000       504496   -6571.3387    698.97753   -7270.3162    4381.0526   -11651.369    132.03405   -1150.5713   -33.881509   -1168.2834   -169.60614     -91.0261    249.61145      46.7237      46.7237      46.7237           90           90           90     102002.7   -784.24538 
  506000       505496   -6561.8353    690.35007   -7252.1854    4401.7827   -11653.968    130.40436   -754.35361   -778.25385   -663.86515    88.481105    259.49284    315.70429      46.7237      46.7237      46.7237           90           90           90     102002.7   -732.15754 
  507000       506496   -6531.4844    717.25676   -7248.7411    4408.8828   -11657.624    135.48693    -1123.187   -1098.0047   -553.53697   -83.654873    118.88364    -69.94772      46.7237      46.7237      46.7237           90           90           90     102002.7   -924.90954 
  508000       507496   -6542.9389     676.9919   -7219.9308    4438.3502   -11658.281    127.88105    -1225.263   -809.43627   -771.50205   -45.470692    6.9516505    31.489393      46.7237      46.7237      46.7237           90           90           90     102002.7   -935.40045 
  509000       508496   -6539.5118    704.56533   -7244.0772    4414.4852   -11658.562    133.08957   -1094.7371   -1141.5423   -711.39025     5.996541   -344.25113    168.87216      46.7237      46.7237      46.7237           90           90           90     102002.7   -982.55657 
  510000       509496   -6564.0979    685.96314    -7250.061    4393.6876   -11643.749    129.57569   -467.20003   -901.48163   -553.78114    -79.22037    71.669637    33.170575      46.7237      46.7237      46.7237           90           90           90     102002.7   -640.82093 
  511000       510496   -6558.6185    690.80401   -7249.4226    4418.5869   -11668.009    130.49011   -878.92146   -917.96139    -940.1908    199.65073    171.53066   -153.69945      46.7237      46.7237      46.7237           90           90           90     102002.7   -912.35788 
  512000       511496   -6564.5217    685.02483   -7249.5465    4410.6485   -11660.195    129.39844   -1312.0251   -524.24817   -166.27701   -101.33228   -29.391604   -165.64536      46.7237      46.7237      46.7237           90           90           90     102002.7   -667.51676 
  513000       512496   -6574.5144    682.45059    -7256.965    4395.9277   -11652.893    128.91218   -553.19187   -683.80386   -422.24752    82.481198    45.748757    162.05714      46.7237      46.7237      46.7237           90           90           90     102002.7   -553.08109 
  514000       513496    -6530.927    702.33248   -7233.2595    4427.5524   -11660.812    132.66779   -455.63807   -199.77334   -814.29359   -111.31701    347.16918    233.86732      46.7237      46.7237      46.7237           90           90           90     102002.7   -489.90167 
  515000       514496    -6567.132    689.63048   -7256.7625     4409.599   -11666.361    130.26843   -939.97747   -938.82613   -656.43593    142.92946   -185.26843   -289.54102      46.7237      46.7237      46.7237           90           90           90     102002.7   -845.07984 
  516000       515496   -6537.9161    698.20652   -7236.1227    4423.6618   -11659.785    131.88841   -765.00717   -1064.2813   -670.61292    142.70817    21.288161   -90.269529      46.7237      46.7237      46.7237           90           90           90     102002.7   -833.30046 
  517000       516496   -6562.0573    683.96462   -7246.0219    4394.2033   -11640.225    129.19817   -941.68179   -390.25842    -800.9734    133.55454      234.713    189.09677      46.7237      46.7237      46.7237           90           90           90     102002.7    -710.9712 
  518000       517496   -6583.3834     656.5284   -7239.9118    4409.5371   -11649.449    124.01558   -524.03317   -809.42843   -697.85345   -8.5634912   -283.38903    224.03156      46.7237      46.7237      46.7237           90           90           90     102002.7   -677.10502 
  519000       518496   -6539.8496    689.85614   -7229.7058    4411.6777   -11641.383    130.31106   -325.76485   -782.06113   -725.31352    282.15772    38.688771   -97.898945      46.7237      46.7237      46.7237           90           90           90     102002.7    -611.0465 
  520000       519496   -6562.3948    683.67865   -7246.0734    4410.1513   -11656.225    129.14415   -861.14726   -768.71382   -972.79109     140.5591    70.859244   -19.913505      46.7237      46.7237      46.7237           90           90           90     102002.7   -867.55072 
  521000       520496   -6584.0073    665.50298   -7249.5103    4408.6631   -11658.173    125.71084   -530.88765   -628.87447   -709.00007    174.60091   -239.71719   -44.771095      46.7237      46.7237      46.7237           90           90           90     102002.7   -622.92073 
  522000       521496   -6560.6133    693.45359   -7254.0669    4391.9688   -11646.036     130.9906    -800.1637   -538.59714   -831.51812    -161.1512    189.97878   -76.018905      46.7237      46.7237      46.7237           90           90           90     102002.7   -723.42632 
  523000       522496   -6543.6202    701.39281    -7245.013     4425.655   -11670.668    132.49029   -939.66197   -931.79644   -582.36821   -65.464165    20.738243   -77.659643      46.7237      46.7237      46.7237           90           90           90     102002.7   -817.94221 
  524000       523496   -6569.0294      694.141   -7263.1704    4395.9356   -11659.106    131.12045   -1216.1853   -794.19874   -836.59737    149.53783   -6.0131207   -1.6699901      46.7237      46.7237      46.7237           90           90           90     102002.7   -948.99379 
  525000       524496    -6616.211    667.58607    -7283.797    4378.7053   -11662.502    126.10433   -867.29437   -492.53408   -707.39855   -110.37072    78.261234    318.52925      46.7237      46.7237      46.7237           90           90           90     102002.7   -689.07567 
  526000       525496   -6556.8861    694.30581   -7251.1919    4403.2934   -11654.485    131.15158   -953.60099   -749.87638   -506.77711   -49.542277    20.157649    408.41846      46.7237      46.7237      46.7237           90           90           90     102002.7   -736.75149 
  527000       526496     -6583.57    680.98609   -7264.5561    4401.9711   -11666.527    128.63554   -711.13612   -473.57474   -650.65357    456.02842    107.51172   -103.06656      46.7237      46.7237      46.7237           90           90           90     102002.7   -611.78814 
  528000       527496   -6555.8001    693.72073   -7249.5209    4407.9122   -11657.433    131.04106   -845.05435   -360.81373   -1201.8166    101.85564    196.38724    -78.38332      46.7237      46.7237      46.7237           90           90           90     102002.7   -802.56156 
  529000       528496   -6585.6389    686.79147   -7272.4304    4382.1868   -11654.617    129.73215   -1195.0563   -574.03883   -673.50998   -155.23814   -71.229672     28.52485      46.7237      46.7237      46.7237           90           90           90     102002.7   -814.20169 
  530000       529496   -6552.1533    718.86345   -7271.0168    4391.3753   -11662.392    135.79042   -544.18651   -998.54981    -503.4765   -16.620961   -370.02869   -25.863611      46.7237      46.7237      46.7237           90           90           90     102002.7   -682.07094 
  531000       530496   -6548.2793    696.03424   -7244.3135    4405.3425   -11649.656    131.47808   -908.13536   -1050.0768   -982.13794    11.763215    93.728034   -69.921174      46.7237      46.7237      46.7237           90           90           90     102002.7    -980.1167 
  532000       531496    -6565.919    683.76333   -7249.6823    4403.2003   -11652.883    129.16015   -428.14199   -1114.6805   -835.54223    28.415147   -57.050201   -114.96742      46.7237      46.7237      46.7237           90           90           90     102002.7   -792.78824 
  533000       532496   -6517.7106    729.74859   -7247.4592    4412.5361   -11659.995    137.84658   -998.98386   -283.52798   -665.06367     249.2364   -265.68968    110.12403      46.7237      46.7237      46.7237           90           90           90     102002.7   -649.19184 
  534000       533496   -6544.5471    688.01795    -7232.565    4421.4565   -11654.022    129.96383   -573.24895   -460.72217   -256.36742    303.47919   -189.35608   -1.9379189      46.7237      46.7237      46.7237           90           90           90     102002.7   -430.11285 
  535000       534496   -6578.3564    683.54478   -7261.9012    4385.5622   -11647.463    129.11887    -47.12753   -244.47667   -960.13908    76.923478   -34.646237    54.001424      46.7237      46.7237      46.7237           90           90           90     102002.7   -417.24776 
  536000       535496   -6519.4675    711.85439   -7231.3219    4419.1924   -11650.514    134.46644   -778.60714   -583.31414   -875.57309     140.6015    175.09793   -174.47732      46.7237      46.7237      46.7237           90           90           90     102002.7   -745.83146 
  537000       536496   -6554.1538    675.50793   -7229.6617    4437.6705   -11667.332    127.60074   -780.75158   -821.87717   -576.92878   -40.007895    157.15254   -164.84077      46.7237      46.7237      46.7237           90           90           90     102002.7   -726.51917 
  538000       537496   -6561.5878    684.44858   -7246.0364    4397.1303   -11643.167    129.28959    -160.1034   -714.08197   -857.41482   -22.846937    165.82889    52.092516      46.7237      46.7237      46.7237           90           90           90     102002.7   -577.20006 
  539000       538496   -6567.6392    688.72183   -7256.3611    4402.0414   -11658.402    130.09679   -555.79997   -538.70264   -712.10386   -52.382215   -17.959451   -34.557039      46.7237      46.7237      46.7237           90           90           90     102002.7   -602.20216 
  540000       539496    -6541.227    700.79256   -7242.0196    4427.6741   -11669.694     132.3769   -730.44329   -765.14502   -690.26445    91.012602    144.13335    37.408056      46.7237      46.7237      46.7237           90           90           90     102002.7   -728.61759 
  541000       540496   -6556.1188    670.46925   -7226.5881    4407.7389   -11634.327    126.64895   -380.35365   -841.08815   -982.46193   -19.090542   -47.269439    326.69702      46.7237      46.7237      46.7237           90           90           90     102002.7   -734.63458 
  542000       541496   -6559.1486    681.45539    -7240.604    4418.0371   -11658.641    128.72419   -871.61904   -1017.8183   -812.87576   -41.088828    38.913675    6.8970133      46.7237      46.7237      46.7237           90           90           90     102002.7   -900.77105 
  543000       542496   -6551.1288    696.11592   -7247.2448    4424.0704   -11671.315    131.49351    -858.6239    -459.5115   -993.36456   -165.80803    77.027643   -28.536289      46.7237      46.7237      46.7237           90           90           90     102002.7   -770.49999 
  544000       543496   -6548.5229    701.32162   -7249.8445    4413.6789   -11663.523    132.47684   -934.57864   -1195.3775    -1229.247    64.940758   -164.78165    273.99704      46.7237      46.7237      46.7237           90           90           90     102002.7   -1119.7344 
  545000       544496   -6577.7398    685.83219    -7263.572    4397.7206   -11661.293    129.55095   -955.48716   -764.31198   -1240.4843   -32.246882   -166.87213   -120.79402      46.7237      46.7237      46.7237           90           90           90     102002.7   -986.76114 
  546000       545496    -6582.313    663.40494   -7245.7179    4409.5688   -11655.287    125.31453    -826.1398   -261.43746   -914.04283   -161.23206    151.31929    16.068637      46.7237      46.7237      46.7237           90           90           90     102002.7    -667.2067 
  547000       546496   -6550.3107    703.75543   -7254.0661    4385.5731   -11639.639    132.93658   -982.58307   -913.25861   -764.66874   -127.71226   -134.78595   -170.09712      46.7237      46.7237      46.7237           90           90           90     102002.7   -886.83681 
  548000       547496    -6582.132    655.75191    -7237.884    4432.7638   -11670.648    123.86891   -136.72363   -647.29622   -746.73555    123.49926   -76.163325   -107.68477      46.7237      46.7237      46.7237           90           90           90     102002.7    -510.2518 
  549000       548496   -6552.7958    681.58373   -7234.3796    4415.9106    -11650.29    128.74843   -1160.6288   -699.78575   -614.07845    246.77091  -0.49847158    1.4215494      46.7237      46.7237      46.7237           90           90           90     102002.7   -824.83099 
  550000       549496   -6570.1737    677.60701   -7247.7807    4410.2001   -11657.981    127.99725   -675.69709   -703.17133   -1136.4064   -5.9186145    173.60285   -19.189715      46.7237      46.7237      46.7237           90           90           90     102002.7   -838.42496 
  551000       550496    -6530.898    708.34605    -7239.244    4412.7865   -11652.031    133.80373   -456.43238   -777.88538   -1097.1659    2.0206194    141.20598    49.808709      46.7237      46.7237      46.7237           90           90           90     102002.7   -777.16124 
  552000       551496   -6572.1125    676.88752        -7249    4390.1599    -11639.16    127.86134   -1268.2562   -1183.0973   -1378.6448   -204.32198    112.79034    39.460624      46.7237      46.7237      46.7237           90           90           90     102002.7   -1276.6661 
  553000       552496   -6548.3925    694.00973   -7242.4023     4400.058    -11642.46    131.09565   -545.92915   -1171.4406   -993.58023   -117.32056   -59.121293   -143.03077      46.7237      46.7237      46.7237           90           90           90     102002.7   -903.64999 
  554000       553496   -6530.0808    696.66845   -7226.7493    4414.6376   -11641.387    131.59788   -772.27785   -766.91904   -1455.2248    172.53753   -99.122999    138.36417      46.7237      46.7237      46.7237           90           90           90     102002.7   -998.14056 
  555000       554496   -6567.7126    687.74394   -7255.4565    4401.5755   -11657.032    129.91207   -1058.7749    -796.5583   -998.91317   -192.21447   -16.215677    58.249448      46.7237      46.7237      46.7237           90           90           90     102002.7   -951.41547 
[...]
  936000       935496   -6536.8848     693.0651   -7229.9499    4429.4133   -11659.363    130.91722   -1082.8316   -646.68886   -1188.7402      85.6708   -131.51567    90.637557      46.7237      46.7237      46.7237           90           90           90     102002.7   -972.75357 
  937000       936496   -6574.8111    662.60693    -7237.418    4421.6037   -11659.022    125.16379   -803.35046   -773.31667   -848.19781   -76.016045   -42.180911    105.37882      46.7237      46.7237      46.7237           90           90           90     102002.7   -808.28831 
  938000       937496   -6546.1783     706.0911   -7252.2694    4407.5607    -11659.83    133.37778   -761.27364   -1021.4821   -710.77425    163.48824    208.63208    315.27099      46.7237      46.7237      46.7237           90           90           90     102002.7   -831.17667 
  939000       938496   -6533.4126    692.23767   -7225.6502    4433.3057   -11658.956    130.76092   -910.71143   -590.30626   -1051.0924    227.51388    30.429801    31.650879      46.7237      46.7237      46.7237           90           90           90     102002.7   -850.70336 
  940000       939496   -6541.3611    680.54322   -7221.9043         4420   -11641.904    128.55188    -729.6372   -517.82403   -674.56021    136.62127    221.36709   -278.34502      46.7237      46.7237      46.7237           90           90           90     102002.7   -640.67381 
  941000       940496   -6575.1064    675.02856    -7250.135     4431.004   -11681.139    127.51019   -766.74139   -985.71651   -1073.3978   -64.138264    283.72328    80.454159      46.7237      46.7237      46.7237           90           90           90     102002.7   -941.95189 
  942000       941496   -6574.0363    678.45489   -7252.4912    4384.8306   -11637.322    128.15741   -586.74685   -551.51295   -361.49516    112.38768   -99.470062    142.18431      46.7237      46.7237      46.7237           90           90           90     102002.7   -499.91832 
  943000       942496   -6535.9211    698.90022   -7234.8213    4420.4146   -11655.236    132.01945   -514.23325   -771.68714   -939.92015   -206.71735     161.8767    138.20344      46.7237      46.7237      46.7237           90           90           90     102002.7   -741.94685 
  944000       943496   -6586.8169    665.44127   -7252.2582    4406.1343   -11658.393    125.69919   -723.86472   -828.24118   -417.55761   -27.370549   -11.369532   -163.19229      46.7237      46.7237      46.7237           90           90           90     102002.7    -656.5545 
  945000       944496   -6557.7835    695.13002   -7252.9135    4399.1938   -11652.107    131.30727   -1077.0394   -787.18353   -436.18057     227.7712    180.65672   -1.2455209      46.7237      46.7237      46.7237           90           90           90     102002.7   -766.80118 
  946000       945496   -6542.5285    707.58941   -7250.1179     4415.627   -11665.745     133.6608   -651.96496   -1089.9889   -802.03663   -79.936944    -58.43255   -45.733001      46.7237      46.7237      46.7237           90           90           90     102002.7   -847.99683 
  947000       946496   -6596.3269    666.24409    -7262.571    4391.6897   -11654.261    125.85084   -800.56472   -1036.3466     -801.311    2.3203185    229.56746    154.50262      46.7237      46.7237      46.7237           90           90           90     102002.7   -879.40745 
  948000       947496    -6544.884    701.33881   -7246.2228     4420.448   -11666.671    132.48009   -1039.7815    -361.6273   -501.42939   -77.969271    160.56265   -20.942407      46.7237      46.7237      46.7237           90           90           90     102002.7   -634.27941 
  949000       948496   -6587.1883    677.67052   -7264.8588    4421.1754   -11686.034    128.00924   -1016.2095   -596.25092   -979.20049    4.9320875   -64.517678    160.06928      46.7237      46.7237      46.7237           90           90           90     102002.7   -863.88696 
  950000       949496   -6582.4093    679.94166    -7262.351    4385.8024   -11648.153    128.43825   -645.86483   -172.43982   -718.69544   -78.914714    111.53002    63.841409      46.7237      46.7237      46.7237           90           90           90     102002.7   -512.33336 
  951000       950496   -6559.6496    658.89754   -7218.5471    4442.4701   -11661.017     124.4631   -849.95929    -720.9351   -1175.9537    26.228331      175.835     216.6206      46.7237      46.7237      46.7237           90           90           90     102002.7   -915.61601 
  952000       951496   -6568.4132    677.00935   -7245.4226    4407.2637   -11652.686    127.88435   -715.85625   -400.84034   -429.55694    186.13339   -187.52511   -150.12154      46.7237      46.7237      46.7237           90           90           90     102002.7   -515.41784 
  953000       952496   -6555.0994    686.35903   -7241.4585    4425.1978   -11666.656    129.65047   -1121.0571   -873.74002   -1281.6015   -250.47345    14.699813   -108.73547      46.7237      46.7237      46.7237           90           90           90     102002.7   -1092.1328 
  954000       953496   -6563.1629    682.39481   -7245.5577    4406.7743   -11652.332    128.90164   -1046.7887   -348.59963   -733.93968   -134.63457   -80.088341     108.6376      46.7237      46.7237      46.7237           90           90           90     102002.7   -709.77599 
  955000       954496    -6539.741    692.35386   -7232.0948    4426.8742   -11658.969    130.78287   -959.99943   -975.37543   -578.45572    135.62079   -284.11475   -88.349793      46.7237      46.7237      46.7237           90           90           90     102002.7   -837.94353 
  956000       955496   -6537.9338    695.52635   -7233.4602    4439.5954   -11673.056    131.38214   -902.90133   -766.08795   -619.74851   -11.131003    125.78055    36.818183      46.7237      46.7237      46.7237           90           90           90     102002.7    -762.9126 
  957000       956496   -6567.9613    689.68245   -7257.6438    4386.2145   -11643.858    130.27825   -727.44366   -848.76745   -416.13151   -12.733664   -65.277714   -233.10892      46.7237      46.7237      46.7237           90           90           90     102002.7   -664.11421 
  958000       957496   -6561.1001    705.70274   -7266.8028    4384.6983   -11651.501    133.30442   -131.25692   -802.22605   -388.33045   -72.290718   -117.68577   -285.03928      46.7237      46.7237      46.7237           90           90           90     102002.7   -440.60448 
  959000       958496   -6565.6959    667.26611   -7232.9621    4437.0402   -11670.002    126.04389   -594.17544   -896.02297   -757.81004    58.695348    22.058573    199.16822      46.7237      46.7237      46.7237           90           90           90     102002.7   -749.33615 
  960000       959496   -6532.2608    706.47193   -7238.7327    4401.5371    -11640.27    133.44971   -689.17797    -933.1819   -387.76666   -96.758771    80.637153   -175.86625      46.7237      46.7237      46.7237           90           90           90     102002.7   -670.04218 
  961000       960496   -6587.1995    679.12891   -7266.3284    4397.2713     -11663.6    128.28473   -830.06129   -869.71656   -793.38351    166.24016   -121.89402   -157.24898      46.7237      46.7237      46.7237           90           90           90     102002.7   -831.05379 
  962000       961496   -6547.8394    702.27503   -7250.1144    4413.9704   -11664.085    132.65694   -872.88083   -641.20413   -1291.2971   -167.54263   -156.27607    132.92404      46.7237      46.7237      46.7237           90           90           90     102002.7   -935.12736 
  963000       962496   -6576.3246     681.0235   -7257.3481    4410.3644   -11667.712    128.64261   -697.40903   -998.37093   -743.24152    34.984957   -40.131851     -51.3958      46.7237      46.7237      46.7237           90           90           90     102002.7   -813.00716 
  964000       963496   -6547.6567    683.51256   -7231.1693    4424.7941   -11655.963    129.11278   -1351.3739   -548.27107   -937.23623   -158.61472   -88.746391   -139.75977      46.7237      46.7237      46.7237           90           90           90     102002.7   -945.62708 
  965000       964496   -6548.4127    705.96247   -7254.3752    4419.5313   -11673.907    133.35348   -704.94229   -77.910244   -566.89069    7.1313225   -258.45455   -125.88251      46.7237      46.7237      46.7237           90           90           90     102002.7   -449.91441 
  966000       965496   -6533.4613    684.47418   -7217.9355    4431.7876   -11649.723    129.29443   -535.60986   -843.82081   -337.42907    379.65943    -93.18095    7.2885546      46.7237      46.7237      46.7237           90           90           90     102002.7   -572.28658 
  967000       966496   -6577.8908    668.65234   -7246.5431    4418.8188   -11665.362    126.30575    -828.4582   -452.07105   -1148.1121    173.49185    66.339796   -88.571362      46.7237      46.7237      46.7237           90           90           90     102002.7   -809.54711 
  968000       967496   -6543.7226    708.55885   -7252.2815    4397.1876   -11649.469    133.84393   -752.34796   -824.92683   -713.25582   -215.90304    47.294858    116.52595      46.7237      46.7237      46.7237           90           90           90     102002.7    -763.5102 
  969000       968496   -6567.7258    665.31229    -7233.038    4429.9727   -11663.011    125.67482   -1263.4093   -797.78965   -969.05427   -110.50544   -62.698017   -94.602551      46.7237      46.7237      46.7237           90           90           90     102002.7   -1010.0844 
  970000       969496   -6569.7652    666.16617   -7235.9314    4423.4333   -11659.365    125.83612   -923.89421   -635.14442    -166.2261   -103.92656    79.537608    165.30846      46.7237      46.7237      46.7237           90           90           90     102002.7   -575.08824 
  971000       970496   -6544.1827    702.65313   -7246.8358    4415.7995   -11662.635    132.72836   -764.43617    -604.6383   -886.65278   -61.470284    43.285187    24.287969      46.7237      46.7237      46.7237           90           90           90     102002.7   -751.90908 
  972000       971496   -6582.8634    679.55757    -7262.421    4387.5211   -11649.942     128.3657   -925.85876   -574.10047   -724.35612   -149.86343   -77.015416    45.439034      46.7237      46.7237      46.7237           90           90           90     102002.7   -741.43845 
  973000       972496   -6539.9821    703.75761   -7243.7397    4392.4966   -11636.236    132.93699   -718.20142   -1149.7466   -226.10218   -68.659975   -21.180322     131.0764      46.7237      46.7237      46.7237           90           90           90     102002.7   -698.01672 
  974000       973496   -6575.9378    690.52343   -7266.4612    4400.6481   -11667.109    130.43711   -636.09652   -758.84078   -425.26623   -7.1662091    1.2595712    19.321023      46.7237      46.7237      46.7237           90           90           90     102002.7   -606.73451 
  975000       974496   -6578.2094    680.54177   -7258.7511    4380.8262   -11639.577    128.55161   -501.32452   -779.09579   -636.46691    48.334856     237.7544    185.85433      46.7237      46.7237      46.7237           90           90           90     102002.7   -638.96241 
  976000       975496   -6547.1188    702.55004   -7249.6688    4414.6476   -11664.316    132.70888   -942.95651   -627.83699   -614.98171    207.95973   -75.450034   -134.32215      46.7237      46.7237      46.7237           90           90           90     102002.7   -728.59174 
  977000       976496   -6584.4368     661.0589   -7245.4957    4402.7969   -11648.293    124.87137   -421.97712   -772.97819   -353.46156    334.49886   -305.31577     411.4018      46.7237      46.7237      46.7237           90           90           90     102002.7   -516.13896 
  978000       977496    -6541.724    679.39865   -7221.1226    4441.4745   -11662.597    128.33568   -521.41992   -801.21921   -497.15313   -148.98529    131.22782   -82.223461      46.7237      46.7237      46.7237           90           90           90     102002.7   -606.59742 
  979000       978496    -6574.166    672.36661   -7246.5326    4402.9232   -11649.456    127.00736   -678.98876   -517.91302   -507.70391    72.291573    -99.69498     87.05368      46.7237      46.7237      46.7237           90           90           90     102002.7    -568.2019 
  980000       979496   -6545.9948    684.12142   -7230.1163    4410.1239    -11640.24    129.22779   -958.90953   -735.09842   -555.47652    303.52477   -414.25864    535.11307      46.7237      46.7237      46.7237           90           90           90     102002.7   -749.82816 
  981000       980496   -6585.9652    678.78919   -7264.7543    4382.7801   -11647.534    128.22056   -786.67194   -730.02316   -417.58663   -226.03428     57.73777   -267.92128      46.7237      46.7237      46.7237           90           90           90     102002.7   -644.76058 
  982000       981496   -6559.0796    691.66859   -7250.7482    4412.8538   -11663.602    130.65342   -369.90307   -454.31307   -447.81836   -86.308398   -116.89024    28.085376      46.7237      46.7237      46.7237           90           90           90     102002.7    -424.0115 
  983000       982496     -6551.13     714.9033   -7266.0333    4401.6059   -11667.639    135.04237   -685.82723   -726.26973   -733.43322   -14.737745    351.34122   -101.21212      46.7237      46.7237      46.7237           90           90           90     102002.7   -715.17673 
  984000       983496   -6562.5631    665.67331   -7228.2364    4438.4106   -11666.647    125.74302   -882.84296    -764.3233   -114.04383   -290.86172   -237.61473    32.414017      46.7237      46.7237      46.7237           90           90           90     102002.7   -587.07003 
  985000       984496   -6568.9019    711.50114    -7280.403    4364.0296   -11644.433    134.39971   -486.95103   -1160.1762   -657.58844    37.787235   -63.246271   -281.61626      46.7237      46.7237      46.7237           90           90           90     102002.7   -768.23854 
  986000       985496    -6537.853    698.36355   -7236.2166    4431.5585   -11667.775    131.91807   -533.99576   -1143.0844   -1018.6109   -83.151057    52.680327   -21.317164      46.7237      46.7237      46.7237           90           90           90     102002.7   -898.56369 
  987000       986496   -6572.8034    682.01603   -7254.8195    4413.0148   -11667.834    128.83009   -1383.4847   -711.34027   -819.21693    150.43163   -139.15957    121.83583      46.7237      46.7237      46.7237           90           90           90     102002.7   -971.34731 
  988000       987496   -6548.3036    698.84195   -7247.1455    4406.0284   -11653.174    132.00844    -381.3456   -1154.0211    -561.5443   -60.109293   -164.53281   -57.621501      46.7237      46.7237      46.7237           90           90           90     102002.7   -698.97032 
  989000       988496   -6577.0478     676.0905   -7253.1383    4393.5554   -11646.694    127.71078   -1177.4603   -869.28024   -755.13024   -130.55404   -80.723662   -49.526977      46.7237      46.7237      46.7237           90           90           90     102002.7   -933.95694 
  990000       989496   -6542.0905    704.27754    -7246.368    4399.5941   -11645.962     133.0352   -940.18403   -847.02179   -913.51519   -165.64692   -204.04116    92.828007      46.7237      46.7237      46.7237           90           90           90     102002.7   -900.24034 
  991000       990496   -6574.6258    669.44965   -7244.0754    4404.4259   -11648.501    126.45635   -1175.6078   -1104.2652   -1082.1913   -238.23718   -14.217975   -376.98481      46.7237      46.7237      46.7237           90           90           90     102002.7   -1120.6881 
  992000       991496   -6561.2551    686.70539   -7247.9605    4393.9431   -11641.904    129.71589    -408.2893      -856.37   -757.19688   -94.234919    179.37676    80.356692      46.7237      46.7237      46.7237           90           90           90     102002.7   -673.95206 
  993000       992496   -6569.0376    663.47425   -7232.5119    4433.6726   -11666.184    125.32762   -1046.4681   -614.28029   -753.79798    230.25446    -148.4973    86.868673      46.7237      46.7237      46.7237           90           90           90     102002.7   -804.84878 
  994000       993496   -6543.2502    700.59407   -7243.8443    4377.8533   -11621.698    132.33941   -745.04736   -483.81127    -690.6295   -9.6952979    48.611105    126.65812      46.7237      46.7237      46.7237           90           90           90     102002.7   -639.82937 
  995000       994496   -6557.8971    697.03949   -7254.9366    4399.9075   -11654.844    131.66796   -547.91565   -1424.5174   -406.32336    61.202754    93.173094    75.987991      46.7237      46.7237      46.7237           90           90           90     102002.7   -792.91879 
  996000       995496   -6554.5028    695.62602   -7250.1288    4391.1409    -11641.27    131.40096   -953.66984   -538.35263   -1542.4774    82.637065    126.97508    258.42512      46.7237      46.7237      46.7237           90           90           90     102002.7      -1011.5 
  997000       996496    -6569.456    690.59403   -7260.0501    4397.4594   -11657.509    130.45044   -1195.6247   -1123.7714   -637.43942   -199.80679   -75.496617    59.308466      46.7237      46.7237      46.7237           90           90           90     102002.7   -985.61185 
  998000       997496   -6550.4488    702.12172   -7252.5705    4404.6028   -11657.173    132.62798   -345.35937   -829.04382   -651.06876    13.985625    -79.76582   -74.413697      46.7237      46.7237      46.7237           90           90           90     102002.7   -608.49065 
  999000       998496   -6559.1367    677.08913   -7236.2258    4402.0058   -11638.232    127.89942   -675.12108   -692.76015    -319.1671   -22.079966    189.89861   -187.11199      46.7237      46.7237      46.7237           90           90           90     102002.7   -562.34944 
 1000000       999496   -6496.4102    717.24652   -7213.6567    4447.3924   -11661.049    135.48499   -637.23194   -1107.6065   -368.56022    53.393859   -519.22146    204.18477      46.7237      46.7237      46.7237           90           90           90     102002.7   -704.46624 
 1000504      1000000   -6562.6275    688.82653   -7251.4541    4399.9094   -11651.363    130.11657   -1054.8207   -999.63517   -769.99385   -79.418007  -0.44276754   -5.2692406      46.7237      46.7237      46.7237           90           90           90     102002.7   -941.48324 
Loop time of 1434.69 on 16 procs for 500000 steps with 1777 atoms

Performance: 30.111 ns/day, 0.797 hours/ns, 348.507 timesteps/s
99.8% CPU use with 16 MPI tasks x no OpenMP threads

MPI task timing breakdown:
Section |  min time  |  avg time  |  max time  |%varavg| %total
---------------------------------------------------------------
Pair    | 613.52     | 784.89     | 973.22     | 466.0 | 54.71
Bond    | 171.6      | 183.39     | 201.83     |  56.0 | 12.78
Neigh   | 5.1582     | 5.2085     | 5.2915     |   2.1 |  0.36
Comm    | 236.22     | 433.44     | 606.67     | 625.2 | 30.21
Output  | 0.09683    | 0.10172    | 0.10211    |   0.4 |  0.01
Modify  | 21.648     | 22.344     | 22.84      |   8.3 |  1.56
Other   |            | 5.309      |            |       |  0.37

Nlocal:    111.062 ave 132 max 86 min
Histogram: 3 1 0 1 2 2 0 2 2 3
Nghost:    2269.06 ave 2297 max 2251 min
Histogram: 2 5 1 1 3 0 0 1 2 1
Neighs:    11466.5 ave 16489 max 6837 min
Histogram: 3 2 1 1 2 1 1 0 3 2

Total # of neighbors = 183464
Ave neighs/atom = 103.244
Ave special neighs/atom = 6.48284
Neighbor list builds = 4259
Dangerous builds = 0
Total wall time: 0:46:14
