LAMMPS (30 Mar 2018)
Reading data file ...
  orthogonal box = (0 0 0) to (46.7237 46.7237 46.7237)
  2 by 2 by 4 MPI processor grid
  reading atoms ...
  3284 atoms
  scanning bonds ...
  5 = max bonds/atom
  scanning angles ...
  10 = max angles/atom
  scanning dihedrals ...
  32 = max dihedrals/atom
  scanning impropers ...
  3 = max impropers/atom
  reading bonds ...
  2064 bonds
  reading angles ...
  3696 angles
  reading dihedrals ...
  6240 dihedrals
  reading impropers ...
  1008 impropers
Finding 1-2 1-3 1-4 neighbors ...
  special bond factors lj:   0          0          0         
  special bond factors coul: 0          0          0         
  5 = max # of 1-2 neighbors
  8 = max # of 1-3 neighbors
  20 = max # of 1-4 neighbors
  19 = max # of special neighbors
Finding 1-2 1-3 1-4 neighbors ...
  special bond factors lj:   0          0          1         
  special bond factors coul: 1          1          1         
  5 = max # of 1-2 neighbors
  8 = max # of 1-3 neighbors
  19 = max # of special neighbors
WARNING: Using 'neigh_modify every 1 delay 0 check yes' setting during minimization (../min.cpp:168)
Neighbor list info ...
  update every 1 steps, delay 0 steps, check yes
  max neighbors/atom: 2000, page size: 100000
  master list distance cutoff = 16
  ghost atom cutoff = 16
  binsize = 8, bins = 6 6 6
  3 neighbor lists, perpetual/occasional/extra = 3 0 0
  (1) pair buck6d/coul/gauss/dsf, perpetual, skip from (3)
      attributes: half, newton on
      pair build: skip
      stencil: none
      bin: none
  (2) pair lj/cut, perpetual, skip from (3)
      attributes: half, newton on
      pair build: skip
      stencil: none
      bin: none
  (3) neighbor class addition, perpetual
      attributes: half, newton on
      pair build: half/bin/newton
      stencil: half/bin/3d/newton
      bin: standard
Setting up cg style minimization ...
  Unit style    : real
  Current step  : 0
WARNING: Inconsistent image flags (../domain.cpp:786)
Per MPI rank memory allocation (min/avg/max) = 23.02 | 23.48 | 23.92 Mbytes
Step Temp E_pair E_mol TotEng Press 
       0            0   -15882.026    6482.8914   -9399.1348    6322.9958 
     500            0   -16218.751    3764.6599   -12454.091   -1484.5269 
Loop time of 4.60871 on 16 procs for 500 steps with 3284 atoms

99.8% CPU use with 16 MPI tasks x no OpenMP threads

Minimization stats:
  Stopping criterion = max force evaluations
  Energy initial, next-to-last, final = 
        -9399.13484205     -12453.9919907     -12454.0911237
  Force two-norm initial, final = 2574.82 14.136
  Force max component initial, final = 152.148 2.24992
  Final line search alpha, max atom move = 0.00577168 0.0129858
  Iterations, force evaluations = 500 1000

MPI task timing breakdown:
Section |  min time  |  avg time  |  max time  |%varavg| %total
---------------------------------------------------------------
Pair    | 2.5969     | 3.0741     | 3.7585     |  19.6 | 66.70
Bond    | 0.27599    | 0.36038    | 0.4324     |   8.2 |  7.82
Neigh   | 0.032727   | 0.032822   | 0.03292    |   0.0 |  0.71
Comm    | 0.33157    | 1.0892     | 1.6007     |  34.6 | 23.63
Output  | 0          | 0          | 0          |   0.0 |  0.00
Modify  | 0          | 0          | 0          |   0.0 |  0.00
Other   |            | 0.05218    |            |       |  1.13

Nlocal:    205.25 ave 237 max 183 min
Histogram: 2 0 2 3 4 3 1 0 0 1
Nghost:    4112.88 ave 4138 max 4084 min
Histogram: 1 0 3 2 1 1 3 2 2 1
Neighs:    11500.2 ave 17385 max 8141 min
Histogram: 4 2 3 1 1 0 2 1 1 1

Total # of neighbors = 184003
Ave neighs/atom = 56.0301
Ave special neighs/atom = 3.50792
Neighbor list builds = 9
Dangerous builds = 0
Neighbor list info ...
  update every 1 steps, delay 10 steps, check yes
  max neighbors/atom: 2000, page size: 100000
  master list distance cutoff = 16
  ghost atom cutoff = 16
  binsize = 8, bins = 6 6 6
  3 neighbor lists, perpetual/occasional/extra = 3 0 0
  (1) pair buck6d/coul/gauss/dsf, perpetual, skip from (3)
      attributes: half, newton on
      pair build: skip
      stencil: none
      bin: none
  (2) pair lj/cut, perpetual, skip from (3)
      attributes: half, newton on
      pair build: skip
      stencil: none
      bin: none
  (3) neighbor class addition, perpetual
      attributes: half, newton on
      pair build: half/bin/newton
      stencil: half/bin/3d/newton
      bin: standard
Setting up Verlet run ...
  Unit style    : real
  Current step  : 500
  Time step     : 1
WARNING: Inconsistent image flags (../domain.cpp:786)
Per MPI rank memory allocation (min/avg/max) = 22.67 | 22.74 | 22.8 Mbytes
Step Temp PotEng TotEng Press Volume Lx Ly Lz 
     500           91   -12454.091   -11563.565   -1085.4397     102002.7      46.7237      46.7237      46.7237 
    1000    76.419931   -11714.439   -10966.594    34.795564     102002.7      46.7237      46.7237      46.7237 
    2000    91.137317   -11573.531   -10681.661    20.934983     102002.7      46.7237      46.7237      46.7237 
    3000    93.102549   -11612.555   -10701.453    88.115967     102002.7      46.7237      46.7237      46.7237 
    4000    91.593131    -11620.83   -10724.499    370.65983     102002.7      46.7237      46.7237      46.7237 
    5000    92.959412   -11628.331    -10718.63    179.13615     102002.7      46.7237      46.7237      46.7237 
    6000    89.201082   -11606.162    -10733.24    403.32418     102002.7      46.7237      46.7237      46.7237 
    7000    89.723982   -11587.078   -10709.039    360.78057     102002.7      46.7237      46.7237      46.7237 
    8000    88.713533    -11604.73    -10736.58     403.9656     102002.7      46.7237      46.7237      46.7237 
    9000    90.899091   -11624.296   -10734.757    235.94155     102002.7      46.7237      46.7237      46.7237 
   10000    92.590967   -11622.428   -10716.333    244.85243     102002.7      46.7237      46.7237      46.7237 
   11000    92.523174   -11609.085   -10703.653       199.51     102002.7      46.7237      46.7237      46.7237 
   12000     90.66241   -11624.384   -10737.161    169.28923     102002.7      46.7237      46.7237      46.7237 
   13000     91.63879   -11603.763   -10706.986    320.68176     102002.7      46.7237      46.7237      46.7237 
   14000     90.45993   -11613.378   -10728.137    51.434649     102002.7      46.7237      46.7237      46.7237 
   15000    90.558308   -11638.868   -10752.665    84.260353     102002.7      46.7237      46.7237      46.7237 
   16000    92.217416   -11612.801   -10710.361    82.888069     102002.7      46.7237      46.7237      46.7237 
   17000     88.43293   -11638.964    -10773.56    232.29635     102002.7      46.7237      46.7237      46.7237 
   18000    93.918051   -11624.635   -10705.553    401.86645     102002.7      46.7237      46.7237      46.7237 
   19000    89.824117   -11591.692   -10712.673    315.24888     102002.7      46.7237      46.7237      46.7237 
   20000    89.648761   -11611.445   -10734.143    346.31579     102002.7      46.7237      46.7237      46.7237 
   21000    90.281487   -11626.615    -10743.12    160.19589     102002.7      46.7237      46.7237      46.7237 
   22000    90.761387   -11614.479   -10726.288    49.065443     102002.7      46.7237      46.7237      46.7237 
   23000    89.371626   -11625.159   -10750.569    367.16577     102002.7      46.7237      46.7237      46.7237 
   24000    88.735298    -11623.77   -10755.406    375.31461     102002.7      46.7237      46.7237      46.7237 
   25000    89.909214   -11622.427   -10742.575    223.17875     102002.7      46.7237      46.7237      46.7237 
   26000     92.04409    -11629.49   -10728.747    273.14103     102002.7      46.7237      46.7237      46.7237 
   27000    90.102879   -11609.735   -10727.988    83.403995     102002.7      46.7237      46.7237      46.7237 
   28000    89.463567   -11620.463   -10744.973      276.367     102002.7      46.7237      46.7237      46.7237 
   29000    91.394679   -11631.762   -10737.373    451.16769     102002.7      46.7237      46.7237      46.7237 
   30000    91.449446   -11607.431   -10712.507     317.1024     102002.7      46.7237      46.7237      46.7237 
   31000    92.380878   -11617.042   -10713.003    654.60019     102002.7      46.7237      46.7237      46.7237 
   32000    91.629025   -11617.046   -10720.364    152.47878     102002.7      46.7237      46.7237      46.7237 
   33000     88.08446   -11619.053   -10757.059    97.492005     102002.7      46.7237      46.7237      46.7237 
   34000    89.135717   -11615.507   -10743.225    162.91356     102002.7      46.7237      46.7237      46.7237 
   35000    91.407632   -11638.472   -10743.957     27.38569     102002.7      46.7237      46.7237      46.7237 
   36000    90.349346    -11611.99   -10727.831    285.28089     102002.7      46.7237      46.7237      46.7237 
   37000    90.238079   -11595.396   -10712.326    206.67833     102002.7      46.7237      46.7237      46.7237 
   38000    89.905575   -11637.249   -10757.433    185.08739     102002.7      46.7237      46.7237      46.7237 
   39000    91.623051   -11618.445   -10721.822    51.251952     102002.7      46.7237      46.7237      46.7237 
   40000    92.302658   -11614.368   -10711.094    271.42119     102002.7      46.7237      46.7237      46.7237 
   41000    91.437726   -11635.282   -10740.473    69.418953     102002.7      46.7237      46.7237      46.7237 
   42000    91.497955   -11630.175   -10734.776    -79.50142     102002.7      46.7237      46.7237      46.7237 
   43000    92.275341   -11646.915   -10743.909    176.22382     102002.7      46.7237      46.7237      46.7237 
   44000    89.901568   -11619.317    -10739.54    328.33776     102002.7      46.7237      46.7237      46.7237 
   45000    90.228472   -11626.117   -10743.141    269.92102     102002.7      46.7237      46.7237      46.7237 
   46000    91.525908   -11614.305   -10718.632    161.97182     102002.7      46.7237      46.7237      46.7237 
   47000    91.730388   -11612.396   -10714.722    37.076982     102002.7      46.7237      46.7237      46.7237 
   48000    90.877575   -11626.942   -10737.614    312.47596     102002.7      46.7237      46.7237      46.7237 
   49000    91.424135   -11648.724   -10754.047    139.22492     102002.7      46.7237      46.7237      46.7237 
   50000    89.844189   -11603.606    -10724.39    645.99027     102002.7      46.7237      46.7237      46.7237 
   51000    92.513329    -11626.67   -10721.334    126.26971     102002.7      46.7237      46.7237      46.7237 
   52000    93.156058   -11624.099   -10712.474    35.823029     102002.7      46.7237      46.7237      46.7237 
   53000    91.096336   -11624.422   -10732.954    120.07805     102002.7      46.7237      46.7237      46.7237 
   54000    89.341626   -11652.011   -10777.714    13.844342     102002.7      46.7237      46.7237      46.7237 
   55000    91.427482    -11648.59   -10753.881    74.476875     102002.7      46.7237      46.7237      46.7237 
   56000    92.531336   -11629.214   -10723.703   -19.206007     102002.7      46.7237      46.7237      46.7237 
   57000     91.47738   -11620.041   -10724.843    112.23874     102002.7      46.7237      46.7237      46.7237 
   58000    89.538519   -11640.932   -10764.708    216.78256     102002.7      46.7237      46.7237      46.7237 
   59000    91.330019   -11634.817   -10741.061    73.379632     102002.7      46.7237      46.7237      46.7237 
   60000    92.036729   -11624.343   -10723.671    302.71993     102002.7      46.7237      46.7237      46.7237 
   61000     91.27153   -11636.849   -10743.665    262.65507     102002.7      46.7237      46.7237      46.7237 
   62000    90.813376   -11629.539   -10740.839    168.71835     102002.7      46.7237      46.7237      46.7237 
   63000    90.185467   -11620.915    -10738.36    84.019977     102002.7      46.7237      46.7237      46.7237 
   64000    92.985433   -11657.314   -10747.359    234.36625     102002.7      46.7237      46.7237      46.7237 
   65000    89.272106   -11617.442   -10743.825    288.26941     102002.7      46.7237      46.7237      46.7237 
   66000     90.64644   -11641.574   -10754.508    130.99999     102002.7      46.7237      46.7237      46.7237 
   67000    92.582842   -11642.163   -10736.147      -40.162     102002.7      46.7237      46.7237      46.7237 
   68000    92.002932    -11622.58   -10722.239    -2.466197     102002.7      46.7237      46.7237      46.7237 
   69000    92.580443   -11648.771   -10742.779    230.72012     102002.7      46.7237      46.7237      46.7237 
   70000    91.198624   -11651.005   -10758.536     133.2753     102002.7      46.7237      46.7237      46.7237 
   71000    89.532837   -11643.764   -10767.596    11.567585     102002.7      46.7237      46.7237      46.7237 
   72000    91.828116    -11643.69    -10745.06    147.38629     102002.7      46.7237      46.7237      46.7237 
   73000    89.408031   -11649.475   -10774.528   -55.979861     102002.7      46.7237      46.7237      46.7237 
   74000     90.46295   -11625.299   -10740.029    203.04448     102002.7      46.7237      46.7237      46.7237 
   75000    90.247922   -11646.134   -10762.968    476.22487     102002.7      46.7237      46.7237      46.7237 
   76000    91.004185   -11618.797    -10728.23   -4.7478768     102002.7      46.7237      46.7237      46.7237 
   77000    92.011164   -11629.848   -10729.427    8.9255419     102002.7      46.7237      46.7237      46.7237 
   78000    92.273096   -11618.653   -10715.668    356.28267     102002.7      46.7237      46.7237      46.7237 
   79000    91.920976   -11639.423   -10739.884    292.52753     102002.7      46.7237      46.7237      46.7237 
   80000    90.990415   -11643.381   -10752.949    123.60495     102002.7      46.7237      46.7237      46.7237 
   81000    92.638704   -11645.698   -10739.136    147.98588     102002.7      46.7237      46.7237      46.7237 
   82000    90.617489   -11660.233    -10773.45    225.43935     102002.7      46.7237      46.7237      46.7237 
   83000    89.654934   -11638.787   -10761.424    130.15821     102002.7      46.7237      46.7237      46.7237 
   84000    91.197504   -11631.341   -10738.883    194.78913     102002.7      46.7237      46.7237      46.7237 
   85000    91.001685    -11612.13   -10721.588    242.58466     102002.7      46.7237      46.7237      46.7237 
   86000    92.424449    -11655.99   -10751.525    39.294371     102002.7      46.7237      46.7237      46.7237 
   87000    92.371547     -11650.2   -10746.252    166.53895     102002.7      46.7237      46.7237      46.7237 
   88000    92.365077   -11643.647   -10739.762    52.600878     102002.7      46.7237      46.7237      46.7237 
   89000    89.924756   -11637.852   -10757.849    136.83116     102002.7      46.7237      46.7237      46.7237 
   90000    91.882764   -11646.303   -10747.139    55.142226     102002.7      46.7237      46.7237      46.7237 
   91000    93.104216   -11633.492   -10722.374    393.26201     102002.7      46.7237      46.7237      46.7237 
   92000    91.717866   -11660.688   -10763.137    266.38186     102002.7      46.7237      46.7237      46.7237 
   93000    89.534792   -11612.087     -10735.9    265.00564     102002.7      46.7237      46.7237      46.7237 
   94000    90.962712   -11639.114   -10748.953    398.19924     102002.7      46.7237      46.7237      46.7237 
   95000    90.750123   -11621.903   -10733.823    173.59504     102002.7      46.7237      46.7237      46.7237 
   96000    92.101684   -11649.947    -10748.64    472.84167     102002.7      46.7237      46.7237      46.7237 
   97000    91.193724   -11668.027   -10775.605    193.23993     102002.7      46.7237      46.7237      46.7237 
   98000    90.415288   -11629.309   -10744.505   -27.555312     102002.7      46.7237      46.7237      46.7237 
   99000     89.79649   -11612.812   -10734.063    149.16341     102002.7      46.7237      46.7237      46.7237 
  100000    91.029983   -11612.524   -10721.705    335.76444     102002.7      46.7237      46.7237      46.7237 
  101000    91.945342   -11632.778   -10733.001    63.837635     102002.7      46.7237      46.7237      46.7237 
  102000    90.824316   -11648.123   -10759.316    376.89942     102002.7      46.7237      46.7237      46.7237 
  103000     92.43397    -11646.07   -10741.511     192.9194     102002.7      46.7237      46.7237      46.7237 
  104000    91.134965   -11631.916   -10740.069    297.78291     102002.7      46.7237      46.7237      46.7237 
  105000    91.536958   -11630.734   -10734.954    509.82425     102002.7      46.7237      46.7237      46.7237 
  106000    92.495199   -11630.772   -10725.614    500.45263     102002.7      46.7237      46.7237      46.7237 
  107000    88.773242   -11615.783   -10747.048    350.36856     102002.7      46.7237      46.7237      46.7237 
  108000    90.019468    -11651.76    -10770.83    59.110924     102002.7      46.7237      46.7237      46.7237 
  109000    92.659684   -11640.875   -10734.107    344.50447     102002.7      46.7237      46.7237      46.7237 
  110000    89.492738   -11644.464   -10768.688    402.47062     102002.7      46.7237      46.7237      46.7237 
  111000    91.607536   -11649.126   -10752.655     119.5905     102002.7      46.7237      46.7237      46.7237 
  112000    91.956043    -11616.54   -10716.659    382.38106     102002.7      46.7237      46.7237      46.7237 
  113000    91.629953   -11636.833   -10740.142    383.65542     102002.7      46.7237      46.7237      46.7237 
  114000    91.372338   -11612.932   -10718.762    113.98133     102002.7      46.7237      46.7237      46.7237 
  115000    90.411127   -11649.468   -10764.705    230.06582     102002.7      46.7237      46.7237      46.7237 
  116000    92.414154   -11645.334    -10740.97    71.418751     102002.7      46.7237      46.7237      46.7237 
  117000    87.270846   -11655.458   -10801.425   -113.47419     102002.7      46.7237      46.7237      46.7237 
  118000    91.853301   -11636.977   -10738.101    59.524622     102002.7      46.7237      46.7237      46.7237 
  119000    92.176324   -11629.592   -10727.554    95.597932     102002.7      46.7237      46.7237      46.7237 
  120000    89.229196   -11611.871   -10738.674    452.99024     102002.7      46.7237      46.7237      46.7237 
  121000    92.194273   -11641.186   -10738.973    239.82775     102002.7      46.7237      46.7237      46.7237 
  122000    94.907838   -11633.289   -10704.521   -1.4135741     102002.7      46.7237      46.7237      46.7237 
  123000    92.010453   -11635.199   -10734.785     241.1187     102002.7      46.7237      46.7237      46.7237 
  124000    87.140815   -11645.031   -10792.271    100.24882     102002.7      46.7237      46.7237      46.7237 
  125000    90.591026   -11635.857   -10749.333    401.69424     102002.7      46.7237      46.7237      46.7237 
  126000    90.856601   -11647.118   -10757.996    226.24463     102002.7      46.7237      46.7237      46.7237 
  127000    92.716677   -11650.267   -10742.941     415.8085     102002.7      46.7237      46.7237      46.7237 
  128000      91.0611   -11652.299   -10761.175    322.28205     102002.7      46.7237      46.7237      46.7237 
  129000    93.684164    -11595.71   -10678.916    49.579772     102002.7      46.7237      46.7237      46.7237 
  130000    90.431035   -11645.693   -10760.735    113.49439     102002.7      46.7237      46.7237      46.7237 
  131000    91.082326   -11650.276   -10758.944    102.78658     102002.7      46.7237      46.7237      46.7237 
  132000    90.422129   -11648.989   -10764.118    177.30353     102002.7      46.7237      46.7237      46.7237 
  133000    92.277111    -11643.51   -10740.486    401.50393     102002.7      46.7237      46.7237      46.7237 
  134000    90.733668   -11658.946   -10771.026    -2.931736     102002.7      46.7237      46.7237      46.7237 
  135000    91.289495   -11648.421   -10755.062    352.02673     102002.7      46.7237      46.7237      46.7237 
  136000    92.785286   -11630.405   -10722.409    501.67953     102002.7      46.7237      46.7237      46.7237 
  137000    92.371022   -11653.962   -10750.019    272.04379     102002.7      46.7237      46.7237      46.7237 
  138000    92.134508   -11628.322   -10726.694    361.61772     102002.7      46.7237      46.7237      46.7237 
  139000     89.87779   -11656.016   -10776.472    147.83475     102002.7      46.7237      46.7237      46.7237 
  140000     91.69167   -11643.362   -10746.068    232.31015     102002.7      46.7237      46.7237      46.7237 
  141000    89.403209   -11661.477   -10786.578    289.48105     102002.7      46.7237      46.7237      46.7237 
  142000    91.541256   -11632.556   -10736.734    133.11091     102002.7      46.7237      46.7237      46.7237 
  143000    86.266912   -11650.464   -10806.256    162.60174     102002.7      46.7237      46.7237      46.7237 
  144000    92.103461   -11645.002   -10743.678     300.3024     102002.7      46.7237      46.7237      46.7237 
  145000    92.580313   -11656.044   -10750.053    423.51508     102002.7      46.7237      46.7237      46.7237 
  146000    91.164044   -11638.972   -10746.841    519.20371     102002.7      46.7237      46.7237      46.7237 
  147000    90.549649   -11644.381   -10758.262    273.09726     102002.7      46.7237      46.7237      46.7237 
  148000    90.688078   -11635.865   -10748.392    220.76108     102002.7      46.7237      46.7237      46.7237 
  149000    90.667747   -11642.981   -10755.707    227.12428     102002.7      46.7237      46.7237      46.7237 
  150000    91.401071   -11646.869   -10752.418    168.42187     102002.7      46.7237      46.7237      46.7237 
  151000    89.898458   -11643.419   -10763.673    243.52474     102002.7      46.7237      46.7237      46.7237 
  152000    90.968292   -11646.863   -10756.647    261.72626     102002.7      46.7237      46.7237      46.7237 
  153000    88.795907   -11651.204   -10782.248    66.982343     102002.7      46.7237      46.7237      46.7237 
  154000    91.445066   -11637.918   -10743.037    310.75963     102002.7      46.7237      46.7237      46.7237 
  155000    91.275113   -11661.724   -10768.506    58.609383     102002.7      46.7237      46.7237      46.7237 
  156000     92.30886   -11663.009   -10759.675    232.85057     102002.7      46.7237      46.7237      46.7237 
  157000    90.823245   -11658.177    -10769.38    299.27935     102002.7      46.7237      46.7237      46.7237 
  158000    91.231655   -11637.864   -10745.071    70.284944     102002.7      46.7237      46.7237      46.7237 
  159000    89.815128   -11646.931   -10768.001    431.12381     102002.7      46.7237      46.7237      46.7237 
  160000    90.750995   -11645.471   -10757.382    324.56054     102002.7      46.7237      46.7237      46.7237 
  161000    91.696865   -11625.724   -10728.378    217.16139     102002.7      46.7237      46.7237      46.7237 
  162000     90.35376   -11650.699   -10766.498    35.739643     102002.7      46.7237      46.7237      46.7237 
  163000     90.43408     -11618.8   -10733.813     575.7715     102002.7      46.7237      46.7237      46.7237 
  164000    90.975112   -11639.038   -10748.756    228.42866     102002.7      46.7237      46.7237      46.7237 
  165000    89.959889   -11664.126   -10783.778    310.24794     102002.7      46.7237      46.7237      46.7237 
  166000      91.7324   -11661.586   -10763.893    33.197713     102002.7      46.7237      46.7237      46.7237 
  167000    88.902249   -11630.673   -10760.676    338.99659     102002.7      46.7237      46.7237      46.7237 
  168000    91.833079   -11646.916   -10748.237    252.26881     102002.7      46.7237      46.7237      46.7237 
  169000    89.914591   -11647.992   -10768.088    319.41119     102002.7      46.7237      46.7237      46.7237 
  170000    89.389551   -11642.173   -10767.407    286.59821     102002.7      46.7237      46.7237      46.7237 
  171000    90.631885   -11653.943   -10767.019    256.00631     102002.7      46.7237      46.7237      46.7237 
  172000    91.816705   -11619.408    -10720.89    467.79635     102002.7      46.7237      46.7237      46.7237 
  173000    91.022839   -11637.264   -10746.514    447.47886     102002.7      46.7237      46.7237      46.7237 
  174000    89.582271   -11669.579   -10792.927    224.79479     102002.7      46.7237      46.7237      46.7237 
  175000    92.800147   -11647.967   -10739.825    123.15929     102002.7      46.7237      46.7237      46.7237 
  176000      91.1526   -11648.504   -10756.485    216.31225     102002.7      46.7237      46.7237      46.7237 
  177000    93.525802   -11634.399   -10719.156    197.67993     102002.7      46.7237      46.7237      46.7237 
  178000    90.945067   -11640.746   -10750.758    401.47933     102002.7      46.7237      46.7237      46.7237 
  179000    91.094248   -11642.073   -10750.624    600.38538     102002.7      46.7237      46.7237      46.7237 
  180000    90.139976   -11652.681   -10770.571    278.46027     102002.7      46.7237      46.7237      46.7237 
  181000    90.316288   -11654.721   -10770.886    106.04193     102002.7      46.7237      46.7237      46.7237 
  182000    90.314543   -11642.576   -10758.758    187.72421     102002.7      46.7237      46.7237      46.7237 
  183000    91.348789   -11639.368   -10745.429     246.0324     102002.7      46.7237      46.7237      46.7237 
  184000    90.371814   -11648.227   -10763.849    118.89267     102002.7      46.7237      46.7237      46.7237 
  185000    91.806515   -11629.569    -10731.15    168.09776     102002.7      46.7237      46.7237      46.7237 
  186000    89.330523   -11657.663   -10783.475   -106.21488     102002.7      46.7237      46.7237      46.7237 
  187000    91.255692    -11644.32   -10751.291    356.14022     102002.7      46.7237      46.7237      46.7237 
  188000    89.240167   -11657.146   -10783.841   -103.52218     102002.7      46.7237      46.7237      46.7237 
  189000    90.978341   -11634.709   -10744.395    60.819759     102002.7      46.7237      46.7237      46.7237 
  190000    90.774422   -11646.395   -10758.077    159.28923     102002.7      46.7237      46.7237      46.7237 
  191000     91.75448   -11629.097   -10731.188    105.13773     102002.7      46.7237      46.7237      46.7237 
  192000    93.914872   -11641.085   -10722.034    370.94984     102002.7      46.7237      46.7237      46.7237 
  193000    90.530485   -11643.765   -10757.834    145.32646     102002.7      46.7237      46.7237      46.7237 
  194000    92.453277   -11646.234   -10741.486    84.839368     102002.7      46.7237      46.7237      46.7237 
  195000    89.466891   -11655.823     -10780.3    91.729633     102002.7      46.7237      46.7237      46.7237 
  196000    90.218208   -11635.705    -10752.83    146.52183     102002.7      46.7237      46.7237      46.7237 
  197000    90.397478   -11612.889   -10728.259    296.29778     102002.7      46.7237      46.7237      46.7237 
  198000     91.83205   -11644.025   -10745.357    -45.38077     102002.7      46.7237      46.7237      46.7237 
  199000    90.704209   -11670.582   -10782.951    331.85331     102002.7      46.7237      46.7237      46.7237 
  200000    91.162517    -11663.42   -10771.304    65.026457     102002.7      46.7237      46.7237      46.7237 
  201000    91.145253   -11627.131   -10735.184    238.59455     102002.7      46.7237      46.7237      46.7237 
  202000    91.140538   -11650.402   -10758.501    99.837617     102002.7      46.7237      46.7237      46.7237 
  203000    89.623014   -11658.462   -10781.412    104.91134     102002.7      46.7237      46.7237      46.7237 
  204000     91.16128   -11634.295   -10742.191    200.90998     102002.7      46.7237      46.7237      46.7237 
  205000    90.297567   -11656.689   -10773.037    67.583717     102002.7      46.7237      46.7237      46.7237 
  206000     91.54382   -11657.541   -10761.693    389.90885     102002.7      46.7237      46.7237      46.7237 
  207000    90.676296   -11649.401   -10762.043    537.89374     102002.7      46.7237      46.7237      46.7237 
  208000     90.62693   -11660.285    -10773.41    203.74466     102002.7      46.7237      46.7237      46.7237 
  209000    90.938729   -11662.818   -10772.892    142.90411     102002.7      46.7237      46.7237      46.7237 
  210000    91.505412   -11624.778   -10729.306    194.63344     102002.7      46.7237      46.7237      46.7237 
  211000    92.605366   -11629.822   -10723.586    350.22896     102002.7      46.7237      46.7237      46.7237 
  212000    92.333114   -11654.466   -10750.894     693.0852     102002.7      46.7237      46.7237      46.7237 
  213000    92.723598   -11670.016   -10762.623     328.4254     102002.7      46.7237      46.7237      46.7237 
  214000     89.98448   -11638.933   -10758.345    380.99617     102002.7      46.7237      46.7237      46.7237 
  215000     90.77377   -11648.208   -10759.896     158.5203     102002.7      46.7237      46.7237      46.7237 
  216000    90.106473   -11622.781   -10740.999   -2.8937737     102002.7      46.7237      46.7237      46.7237 
  217000    90.496576   -11645.788   -10760.189    191.28276     102002.7      46.7237      46.7237      46.7237 
  218000    90.306398   -11658.796   -10775.057    121.83344     102002.7      46.7237      46.7237      46.7237 
  219000    90.247291   -11639.868   -10756.708     273.9922     102002.7      46.7237      46.7237      46.7237 
  220000    89.812113   -11676.705   -10797.804    142.97468     102002.7      46.7237      46.7237      46.7237 
  221000    92.352016    -11647.12   -10743.363     150.0885     102002.7      46.7237      46.7237      46.7237 
  222000    91.337307    -11647.04   -10753.213    140.75726     102002.7      46.7237      46.7237      46.7237 
  223000    90.248733   -11673.881   -10790.707    240.31496     102002.7      46.7237      46.7237      46.7237 
  224000    90.235517   -11631.728   -10748.683    234.61815     102002.7      46.7237      46.7237      46.7237 
  225000    91.850006   -11667.003   -10768.159    232.44349     102002.7      46.7237      46.7237      46.7237 
  226000    90.895104    -11656.64   -10767.141    466.96124     102002.7      46.7237      46.7237      46.7237 
  227000    89.871508   -11665.014   -10785.532    220.94313     102002.7      46.7237      46.7237      46.7237 
  228000    88.442921   -11640.181   -10774.679    131.06343     102002.7      46.7237      46.7237      46.7237 
  229000    90.878459    -11632.28   -10742.943    393.56918     102002.7      46.7237      46.7237      46.7237 
  230000    91.754275   -11663.325   -10765.418    451.40988     102002.7      46.7237      46.7237      46.7237 
  231000    88.986356   -11645.263   -10774.442    349.89265     102002.7      46.7237      46.7237      46.7237 
  232000    92.028774   -11638.703    -10738.11    211.39754     102002.7      46.7237      46.7237      46.7237 
  233000    91.134042     -11648.5   -10756.662    532.41146     102002.7      46.7237      46.7237      46.7237 
  234000    92.945391   -11632.016   -10722.452     296.7393     102002.7      46.7237      46.7237      46.7237 
  235000    87.954997   -11626.367   -10765.639    290.96206     102002.7      46.7237      46.7237      46.7237 
  236000    90.761088   -11660.909   -10772.721    511.84921     102002.7      46.7237      46.7237      46.7237 
  237000      91.7887   -11671.698   -10773.453    175.07065     102002.7      46.7237      46.7237      46.7237 
  238000    91.218463   -11646.231   -10753.568    274.79906     102002.7      46.7237      46.7237      46.7237 
  239000    91.265016   -11643.253   -10750.134    333.69023     102002.7      46.7237      46.7237      46.7237 
  240000    90.282841    -11649.04   -10765.532    250.43497     102002.7      46.7237      46.7237      46.7237 
  241000    88.037078   -11643.889   -10782.358     232.6368     102002.7      46.7237      46.7237      46.7237 
  242000    92.817638   -11672.348   -10764.035    349.57835     102002.7      46.7237      46.7237      46.7237 
  243000    91.004055   -11664.046   -10773.481    153.30703     102002.7      46.7237      46.7237      46.7237 
  244000    90.796585   -11621.367   -10732.832    529.45975     102002.7      46.7237      46.7237      46.7237 
  245000    92.113202   -11664.156   -10762.736    219.59747     102002.7      46.7237      46.7237      46.7237 
  246000     91.27168    -11666.53   -10773.345    496.73382     102002.7      46.7237      46.7237      46.7237 
  247000    90.895971   -11629.399   -10739.891    227.84329     102002.7      46.7237      46.7237      46.7237 
  248000      93.3931   -11650.794    -10736.85    427.53921     102002.7      46.7237      46.7237      46.7237 
  249000    91.505106   -11649.645   -10754.176    393.91906     102002.7      46.7237      46.7237      46.7237 
  250000    90.674979   -11642.871   -10755.525    219.25378     102002.7      46.7237      46.7237      46.7237 
  251000    91.074613   -11644.163   -10752.907    373.70786     102002.7      46.7237      46.7237      46.7237 
  252000    89.518743   -11651.441    -10775.41     354.5193     102002.7      46.7237      46.7237      46.7237 
  253000    90.824663   -11639.726   -10750.916    61.653556     102002.7      46.7237      46.7237      46.7237 
  254000    93.885471   -11645.648   -10726.885    197.55745     102002.7      46.7237      46.7237      46.7237 
  255000    91.483406   -11655.378   -10760.121     127.3767     102002.7      46.7237      46.7237      46.7237 
  256000    92.247193   -11629.122   -10726.391    172.89694     102002.7      46.7237      46.7237      46.7237 
  257000    90.433793   -11656.613   -10771.628    163.81686     102002.7      46.7237      46.7237      46.7237 
  258000    90.990047   -11643.396   -10752.968    299.49019     102002.7      46.7237      46.7237      46.7237 
  259000     92.37738   -11637.783   -10733.778    301.21707     102002.7      46.7237      46.7237      46.7237 
  260000     91.74601   -11636.907   -10739.081    285.70004     102002.7      46.7237      46.7237      46.7237 
  261000    91.806062   -11639.366   -10740.952    130.90523     102002.7      46.7237      46.7237      46.7237 
  262000    93.527658   -11632.669   -10717.408     311.0201     102002.7      46.7237      46.7237      46.7237 
  263000    90.886983   -11645.774   -10756.354    55.143096     102002.7      46.7237      46.7237      46.7237 
  264000    89.688867   -11655.012   -10777.317    168.44982     102002.7      46.7237      46.7237      46.7237 
  265000    90.446347   -11629.988    -10744.88    77.253719     102002.7      46.7237      46.7237      46.7237 
  266000    88.206722   -11634.354   -10771.163    190.28044     102002.7      46.7237      46.7237      46.7237 
  267000    89.993264   -11652.784    -10772.11    86.597246     102002.7      46.7237      46.7237      46.7237 
  268000    88.142676   -11652.128   -10789.563    102.01558     102002.7      46.7237      46.7237      46.7237 
  269000    90.004145   -11670.224   -10789.444    305.11074     102002.7      46.7237      46.7237      46.7237 
  270000    90.873944   -11662.493     -10773.2    225.20225     102002.7      46.7237      46.7237      46.7237 
  271000    92.982616   -11648.256   -10738.328    137.97167     102002.7      46.7237      46.7237      46.7237 
  272000    89.427464   -11658.663   -10783.526    267.99603     102002.7      46.7237      46.7237      46.7237 
  273000    91.226284   -11649.462   -10756.721    252.42615     102002.7      46.7237      46.7237      46.7237 
  274000    91.589276   -11630.471   -10734.178    161.85694     102002.7      46.7237      46.7237      46.7237 
  275000    88.840428   -11648.977   -10779.585    245.34539     102002.7      46.7237      46.7237      46.7237 
  276000    89.254963   -11666.997   -10793.548    150.23797     102002.7      46.7237      46.7237      46.7237 
  277000    92.462247   -11660.488   -10755.652    110.30066     102002.7      46.7237      46.7237      46.7237 
  278000    90.508415   -11651.848   -10766.133     133.8739     102002.7      46.7237      46.7237      46.7237 
  279000     89.43927   -11644.338   -10769.086    47.815029     102002.7      46.7237      46.7237      46.7237 
  280000    89.702878   -11648.151   -10770.318    137.62848     102002.7      46.7237      46.7237      46.7237 
  281000    91.330003   -11642.837   -10749.082    48.033142     102002.7      46.7237      46.7237      46.7237 
  282000    90.237638     -11652.5   -10769.434    76.902817     102002.7      46.7237      46.7237      46.7237 
  283000    89.129066   -11656.877    -10784.66    398.94403     102002.7      46.7237      46.7237      46.7237 
  284000    91.276281   -11653.779   -10760.549    203.52168     102002.7      46.7237      46.7237      46.7237 
  285000    90.851321    -11648.75   -10759.679    70.950064     102002.7      46.7237      46.7237      46.7237 
  286000    90.323639   -11642.743   -10758.836    163.46643     102002.7      46.7237      46.7237      46.7237 
  287000    86.491994    -11640.69    -10794.28    13.313859     102002.7      46.7237      46.7237      46.7237 
  288000    91.891569   -11647.874   -10748.624    310.25769     102002.7      46.7237      46.7237      46.7237 
  289000    92.294644   -11647.112   -10743.917    278.33335     102002.7      46.7237      46.7237      46.7237 
  290000    92.435001    -11651.79   -10747.221    450.49184     102002.7      46.7237      46.7237      46.7237 
  291000    88.749209   -11655.604   -10787.104    175.44533     102002.7      46.7237      46.7237      46.7237 
  292000    91.503832   -11640.396   -10744.939    237.58254     102002.7      46.7237      46.7237      46.7237 
  293000    92.521165   -11653.616   -10748.204    320.91039     102002.7      46.7237      46.7237      46.7237 
  294000    89.805421   -11658.522   -10779.686    268.63235     102002.7      46.7237      46.7237      46.7237 
  295000    92.868262   -11652.662   -10743.853    114.35734     102002.7      46.7237      46.7237      46.7237 
  296000    92.635506   -11646.519   -10739.988    291.89108     102002.7      46.7237      46.7237      46.7237 
  297000    92.864454   -11653.865   -10745.094    244.46306     102002.7      46.7237      46.7237      46.7237 
  298000    91.224088   -11648.721   -10756.002    325.12269     102002.7      46.7237      46.7237      46.7237 
  299000    88.760662   -11646.367   -10777.755    143.80053     102002.7      46.7237      46.7237      46.7237 
  300000    93.589875   -11664.166   -10748.295    186.75685     102002.7      46.7237      46.7237      46.7237 
  301000    91.177981   -11656.332   -10764.064    331.01841     102002.7      46.7237      46.7237      46.7237 
  302000    92.142771   -11675.094   -10773.385    96.787985     102002.7      46.7237      46.7237      46.7237 
  303000    89.276228   -11650.216   -10776.559    369.52473     102002.7      46.7237      46.7237      46.7237 
  304000     90.44416   -11657.703   -10772.617    355.57665     102002.7      46.7237      46.7237      46.7237 
  305000    89.373827   -11665.034   -10790.422    -22.61837     102002.7      46.7237      46.7237      46.7237 
  306000    91.972431   -11664.882    -10764.84    334.07699     102002.7      46.7237      46.7237      46.7237 
  307000    91.307147   -11659.248   -10765.717    215.52764     102002.7      46.7237      46.7237      46.7237 
  308000    90.662763   -11645.563   -10758.337    327.48601     102002.7      46.7237      46.7237      46.7237 
  309000    90.903499   -11653.756   -10764.174    252.74113     102002.7      46.7237      46.7237      46.7237 
  310000    89.736324   -11656.122   -10777.962    166.54013     102002.7      46.7237      46.7237      46.7237 
  311000    90.697607   -11658.568   -10771.002    82.622151     102002.7      46.7237      46.7237      46.7237 
  312000    89.845419   -11640.825   -10761.598    325.54044     102002.7      46.7237      46.7237      46.7237 
  313000    90.786819   -11695.289    -10806.85   -31.489584     102002.7      46.7237      46.7237      46.7237 
  314000    91.851011   -11642.697   -10743.843    262.97004     102002.7      46.7237      46.7237      46.7237 
  315000    89.963734   -11673.976   -10793.591    245.80142     102002.7      46.7237      46.7237      46.7237 
  316000    90.789083   -11657.277   -10768.815    -189.8924     102002.7      46.7237      46.7237      46.7237 
  317000    92.551067   -11660.358   -10754.653    178.01769     102002.7      46.7237      46.7237      46.7237 
  318000    92.130021   -11656.691   -10755.107    17.483336     102002.7      46.7237      46.7237      46.7237 
  319000    89.739295   -11675.465   -10797.276    112.11914     102002.7      46.7237      46.7237      46.7237 
  320000     89.25962   -11635.671   -10762.176    201.65834     102002.7      46.7237      46.7237      46.7237 
  321000    89.784955   -11668.418   -10789.782    172.50764     102002.7      46.7237      46.7237      46.7237 
  322000    92.483381   -11641.975   -10736.932    132.97719     102002.7      46.7237      46.7237      46.7237 
  323000    88.871163   -11650.138   -10780.445    164.05779     102002.7      46.7237      46.7237      46.7237 
  324000    91.978139   -11650.467   -10750.369    356.86361     102002.7      46.7237      46.7237      46.7237 
  325000    92.632423   -11673.233   -10766.732    197.92617     102002.7      46.7237      46.7237      46.7237 
  326000    89.581729   -11682.229   -10805.582    167.37982     102002.7      46.7237      46.7237      46.7237 
  327000    91.335256   -11658.607     -10764.8    207.90824     102002.7      46.7237      46.7237      46.7237 
  328000    88.033135    -11655.86   -10794.368     336.0777     102002.7      46.7237      46.7237      46.7237 
  329000    90.338269   -11651.685   -10767.635     220.7897     102002.7      46.7237      46.7237      46.7237 
  330000    90.548284   -11668.592   -10782.487    8.4761563     102002.7      46.7237      46.7237      46.7237 
  331000    92.858633   -11641.268   -10732.554    133.13814     102002.7      46.7237      46.7237      46.7237 
  332000       91.025   -11652.585   -10761.814    362.01505     102002.7      46.7237      46.7237      46.7237 
  333000    92.568395   -11672.838   -10766.964    68.703329     102002.7      46.7237      46.7237      46.7237 
  334000    93.725608   -11653.972   -10736.773    31.748205     102002.7      46.7237      46.7237      46.7237 
  335000    89.706358   -11677.745   -10799.878    366.32758     102002.7      46.7237      46.7237      46.7237 
  336000    90.887427    -11639.05   -10749.626     203.7517     102002.7      46.7237      46.7237      46.7237 
  337000    90.529756   -11644.325   -10758.401     222.5645     102002.7      46.7237      46.7237      46.7237 
  338000    91.916314   -11661.443    -10761.95    298.29519     102002.7      46.7237      46.7237      46.7237 
  339000    90.221395   -11658.515   -10775.608   -20.553707     102002.7      46.7237      46.7237      46.7237 
  340000    90.653103   -11652.038   -10764.907    135.56998     102002.7      46.7237      46.7237      46.7237 
  341000    93.738459   -11651.922   -10734.598    660.15923     102002.7      46.7237      46.7237      46.7237 
  342000    90.274127   -11633.833    -10750.41    217.49133     102002.7      46.7237      46.7237      46.7237 
  343000    92.625891   -11673.302   -10766.866    592.77563     102002.7      46.7237      46.7237      46.7237 
  344000    92.824336   -11651.174   -10742.795    477.35123     102002.7      46.7237      46.7237      46.7237 
  345000     93.32968   -11659.843   -10746.519    105.11965     102002.7      46.7237      46.7237      46.7237 
  346000    92.075248    -11661.02   -10759.971    195.48069     102002.7      46.7237      46.7237      46.7237 
  347000    91.610864   -11644.582   -10748.078    312.24994     102002.7      46.7237      46.7237      46.7237 
  348000    92.020825   -11663.926    -10763.41    295.59205     102002.7      46.7237      46.7237      46.7237 
  349000    91.481459   -11655.075   -10759.837    337.35327     102002.7      46.7237      46.7237      46.7237 
  350000    89.357903   -11639.436   -10764.979    200.30662     102002.7      46.7237      46.7237      46.7237 
  351000    91.731881    -11639.37   -10741.682    262.70348     102002.7      46.7237      46.7237      46.7237 
  352000    88.722722   -11649.684   -10781.443    165.52757     102002.7      46.7237      46.7237      46.7237 
  353000    88.721125   -11648.832   -10780.607    185.38937     102002.7      46.7237      46.7237      46.7237 
  354000     90.23834   -11642.654   -10759.581    129.65854     102002.7      46.7237      46.7237      46.7237 
  355000    90.667519   -11622.892   -10735.619    451.76122     102002.7      46.7237      46.7237      46.7237 
  356000     92.66584   -11649.095   -10742.267    469.37191     102002.7      46.7237      46.7237      46.7237 
  357000    91.094961   -11665.703   -10774.247    160.91444     102002.7      46.7237      46.7237      46.7237 
  358000      92.4632   -11663.227   -10758.383    307.88108     102002.7      46.7237      46.7237      46.7237 
  359000    92.203112   -11665.221   -10762.922    493.06549     102002.7      46.7237      46.7237      46.7237 
  360000    88.554552   -11654.084   -10787.489    239.40272     102002.7      46.7237      46.7237      46.7237 
  361000    89.753168    -11647.64   -10769.315    374.79628     102002.7      46.7237      46.7237      46.7237 
  362000    88.546075   -11638.305   -10771.793    416.43239     102002.7      46.7237      46.7237      46.7237 
  363000    90.246472   -11665.978   -10782.826    331.70877     102002.7      46.7237      46.7237      46.7237 
  364000    91.164345   -11674.312   -10782.178    337.21716     102002.7      46.7237      46.7237      46.7237 
  365000    91.511606   -11650.859   -10755.326    375.96338     102002.7      46.7237      46.7237      46.7237 
  366000    91.507503   -11657.333   -10761.841    207.11114     102002.7      46.7237      46.7237      46.7237 
  367000    91.386761   -11649.143   -10754.832    360.34596     102002.7      46.7237      46.7237      46.7237 
  368000    90.682749   -11650.232    -10762.81    491.35774     102002.7      46.7237      46.7237      46.7237 
  369000    90.449624   -11667.529   -10782.389    339.37737     102002.7      46.7237      46.7237      46.7237 
  370000    89.888096   -11661.274   -10781.629    594.77906     102002.7      46.7237      46.7237      46.7237 
  371000    89.769216   -11671.507   -10793.025    243.69979     102002.7      46.7237      46.7237      46.7237 
  372000    92.049818   -11651.533   -10750.734    526.54102     102002.7      46.7237      46.7237      46.7237 
  373000    92.812255   -11663.636   -10755.376    588.43858     102002.7      46.7237      46.7237      46.7237 
  374000    90.590501   -11649.964   -10763.446     522.6497     102002.7      46.7237      46.7237      46.7237 
  375000    91.016731   -11639.382   -10748.692     188.9336     102002.7      46.7237      46.7237      46.7237 
  376000    87.864061   -11647.772   -10787.934    171.23342     102002.7      46.7237      46.7237      46.7237 
  377000    90.992388   -11629.821    -10739.37    333.05453     102002.7      46.7237      46.7237      46.7237 
  378000    91.119253   -11672.759   -10781.066    192.10206     102002.7      46.7237      46.7237      46.7237 
  379000    87.561665    -11660.12   -10803.242    162.60807     102002.7      46.7237      46.7237      46.7237 
  380000    89.641688   -11654.421   -10777.188    366.89667     102002.7      46.7237      46.7237      46.7237 
  381000    90.354458   -11644.078    -10759.87    405.97173     102002.7      46.7237      46.7237      46.7237 
  382000    89.277845   -11666.372   -10792.699    402.47876     102002.7      46.7237      46.7237      46.7237 
  383000    92.496587   -11668.664   -10763.493    311.30886     102002.7      46.7237      46.7237      46.7237 
  384000    90.144965    -11661.98   -10779.821    198.50832     102002.7      46.7237      46.7237      46.7237 
  385000    89.668776   -11663.761   -10786.263     184.5407     102002.7      46.7237      46.7237      46.7237 
  386000    91.786783   -11631.992   -10733.767    386.00386     102002.7      46.7237      46.7237      46.7237 
  387000    93.763164   -11671.454   -10753.888    196.42784     102002.7      46.7237      46.7237      46.7237 
  388000    90.863797   -11645.894   -10756.701    276.03215     102002.7      46.7237      46.7237      46.7237 
  389000     92.56903   -11632.623   -10726.742   -51.072469     102002.7      46.7237      46.7237      46.7237 
  390000    90.567057   -11651.941   -10765.652    377.33218     102002.7      46.7237      46.7237      46.7237 
  391000     91.18766   -11653.283   -10760.921    200.25716     102002.7      46.7237      46.7237      46.7237 
  392000    91.529169   -11650.223   -10754.519    302.94185     102002.7      46.7237      46.7237      46.7237 
  393000    91.642196   -11647.068   -10750.258    239.75781     102002.7      46.7237      46.7237      46.7237 
  394000    90.606867   -11650.005   -10763.326    387.02148     102002.7      46.7237      46.7237      46.7237 
  395000    92.090406   -11646.819   -10745.623    350.70672     102002.7      46.7237      46.7237      46.7237 
  396000    91.635405   -11662.051   -10765.307    133.56139     102002.7      46.7237      46.7237      46.7237 
  397000    92.737067   -11634.822   -10727.297    320.18657     102002.7      46.7237      46.7237      46.7237 
  398000    91.084573     -11670.6   -10779.246    316.58275     102002.7      46.7237      46.7237      46.7237 
  399000    91.395825   -11661.478   -10767.078    62.996791     102002.7      46.7237      46.7237      46.7237 
  400000    90.892303   -11665.894   -10776.422    302.39829     102002.7      46.7237      46.7237      46.7237 
  401000    90.983455    -11639.65   -10749.286     395.3844     102002.7      46.7237      46.7237      46.7237 
  402000    90.145717   -11645.935   -10763.769    140.39911     102002.7      46.7237      46.7237      46.7237 
  403000    92.003698   -11661.228    -10760.88   -39.983024     102002.7      46.7237      46.7237      46.7237 
  404000    90.172899    -11666.88   -10784.448    209.50033     102002.7      46.7237      46.7237      46.7237 
  405000    90.638931   -11668.359   -10781.366    164.91531     102002.7      46.7237      46.7237      46.7237 
  406000    89.415645   -11664.231    -10789.21    259.58758     102002.7      46.7237      46.7237      46.7237 
  407000    87.737495   -11646.698   -10788.099    442.53542     102002.7      46.7237      46.7237      46.7237 
  408000    89.362547    -11631.12   -10756.618    352.87045     102002.7      46.7237      46.7237      46.7237 
  409000    90.355135    -11651.51   -10767.294    472.85242     102002.7      46.7237      46.7237      46.7237 
  410000    91.708469   -11666.457   -10768.998    396.77748     102002.7      46.7237      46.7237      46.7237 
  411000    91.149307   -11647.426   -10755.439    330.26115     102002.7      46.7237      46.7237      46.7237 
  412000    90.094427   -11658.038   -10776.374     343.0829     102002.7      46.7237      46.7237      46.7237 
  413000    92.803545   -11655.239   -10747.063   -42.883893     102002.7      46.7237      46.7237      46.7237 
  414000    88.726423   -11671.966   -10803.689    167.36885     102002.7      46.7237      46.7237      46.7237 
  415000    90.937666   -11644.106    -10754.19    393.83148     102002.7      46.7237      46.7237      46.7237 
  416000    91.317721   -11649.234   -10755.598    69.953575     102002.7      46.7237      46.7237      46.7237 
  417000    88.960773   -11639.671   -10769.101    374.37467     102002.7      46.7237      46.7237      46.7237 
  418000    91.840661   -11643.217   -10744.465     409.5846     102002.7      46.7237      46.7237      46.7237 
  419000    90.537446   -11672.979   -10786.979    405.29042     102002.7      46.7237      46.7237      46.7237 
  420000    91.334832    -11666.78   -10772.978       385.18     102002.7      46.7237      46.7237      46.7237 
  421000    90.320989   -11667.901    -10784.02    306.82731     102002.7      46.7237      46.7237      46.7237 
  422000    91.771048    -11689.57   -10791.499    277.11645     102002.7      46.7237      46.7237      46.7237 
  423000    88.589954   -11664.747   -10797.806    321.25511     102002.7      46.7237      46.7237      46.7237 
  424000    92.048843   -11670.188   -10769.398    219.54504     102002.7      46.7237      46.7237      46.7237 
  425000    89.349625   -11649.316   -10774.941    7.5655433     102002.7      46.7237      46.7237      46.7237 
  426000    89.537077   -11675.905   -10799.695    98.318953     102002.7      46.7237      46.7237      46.7237 
  427000    91.971784   -11640.654   -10740.618    230.82396     102002.7      46.7237      46.7237      46.7237 
  428000    90.468565   -11633.935    -10748.61    249.38606     102002.7      46.7237      46.7237      46.7237 
  429000    89.004745    -11670.46    -10799.46    248.57573     102002.7      46.7237      46.7237      46.7237 
  430000    91.454448   -11652.045   -10757.072    119.62445     102002.7      46.7237      46.7237      46.7237 
  431000    89.390264   -11636.317   -10761.544    348.92868     102002.7      46.7237      46.7237      46.7237 
  432000    91.454386   -11653.532    -10758.56    224.92415     102002.7      46.7237      46.7237      46.7237 
  433000    89.642605   -11662.751   -10785.509    216.27868     102002.7      46.7237      46.7237      46.7237 
  434000    92.545886   -11665.793   -10760.139    315.06271     102002.7      46.7237      46.7237      46.7237 
  435000    92.128131   -11657.853   -10756.287    282.38664     102002.7      46.7237      46.7237      46.7237 
  436000    89.883516   -11652.333   -10772.733    468.39285     102002.7      46.7237      46.7237      46.7237 
  437000    91.023285   -11671.302   -10780.548    258.98258     102002.7      46.7237      46.7237      46.7237 
  438000    94.721513   -11650.888   -10723.944     335.0897     102002.7      46.7237      46.7237      46.7237 
  439000    90.972122   -11641.563    -10751.31    217.70719     102002.7      46.7237      46.7237      46.7237 
  440000    90.971515   -11658.763   -10768.516    64.984405     102002.7      46.7237      46.7237      46.7237 
  441000    89.294083   -11657.077   -10783.245    409.73502     102002.7      46.7237      46.7237      46.7237 
  442000    90.932775   -11644.468     -10754.6    358.34613     102002.7      46.7237      46.7237      46.7237 
  443000    89.829145    -11653.56   -10774.492    216.62487     102002.7      46.7237      46.7237      46.7237 
  444000    89.867781   -11649.225   -10769.779    100.87032     102002.7      46.7237      46.7237      46.7237 
  445000    90.501021    -11678.73   -10793.087   -4.5898924     102002.7      46.7237      46.7237      46.7237 
  446000    93.538993   -11671.724   -10756.351    333.83545     102002.7      46.7237      46.7237      46.7237 
  447000      92.6982   -11637.641   -10730.496    121.91225     102002.7      46.7237      46.7237      46.7237 
  448000    90.521882   -11664.004   -10778.157   -62.175795     102002.7      46.7237      46.7237      46.7237 
  449000      91.1579   -11651.977   -10759.906    84.862555     102002.7      46.7237      46.7237      46.7237 
  450000    90.786569   -11653.553   -10765.115    412.25461     102002.7      46.7237      46.7237      46.7237 
  451000    90.513799    -11655.65   -10769.882    23.254618     102002.7      46.7237      46.7237      46.7237 
  452000    90.870786   -11666.657   -10777.395    122.86047     102002.7      46.7237      46.7237      46.7237 
  453000    91.223244   -11651.614   -10758.903    219.96123     102002.7      46.7237      46.7237      46.7237 
  454000    89.461446   -11669.709    -10794.24    344.41619     102002.7      46.7237      46.7237      46.7237 
  455000    92.080592   -11649.171    -10748.07    389.38697     102002.7      46.7237      46.7237      46.7237 
  456000    91.081848   -11632.606   -10741.279    276.03939     102002.7      46.7237      46.7237      46.7237 
  457000    88.899148   -11635.243   -10765.276     138.1864     102002.7      46.7237      46.7237      46.7237 
  458000    91.603084   -11639.437   -10743.009    341.09911     102002.7      46.7237      46.7237      46.7237 
  459000    89.733922   -11668.608   -10790.472    481.75955     102002.7      46.7237      46.7237      46.7237 
  460000    90.077583   -11668.406   -10786.907    603.37687     102002.7      46.7237      46.7237      46.7237 
  461000    91.436153   -11648.167   -10753.372    246.41689     102002.7      46.7237      46.7237      46.7237 
  462000     90.87208   -11671.231   -10781.957    129.06305     102002.7      46.7237      46.7237      46.7237 
  463000    90.297079    -11671.48   -10787.833    548.85152     102002.7      46.7237      46.7237      46.7237 
  464000    92.539249   -11638.253   -10732.664    388.09694     102002.7      46.7237      46.7237      46.7237 
  465000    91.104622   -11678.714   -10787.164    166.86862     102002.7      46.7237      46.7237      46.7237 
  466000    89.404749   -11668.398   -10793.483    121.83852     102002.7      46.7237      46.7237      46.7237 
  467000    90.539424   -11673.343   -10787.324    270.32071     102002.7      46.7237      46.7237      46.7237 
  468000    91.387627   -11668.926   -10774.606    260.15191     102002.7      46.7237      46.7237      46.7237 
  469000    91.809278   -11678.036    -10779.59    -8.416136     102002.7      46.7237      46.7237      46.7237 
  470000    89.821271    -11666.63   -10787.639    299.33628     102002.7      46.7237      46.7237      46.7237 
  471000    90.572233   -11689.714   -10803.375   -3.1706862     102002.7      46.7237      46.7237      46.7237 
  472000     91.38889   -11668.579   -10774.247    116.85381     102002.7      46.7237      46.7237      46.7237 
  473000     91.77023   -11660.524    -10762.46    407.30848     102002.7      46.7237      46.7237      46.7237 
  474000    90.267617    -11671.12   -10787.761    385.28789     102002.7      46.7237      46.7237      46.7237 
  475000    92.040928   -11644.091   -10743.379     154.3963     102002.7      46.7237      46.7237      46.7237 
  476000    89.855447   -11657.194   -10777.869    294.90201     102002.7      46.7237      46.7237      46.7237 
  477000    91.087818   -11646.118   -10754.733    165.83406     102002.7      46.7237      46.7237      46.7237 
  478000    90.466551   -11655.482   -10770.176    289.38804     102002.7      46.7237      46.7237      46.7237 
  479000    89.948706    -11682.86   -10802.622    366.47542     102002.7      46.7237      46.7237      46.7237 
  480000    90.155982   -11666.856   -10784.589   -39.224571     102002.7      46.7237      46.7237      46.7237 
  481000    91.366438   -11640.018   -10745.906    64.792582     102002.7      46.7237      46.7237      46.7237 
  482000    89.209108   -11657.372   -10784.371    369.45499     102002.7      46.7237      46.7237      46.7237 
  483000    91.946673   -11657.917   -10758.127    438.52844     102002.7      46.7237      46.7237      46.7237 
  484000    91.515262   -11661.083   -10765.514    466.81518     102002.7      46.7237      46.7237      46.7237 
  485000    90.691146   -11653.285   -10765.781    628.40438     102002.7      46.7237      46.7237      46.7237 
  486000    91.825216   -11660.872   -10762.271    603.71807     102002.7      46.7237      46.7237      46.7237 
  487000    90.915763   -11670.682    -10780.98    174.99819     102002.7      46.7237      46.7237      46.7237 
  488000    90.133128   -11654.639   -10772.597    439.32908     102002.7      46.7237      46.7237      46.7237 
  489000    91.114239   -11668.042   -10776.398    493.02567     102002.7      46.7237      46.7237      46.7237 
  490000    90.457848   -11633.723   -10748.502    571.21208     102002.7      46.7237      46.7237      46.7237 
  491000    90.477535   -11688.134   -10802.721     294.2489     102002.7      46.7237      46.7237      46.7237 
  492000    90.271845   -11653.064   -10769.664    312.25019     102002.7      46.7237      46.7237      46.7237 
  493000    90.695465    -11637.89   -10750.344    378.39839     102002.7      46.7237      46.7237      46.7237 
  494000    91.229962   -11656.936   -10764.159   -15.420531     102002.7      46.7237      46.7237      46.7237 
  495000    91.367369   -11681.582   -10787.461    128.08608     102002.7      46.7237      46.7237      46.7237 
  496000    92.012304   -11656.674   -10756.241    209.49035     102002.7      46.7237      46.7237      46.7237 
  497000    87.321497   -11665.779    -10811.25    143.97973     102002.7      46.7237      46.7237      46.7237 
  498000    90.201632   -11644.734   -10762.021    200.16604     102002.7      46.7237      46.7237      46.7237 
  499000    90.949153   -11635.274   -10745.246    464.91054     102002.7      46.7237      46.7237      46.7237 
  500000    91.331507   -11640.609   -10746.839    331.20696     102002.7      46.7237      46.7237      46.7237 
  500500    90.544315    -11647.97   -10761.903    155.59035     102002.7      46.7237      46.7237      46.7237 
Loop time of 2009.19 on 16 procs for 500000 steps with 3284 atoms

Performance: 21.501 ns/day, 1.116 hours/ns, 248.856 timesteps/s
99.8% CPU use with 16 MPI tasks x no OpenMP threads

MPI task timing breakdown:
Section |  min time  |  avg time  |  max time  |%varavg| %total
---------------------------------------------------------------
Pair    | 893.98     | 1199.4     | 1617.9     | 563.6 | 59.69
Bond    | 126.41     | 174.86     | 229.81     | 175.8 |  8.70
Neigh   | 15.383     | 15.424     | 15.447     |   0.4 |  0.77
Comm    | 128.44     | 601.6      | 955.15     | 868.7 | 29.94
Output  | 0.06545    | 0.071481   | 0.080498   |   2.1 |  0.00
Modify  | 9.8675     | 10.909     | 11.85      |  16.2 |  0.54
Other   |            | 6.962      |            |       |  0.35

Nlocal:    205.25 ave 233 max 166 min
Histogram: 1 2 0 1 1 4 0 3 1 3
Nghost:    4140.88 ave 4187 max 4105 min
Histogram: 5 0 0 2 0 5 1 1 0 2
Neighs:    11460.9 ave 18409 max 7459 min
Histogram: 3 2 1 3 3 1 2 0 0 1

Total # of neighbors = 183374
Ave neighs/atom = 55.8386
Ave special neighs/atom = 3.50792
Neighbor list builds = 4146
Dangerous builds = 0
Neighbor list info ...
  update every 1 steps, delay 10 steps, check yes
  max neighbors/atom: 2000, page size: 100000
  master list distance cutoff = 16
  ghost atom cutoff = 16
  binsize = 8, bins = 6 6 6
  3 neighbor lists, perpetual/occasional/extra = 3 0 0
  (1) pair buck6d/coul/gauss/dsf, perpetual, skip from (3)
      attributes: half, newton on
      pair build: skip
      stencil: none
      bin: none
  (2) pair lj/cut, perpetual, skip from (3)
      attributes: half, newton on
      pair build: skip
      stencil: none
      bin: none
  (3) neighbor class addition, perpetual
      attributes: half, newton on
      pair build: half/bin/newton
      stencil: half/bin/3d/newton
      bin: standard
Setting up Verlet run ...
  Unit style    : real
  Current step  : 500500
  Time step     : 1
WARNING: Inconsistent image flags (../domain.cpp:786)
Per MPI rank memory allocation (min/avg/max) = 22.79 | 23.19 | 23.45 Mbytes
Step Time TotEng KinEng PotEng E_mol E_pair Temp Pxx Pyy Pzz Pxy Pxz Pyz Cella Cellb Cellc CellAlpha CellBeta CellGamma Volume Press 
  500500       500000   -10761.903    886.06662    -11647.97    4135.7019   -15783.672    90.544315     340.9852    -193.2628    319.04864     43.56312   -267.09286    88.379359      46.7237      46.7237      46.7237           90           90           90     102002.7    155.59035 
  501000       500500   -10775.443    898.54295   -11673.986     4145.374    -15819.36    91.819232    197.69548   -103.36038    218.79713   -166.37055     173.4302    9.7487489      46.7237      46.7237      46.7237           90           90           90     102002.7    104.37741 
  502000       501500    -10798.58    873.80665   -11672.387    4137.5473   -15809.934    89.291508    65.550476   -94.826265    476.26151   -125.85048   -93.418496   -33.161039      46.7237      46.7237      46.7237           90           90           90     102002.7    148.99524 
  503000       502500   -10768.134    903.58959   -11671.723    4136.3144   -15808.038    92.334932    212.29303    33.010067      282.711    195.18949    170.99498   -101.13276      46.7237      46.7237      46.7237           90           90           90     102002.7     176.0047 
  504000       503500    -10779.17    894.53154   -11673.702    4124.4367   -15798.138    91.409319    265.31935    224.56287    579.52241   -115.06201   -56.589686   -38.334542      46.7237      46.7237      46.7237           90           90           90     102002.7    356.46821 
  505000       504500   -10769.572    877.95917   -11647.531    4153.6946   -15801.226    89.715842    120.60335    335.35522    703.16237    17.034847   -27.358866   -219.78392      46.7237      46.7237      46.7237           90           90           90     102002.7    386.37365 
  506000       505500   -10805.378    877.99505   -11683.374    4139.0838   -15822.457    89.719508    188.03179    191.09517    102.48558    -100.5579    212.78362    14.168968      46.7237      46.7237      46.7237           90           90           90     102002.7    160.53751 
  507000       506500   -10760.864    898.73119   -11659.596    4142.6478   -15802.243    91.838468    336.93695    278.33699    403.71911   -330.71765    200.34432   -282.20999      46.7237      46.7237      46.7237           90           90           90     102002.7    339.66435 
  508000       507500   -10778.074    889.19981   -11667.274    4143.5354   -15810.809    90.864487    379.65013    120.05547    697.63041   -309.07395    58.292556   -196.78692      46.7237      46.7237      46.7237           90           90           90     102002.7      399.112 
  509000       508500   -10804.803    863.34416   -11668.147      4124.03   -15792.177     88.22238    83.197233    382.43161    340.58883     132.0773    42.375324   -245.99069      46.7237      46.7237      46.7237           90           90           90     102002.7    268.73922 
  510000       509500   -10760.942    896.66829    -11657.61    4150.5124   -15808.122    91.627667    105.75048     749.6646    161.71662    209.50987   -172.32269    -107.4137      46.7237      46.7237      46.7237           90           90           90     102002.7     339.0439 
  511000       510500   -10750.687    890.48961   -11641.176    4152.2837    -15793.46    90.996287     622.3009    -5.582488    471.18784    14.086715    92.411082   -4.8980669      46.7237      46.7237      46.7237           90           90           90     102002.7    362.63542 
  512000       511500   -10795.706    881.82124   -11677.527    4152.0246   -15829.552    90.110494   -153.12486   -115.54853   -265.09691   -58.324521    37.872807    60.996395      46.7237      46.7237      46.7237           90           90           90     102002.7   -177.92343 
  513000       512500   -10759.434    897.03443   -11656.468     4142.279   -15798.747    91.665081    467.09439    58.619209    195.65777   -34.964769   -22.413117   -164.45783      46.7237      46.7237      46.7237           90           90           90     102002.7    240.45712 
  514000       513500   -10726.454    907.65607    -11634.11    4147.2317   -15781.342    92.750473    395.47843    395.67278   -144.75625    56.187284    325.39864   -471.80553      46.7237      46.7237      46.7237           90           90           90     102002.7    215.46499 
  515000       514500   -10781.705     888.4835   -11670.189    4155.6056   -15825.795    90.791289   -617.36947    197.09543    278.05716    -71.30882   -37.950029    -298.5311      46.7237      46.7237      46.7237           90           90           90     102002.7   -47.405626 
  516000       515500   -10779.566     886.8063   -11666.372    4137.8784   -15804.251    90.619901    316.94425    196.58996     91.06641    -258.2551   -192.46578    22.332825      46.7237      46.7237      46.7237           90           90           90     102002.7    201.53354 
  517000       516500   -10735.981    915.51385   -11651.495    4162.7639   -15814.259    93.553434    117.22241    171.79315   -179.80816     19.29137   -23.010569   -62.227861      46.7237      46.7237      46.7237           90           90           90     102002.7    36.402466 
  518000       517500   -10777.844    897.18089   -11675.025    4137.9315   -15812.957    91.680047    253.98963    342.35347    111.20348    172.37651   -127.10864    121.10123      46.7237      46.7237      46.7237           90           90           90     102002.7    235.84886 
  519000       518500   -10762.161    881.61505   -11643.776    4149.3032   -15793.079    90.089424     321.9518    494.49507    388.93387   -80.727019    19.549327   -145.43893      46.7237      46.7237      46.7237           90           90           90     102002.7    401.79358 
  520000       519500   -10758.227    893.20126   -11651.428    4149.7963   -15801.224    91.273382    220.19953    18.486099    333.60409   -151.41312    167.78007    144.24079      46.7237      46.7237      46.7237           90           90           90     102002.7    190.76324 
  521000       520500   -10761.133    892.47184   -11653.605     4152.458   -15806.063    91.198845    183.91376    652.70793    617.36501   -78.908566   -78.031787   -92.317192      46.7237      46.7237      46.7237           90           90           90     102002.7    484.66223 
  522000       521500   -10796.997    869.40061   -11666.398    4136.2453   -15802.643     88.84127    207.94351    523.04889    563.58728    69.944108   -171.60471    85.797123      46.7237      46.7237      46.7237           90           90           90     102002.7    431.52656 
  523000       522500   -10745.363    894.48889   -11639.852    4156.0683   -15795.921     91.40496   -379.32221    70.475897    49.309942    138.03064   -64.502398   -55.882207      46.7237      46.7237      46.7237           90           90           90     102002.7   -86.512124 
  524000       523500   -10788.513    877.25022   -11665.763    4135.3411   -15801.104    89.643396    7.4060052    445.85876    106.43725    31.284992   -63.593408   -93.166699      46.7237      46.7237      46.7237           90           90           90     102002.7    186.56734 
  525000       524500   -10760.114    889.79328   -11649.908    4159.1462   -15809.054    90.925131    407.83795     507.5126   -204.10609    32.665358   -1.6599528   -225.71412      46.7237      46.7237      46.7237           90           90           90     102002.7    237.08149 
  526000       525500   -10777.582    881.05842   -11658.641    4143.9845   -15802.625    90.032543   -127.43757     393.4295   -94.601478    83.367284    64.786268    160.47963      46.7237      46.7237      46.7237           90           90           90     102002.7    57.130151 
  527000       526500   -10772.309    905.18456   -11677.493    4145.0764   -15822.569    92.497917    82.461728    14.523551    717.57362     98.17479    186.75377    58.957244      46.7237      46.7237      46.7237           90           90           90     102002.7    271.51963 
  528000       527500   -10770.581    892.91714   -11663.498    4147.6235   -15811.122    91.244348   -220.31718    41.142594    68.844355   -61.334719    253.35159    87.855189      46.7237      46.7237      46.7237           90           90           90     102002.7   -36.776742 
  529000       528500   -10764.106      893.647   -11657.753    4147.1089   -15804.862    91.318931    341.94774    82.030459    498.46057    -10.25076   -58.573452   -101.43181      46.7237      46.7237      46.7237           90           90           90     102002.7    307.47959 
  530000       529500   -10721.176    922.03472   -11643.211    4165.5751   -15808.786    94.219781    106.51652   -14.584804    500.96803    143.13107    -10.15442    -315.5412      46.7237      46.7237      46.7237           90           90           90     102002.7    197.63325 
  531000       530500   -10737.576    902.43127   -11640.007    4162.0201   -15802.027    92.216567   -91.112512   -21.801286    333.41433    137.24525    153.84769    142.07366      46.7237      46.7237      46.7237           90           90           90     102002.7    73.500176 
  532000       531500   -10765.882    889.34237   -11655.225    4163.6907   -15818.915    90.879054   -79.876111   -177.51073    304.40413     220.1188    134.26981    150.83368      46.7237      46.7237      46.7237           90           90           90     102002.7    15.672431 
  533000       532500   -10806.011    889.76978   -11695.781    4135.7018   -15831.483    90.922729    2.1431297    320.43446     306.7141   -132.11907    18.615646   -43.443843      46.7237      46.7237      46.7237           90           90           90     102002.7     209.7639 
  534000       533500   -10787.459    888.66816   -11676.127    4142.8132    -15818.94    90.810158    445.19182    313.44077    332.24529     83.83589   -41.615679    -38.70438      46.7237      46.7237      46.7237           90           90           90     102002.7    363.62596 
  535000       534500   -10751.883    904.32018   -11656.203    4141.5732   -15797.776    92.409589    320.77786    -19.85495    368.96508    -69.44209   -94.448256   -120.74332      46.7237      46.7237      46.7237           90           90           90     102002.7      223.296 
  536000       535500   -10787.715    886.88033   -11674.595    4132.7377   -15807.333    90.627467    293.27837    199.31788    1.9132437   -201.95559    108.37684   -284.97272      46.7237      46.7237      46.7237           90           90           90     102002.7     164.8365 
  537000       536500   -10751.273    888.11093   -11639.384    4161.5182   -15800.902    90.753217   0.53487698    70.340396     323.3221    37.006351   -1.1903463   -207.68801      46.7237      46.7237      46.7237           90           90           90     102002.7    131.39913 
  538000       537500   -10808.287    884.78424   -11693.071    4139.6573   -15832.728    90.413273   -122.12485   -144.21907    473.54309   -17.988365   -361.18128   -1.7755257      46.7237      46.7237      46.7237           90           90           90     102002.7     69.06639 
  539000       538500   -10741.654     897.3903   -11639.044    4157.6972   -15796.741    91.701446   -77.869147   -96.184156    47.074414     6.263063   -25.893933   -23.995323      46.7237      46.7237      46.7237           90           90           90     102002.7   -42.326296 
  540000       539500   -10785.712    873.23291   -11658.945    4152.5666   -15811.511     89.23288    265.38449    208.42723    585.07901    84.344225    168.59348   -388.89971      46.7237      46.7237      46.7237           90           90           90     102002.7    352.96358 
  541000       540500   -10759.711    915.59075   -11675.302    4144.5597   -15819.861    93.561292    91.388155    603.78323    338.45014   -89.475901   -82.456996   -205.52885      46.7237      46.7237      46.7237           90           90           90     102002.7    344.54051 
  542000       541500   -10807.974    858.45419   -11666.429    4146.5779   -15813.006     87.72269    424.38682    301.13583    688.75894    117.85136    112.06803    136.35436      46.7237      46.7237      46.7237           90           90           90     102002.7    471.42719 
  543000       542500    -10757.24     913.9735   -11671.214    4134.1258    -15805.34    93.396031    4.2349533    422.35607    304.41954    101.00102    33.790394    126.62874      46.7237      46.7237      46.7237           90           90           90     102002.7    243.67019 
  544000       543500   -10751.217    889.89667   -11641.114    4154.2276   -15795.341    90.935696    177.20282    257.94158    186.90209   -130.33595   -166.25014   -21.721613      46.7237      46.7237      46.7237           90           90           90     102002.7    207.34883 
  545000       544500   -10797.774    871.28256   -11669.056    4139.8805   -15808.937     89.03358     523.4498    311.61951    196.57703   -107.43508    76.867239   -94.324073      46.7237      46.7237      46.7237           90           90           90     102002.7    343.88211 
  546000       545500   -10759.018     899.4103   -11658.429    4146.5198   -15804.948    91.907864    551.62805    165.75325    268.61863    22.500202    84.194036   -27.031798      46.7237      46.7237      46.7237           90           90           90     102002.7    328.66664 
  547000       546500   -10775.271    899.50638   -11674.778    4131.8806   -15806.658    91.917682    873.15411    452.03523   -16.027992   -99.640221    134.23449    77.272607      46.7237      46.7237      46.7237           90           90           90     102002.7    436.38712 
  548000       547500   -10755.553    896.21707    -11651.77    4145.2029   -15796.973    91.581558   -120.58485    130.87998     403.1592    42.602575   -101.14933    -38.99732      46.7237      46.7237      46.7237           90           90           90     102002.7    137.81811 
  549000       548500    -10766.98    882.78876   -11649.769    4155.3917   -15805.161    90.209361    459.56516    280.17343     303.5709    115.39146    88.433052    185.21556      46.7237      46.7237      46.7237           90           90           90     102002.7    347.76983 
  550000       549500   -10744.092    899.35215   -11643.444    4151.9492   -15795.393    91.901922     22.94305    391.56664    192.93947    4.4268704       52.857    -186.2824      46.7237      46.7237      46.7237           90           90           90     102002.7    202.48305 
  551000       550500    -10769.74    880.65298   -11650.393     4145.885   -15796.278    89.991113    275.22556     437.9202    210.76399    36.354375   -42.186393    166.71742      46.7237      46.7237      46.7237           90           90           90     102002.7    307.96992 
  552000       551500   -10764.338    874.70502   -11639.043    4161.3579   -15800.401     89.38331    334.27277    88.817183    330.11058    223.10673   -55.973337     97.66483      46.7237      46.7237      46.7237           90           90           90     102002.7    251.06684 
  553000       552500   -10746.597    903.18534   -11649.782    4157.5661   -15807.348    92.293623     25.47059    412.84016    359.39959    97.875046    110.81577     102.1694      46.7237      46.7237      46.7237           90           90           90     102002.7    265.90345 
  554000       553500   -10755.767    924.61622   -11680.384    4138.5651   -15818.949    94.483576    333.42747    17.579552    576.08558    178.82137   -127.40911    53.488569      46.7237      46.7237      46.7237           90           90           90     102002.7    309.03087 
  555000       554500   -10770.125    882.19959   -11652.324    4163.8821   -15816.206    90.149156    145.92045    167.69377    437.82173    196.61052   -207.97856   -130.62347      46.7237      46.7237      46.7237           90           90           90     102002.7    250.47865 
[...]
  936000       935500   -10756.458    893.80321   -11650.262    4141.5123   -15791.774    91.334893    276.28933    156.04581    124.21001    130.87431    168.39881   -89.065583      46.7237      46.7237      46.7237           90           90           90     102002.7    185.51505 
  937000       936500   -10771.846    894.71642   -11666.563    4133.9382   -15800.501    91.428211    62.621745    89.156091    170.65606   -54.618693   -1.0897524   -201.24148      46.7237      46.7237      46.7237           90           90           90     102002.7    107.47797 
  938000       937500   -10782.648    883.42118    -11666.07     4141.937   -15808.007    90.273987    450.29362    270.99437    253.10797   -164.18795   -18.124023    19.572921      46.7237      46.7237      46.7237           90           90           90     102002.7    324.79866 
  939000       938500   -10740.014    897.81542    -11637.83    4142.1994   -15780.029    91.744888    357.89038    68.345648    540.92704   -33.566526   -83.481838    21.124338      46.7237      46.7237      46.7237           90           90           90     102002.7    322.38769 
  940000       939500   -10772.696    882.91737   -11655.613    4137.6616   -15793.275    90.222504    453.29961   -48.655448    406.07348    273.26415     134.3699    -119.7238      46.7237      46.7237      46.7237           90           90           90     102002.7    270.23921 
  941000       940500   -10790.968    874.56563   -11665.534     4127.189   -15792.723    89.369067    384.34744    77.952418     650.9312    108.96781    159.09733   -250.68076      46.7237      46.7237      46.7237           90           90           90     102002.7    371.07702 
  942000       941500       -10808    885.77413   -11693.775    4125.1478   -15818.922    90.514427    145.35602    31.997297    321.03634   -17.177907    256.11126   -39.718101      46.7237      46.7237      46.7237           90           90           90     102002.7    166.12988 
  943000       942500   -10783.213    880.90264   -11664.116    4150.1876   -15814.304    90.016625    168.43487    200.28934    557.31748   -94.567146    192.87491    -196.7119      46.7237      46.7237      46.7237           90           90           90     102002.7    308.68056 
  944000       943500   -10769.341    904.20673   -11673.548    4117.6512   -15791.199    92.397996    170.52669   -213.30649    555.64026    39.595939     160.2574    -86.83552      46.7237      46.7237      46.7237           90           90           90     102002.7    170.95349 
  945000       944500   -10760.648    903.68147    -11664.33    4135.1072   -15799.437    92.344321    357.82021    714.79156    349.34652    117.42139    45.309646   -70.584613      46.7237      46.7237      46.7237           90           90           90     102002.7     473.9861 
  946000       945500   -10764.906    884.73286   -11649.639    4130.8004   -15780.439    90.408023    820.80695     347.7989    127.28406    130.31443    225.38213   -79.463742      46.7237      46.7237      46.7237           90           90           90     102002.7     431.9633 
  947000       946500   -10775.173     884.3872    -11659.56    4133.3304    -15792.89    90.372701    285.03488    665.68791    231.69021    111.68054    114.28107    21.798597      46.7237      46.7237      46.7237           90           90           90     102002.7    394.13767 
  948000       947500   -10773.073    877.81075   -11650.884    4132.6328   -15783.516    89.700675    94.020823     107.1502    572.66991    -18.87403   -83.424749    67.646572      46.7237      46.7237      46.7237           90           90           90     102002.7    257.94698 
  949000       948500   -10785.005    883.41798   -11668.423    4112.3606   -15780.783     90.27366   -51.685464    406.14492    770.34349    44.774584    31.307936   -223.17765      46.7237      46.7237      46.7237           90           90           90     102002.7    374.93432 
  950000       949500    -10738.77     902.1208   -11640.891    4131.5327   -15772.424    92.184841     486.3626    339.78992    520.68191    53.550854    95.694004    64.873278      46.7237      46.7237      46.7237           90           90           90     102002.7    448.94481 
  951000       950500   -10755.496    896.24047   -11651.737    4128.2778   -15780.015    91.583949    49.138118    506.59878    325.20925    46.390853   -2.0126989   -282.12759      46.7237      46.7237      46.7237           90           90           90     102002.7    293.64872 
  952000       951500   -10776.146    885.95229   -11662.098    4125.1244   -15787.222    90.532633    364.31215    74.800559    399.93994   -50.785959    -167.7357    150.00146      46.7237      46.7237      46.7237           90           90           90     102002.7    279.68422 
  953000       952500   -10793.519    861.32899   -11654.848    4127.9709   -15782.819    88.016457    501.18311    691.48987    445.10403    142.54286    11.051813    62.882369      46.7237      46.7237      46.7237           90           90           90     102002.7    545.92567 
  954000       953500   -10771.083    886.84839   -11657.931     4141.808   -15799.739    90.624202    192.31515    228.31644    130.45343    118.74098    -352.5243   -98.851377      46.7237      46.7237      46.7237           90           90           90     102002.7      183.695 
  955000       954500   -10767.322    885.86706   -11653.189    4161.9898   -15815.179    90.523924    451.09203    76.375184   -96.129475    79.223914     176.2428    90.413698      46.7237      46.7237      46.7237           90           90           90     102002.7    143.77925 
  956000       955500   -10754.023    898.94604    -11652.97    4147.9603    -15800.93    91.860423   -11.354404    150.92074    446.97768   -137.59779    12.950865   -46.815913      46.7237      46.7237      46.7237           90           90           90     102002.7    195.51467 
  957000       956500   -10777.627    891.70116   -11669.328    4128.7262   -15798.055    91.120092    537.92247    278.29629    631.66602     -189.749   -29.849889     371.3259      46.7237      46.7237      46.7237           90           90           90     102002.7    482.62826 
  958000       957500   -10751.639    897.97525   -11649.614    4142.8737   -15792.488     91.76122    304.19078    468.11226    343.27761    79.454324     221.0736   -32.402755      46.7237      46.7237      46.7237           90           90           90     102002.7    371.86022 
  959000       958500    -10801.03    873.07578   -11674.106    4143.4626   -15817.568    89.216823   -228.86555    366.75745    484.95927   -20.778163   -192.20854   -114.16338      46.7237      46.7237      46.7237           90           90           90     102002.7    207.61706 
  960000       959500   -10761.261    882.82062   -11644.081    4140.3407   -15784.422    90.212618    468.93032    204.80757    109.02151   -105.46927    9.9074364   -211.83328      46.7237      46.7237      46.7237           90           90           90     102002.7     260.9198 
  961000       960500   -10771.023    884.84281   -11655.866    4150.5415   -15806.408    90.419259   -93.521482    39.190981    596.83292    149.92662   -17.298127   -61.940827      46.7237      46.7237      46.7237           90           90           90     102002.7    180.83414 
  962000       961500    -10756.35    907.31441   -11663.665    4133.4926   -15797.157     92.71556    68.160907   -11.987064    674.40701   -201.26998   -222.27837   -65.743467      46.7237      46.7237      46.7237           90           90           90     102002.7    243.52695 
  963000       962500   -10784.256    885.63291   -11669.889    4137.9784   -15807.867    90.499996     252.9048    380.91985    576.84622     41.93058    47.787801    62.138665      46.7237      46.7237      46.7237           90           90           90     102002.7    403.55696 
  964000       963500   -10771.032      874.709   -11645.741    4139.3235   -15785.065    89.383717    270.98524    698.35717    134.56699   -47.635456   -77.337356   -282.79682      46.7237      46.7237      46.7237           90           90           90     102002.7     367.9698 
  965000       964500   -10774.433    892.08063   -11666.514    4121.9363    -15788.45    91.158869    386.60702     293.8508    227.56214     94.89148   -153.55827   -19.365362      46.7237      46.7237      46.7237           90           90           90     102002.7    302.67332 
  966000       965500   -10753.976    903.02895   -11657.005    4135.7324   -15792.738    92.277642    343.44366    20.102726    331.24496    29.411295    153.91104    180.08808      46.7237      46.7237      46.7237           90           90           90     102002.7    231.59711 
  967000       966500    -10783.84    883.29445   -11667.134    4138.7884   -15805.923    90.261037    33.923305    313.02905    286.73358    235.03418     178.1227    84.872459      46.7237      46.7237      46.7237           90           90           90     102002.7    211.22865 
  968000       967500   -10771.412    886.58163   -11657.994    4139.7297   -15797.723    90.596943    142.84432    248.11426    522.40541   -87.766209    75.940921   -83.676391      46.7237      46.7237      46.7237           90           90           90     102002.7    304.45466 
  969000       968500   -10770.447    892.95043   -11663.398    4135.6062   -15799.004    91.247751    234.01273    138.16461    445.91327    212.51943   -74.375668   -134.60135      46.7237      46.7237      46.7237           90           90           90     102002.7    272.69687 
  970000       969500   -10751.272    902.25583   -11653.528    4156.7444   -15810.272     92.19864    206.97765    418.70388    20.698256    16.041669   -65.067732   -83.047847      46.7237      46.7237      46.7237           90           90           90     102002.7    215.45993 
  971000       970500   -10774.351     874.1183   -11648.469    4160.4296   -15808.899    89.323355    14.727852    145.09866    598.56742   -128.47326    150.01574   -103.81006      46.7237      46.7237      46.7237           90           90           90     102002.7    252.79798 
  972000       971500   -10782.909    876.43892   -11659.348     4126.822    -15786.17    89.560492    343.72318    158.57607    178.35395    265.10586    117.15267   -47.765912      46.7237      46.7237      46.7237           90           90           90     102002.7     226.8844 
  973000       972500   -10762.637     895.2486   -11657.885     4141.813   -15799.698    91.482593    52.950215    203.44442    533.14109   -146.74972   -87.548756   -163.02141      46.7237      46.7237      46.7237           90           90           90     102002.7    263.17857 
  974000       973500   -10742.836    912.04509   -11654.881    4146.2732   -15801.154    93.198973    138.54114   -88.268047   -26.183487    -31.19702    20.368303    8.9367075      46.7237      46.7237      46.7237           90           90           90     102002.7    8.0298681 
  975000       974500   -10752.139    892.43218   -11644.571    4125.5221   -15770.093    91.194792    213.35922    432.50897     427.8821    184.25513   -7.2801796   -201.69533      46.7237      46.7237      46.7237           90           90           90     102002.7    357.91677 
  976000       975500   -10767.574    896.99786   -11664.571    4146.8982    -15811.47    91.661345    369.78491   -14.006417     331.9767    75.793893    179.45666    123.26945      46.7237      46.7237      46.7237           90           90           90     102002.7    229.25173 
  977000       976500   -10781.888    890.97971   -11672.867    4142.5416   -15815.409    91.046369    242.81672    60.749762   -70.642178    17.502041     264.7733    89.540051      46.7237      46.7237      46.7237           90           90           90     102002.7    77.641434 
  978000       977500   -10770.427    878.53467   -11648.962    4123.0575   -15772.019     89.77465    73.408488    608.25978   -35.771123    49.113452    251.41694    21.061322      46.7237      46.7237      46.7237           90           90           90     102002.7    215.29905 
  979000       978500   -10774.047    903.39022   -11677.438    4137.9259   -15815.364    92.314559    285.84237   -63.015475    301.45243   -53.195176    -46.21734    -34.47444      46.7237      46.7237      46.7237           90           90           90     102002.7    174.75978 
  980000       979500   -10781.618    889.24698   -11670.865    4116.6556    -15787.52    90.869307    141.64019    195.97988    322.23377    -33.15299    90.759843   -19.115377      46.7237      46.7237      46.7237           90           90           90     102002.7    219.95128 
  981000       980500   -10787.858      890.068   -11677.926    4138.7862   -15816.712    90.953204    55.755199    202.77418    152.53657    190.51482   -177.70826    43.359554      46.7237      46.7237      46.7237           90           90           90     102002.7    137.02198 
  982000       981500   -10766.777    907.07114   -11673.849    4133.8932   -15807.742    92.690701    23.919281    229.15682    387.99813   -48.294887   -16.305719   -198.03598      46.7237      46.7237      46.7237           90           90           90     102002.7    213.69141 
  983000       982500   -10784.871    878.45907    -11663.33    4146.0227   -15809.352    89.766925    43.553295    194.94909    137.82455   -133.58491   -4.1973271   -186.69566      46.7237      46.7237      46.7237           90           90           90     102002.7    125.44231 
  984000       983500   -10775.912    901.42932   -11677.341    4143.9994    -15821.34    92.114181    192.22171    43.842785    397.96964   -119.56127    53.714417   -217.15794      46.7237      46.7237      46.7237           90           90           90     102002.7    211.34471 
  985000       984500   -10769.385    905.05383   -11674.439    4133.3754   -15807.815    92.484558   -137.28575    149.77865    150.20902   -155.14762   -52.894906   -88.888482      46.7237      46.7237      46.7237           90           90           90     102002.7    54.233972 
  986000       985500   -10783.519     889.9357   -11673.455    4132.9005   -15806.355    90.939685    -182.4723     4.997199     278.6751    282.77818   -110.24509     77.14617      46.7237      46.7237      46.7237           90           90           90     102002.7    33.733335 
  987000       986500   -10764.754    885.72338   -11650.477     4156.411   -15806.888    90.509241    156.24469     130.0383    21.505181    115.65812    15.304382   -16.147854      46.7237      46.7237      46.7237           90           90           90     102002.7    102.59606 
  988000       987500    -10776.77     887.5747   -11664.345    4143.4128   -15807.757    90.698422    335.72028   -112.60133    542.15685    -27.54209    28.584575    93.482037      46.7237      46.7237      46.7237           90           90           90     102002.7    255.09193 
  989000       988500   -10776.716    880.68834   -11657.404    4147.6148   -15805.019    89.994726    169.26651   -248.19022    269.56508   -111.76483    134.08387    27.024006      46.7237      46.7237      46.7237           90           90           90     102002.7    63.547123 
  990000       989500    -10775.47    895.04497   -11670.515    4129.8338   -15800.349    91.461785    420.42079    228.11037    470.59319   -48.290302    49.022937    1.6634301      46.7237      46.7237      46.7237           90           90           90     102002.7    373.04145 
  991000       990500   -10783.098    891.91983   -11675.018    4153.1537   -15828.171    91.142437    104.59791   -308.44064    503.10105    50.245985   -5.0281867    57.978716      46.7237      46.7237      46.7237           90           90           90     102002.7    99.752773 
  992000       991500    -10763.12    898.30723   -11661.427    4135.3882   -15796.815    91.795145     582.9572    262.31221      555.186    100.45962   -173.75299    -87.87629      46.7237      46.7237      46.7237           90           90           90     102002.7    466.81847 
  993000       992500   -10812.833    865.09908   -11677.932    4135.3811   -15813.313     88.40171    293.17825   -156.93086    192.28796     97.74423   -42.926545   -169.19887      46.7237      46.7237      46.7237           90           90           90     102002.7    109.51178 
  994000       993500   -10766.421    887.70889    -11654.13    4147.7258   -15801.856    90.712134    -219.4305    299.10941    133.21013   -76.428255    126.88168   -281.48574      46.7237      46.7237      46.7237           90           90           90     102002.7    70.963014 
  995000       994500   -10742.532    906.43147   -11648.964    4162.2891   -15811.253    92.625335   -11.721004    351.10584    619.88513    190.55306     280.3227    101.37096      46.7237      46.7237      46.7237           90           90           90     102002.7    319.75665 
  996000       995500   -10770.655    903.44165   -11674.096    4148.8315   -15822.928    92.319815    358.04409    151.66504    471.38203   -141.50626    144.83106    156.18084      46.7237      46.7237      46.7237           90           90           90     102002.7    327.03039 
  997000       996500   -10774.018    887.80314   -11661.821    4153.6836   -15815.504    90.721765    151.56143    332.06537    548.83241   -274.10932    183.88086   -113.45111      46.7237      46.7237      46.7237           90           90           90     102002.7    344.15307 
  998000       997500   -10780.294     876.4897   -11656.784     4149.061   -15805.845    89.565681   -14.356024    86.533706    525.82515    318.66708   -218.95533   -67.479142      46.7237      46.7237      46.7237           90           90           90     102002.7    199.33428 
  999000       998500    -10767.56    882.61977    -11650.18    4138.6898    -15788.87    90.192093    161.87711   -94.658466    492.25476    66.760668   -23.736019   -89.318632      46.7237      46.7237      46.7237           90           90           90     102002.7    186.49113 
 1000000       999500   -10737.051    923.37677   -11660.428    4150.8726   -15811.301    94.356921    451.83363    106.06139    283.01788   -182.34204    -1.073922    73.549598      46.7237      46.7237      46.7237           90           90           90     102002.7     280.3043 
 1000500      1000000   -10769.607    882.61182   -11652.219    4152.0904   -15804.309    90.191281   -183.04095    138.23553   -1.5998541    144.48157    225.90689   -154.24269      46.7237      46.7237      46.7237           90           90           90     102002.7   -15.468423 
Loop time of 2357.66 on 16 procs for 500000 steps with 3284 atoms

Performance: 18.323 ns/day, 1.310 hours/ns, 212.075 timesteps/s
99.8% CPU use with 16 MPI tasks x no OpenMP threads

MPI task timing breakdown:
Section |  min time  |  avg time  |  max time  |%varavg| %total
---------------------------------------------------------------
Pair    | 1222.7     | 1519.9     | 1910.2     | 511.0 | 64.46
Bond    | 97.155     | 184.18     | 248.66     | 279.6 |  7.81
Neigh   | 15.25      | 15.286     | 15.324     |   0.6 |  0.65
Comm    | 184.07     | 606.42     | 991.06     | 907.1 | 25.72
Output  | 0.13338    | 0.14047    | 0.14116    |   0.5 |  0.01
Modify  | 23.84      | 24.801     | 26.197     |  15.0 |  1.05
Other   |            | 6.968      |            |       |  0.30

Nlocal:    205.25 ave 251 max 156 min
Histogram: 2 0 1 3 2 2 2 2 0 2
Nghost:    4134.56 ave 4190 max 4071 min
Histogram: 1 1 2 2 0 3 3 2 0 2
Neighs:    11472.8 ave 15106 max 6963 min
Histogram: 2 1 1 1 3 0 3 0 1 4

Total # of neighbors = 183564
Ave neighs/atom = 55.8965
Ave special neighs/atom = 3.50792
Neighbor list builds = 4123
Dangerous builds = 0
Total wall time: 1:12:51
