LAMMPS (30 Mar 2018)
Reading data file ...
  orthogonal box = (0 0 0) to (46.7237 46.7237 46.7237)
  2 by 3 by 4 MPI processor grid
  reading atoms ...
  1733 atoms
  scanning bonds ...
  5 = max bonds/atom
  scanning angles ...
  10 = max angles/atom
  scanning dihedrals ...
  32 = max dihedrals/atom
  scanning impropers ...
  3 = max impropers/atom
  reading bonds ...
  2064 bonds
  reading angles ...
  3696 angles
  reading dihedrals ...
  6240 dihedrals
  reading impropers ...
  1008 impropers
Finding 1-2 1-3 1-4 neighbors ...
  special bond factors lj:   0          0          0         
  special bond factors coul: 0          0          0         
  5 = max # of 1-2 neighbors
  8 = max # of 1-3 neighbors
  20 = max # of 1-4 neighbors
  19 = max # of special neighbors
Finding 1-2 1-3 1-4 neighbors ...
  special bond factors lj:   0          0          1         
  special bond factors coul: 1          1          1         
  5 = max # of 1-2 neighbors
  8 = max # of 1-3 neighbors
  19 = max # of special neighbors
WARNING: Using 'neigh_modify every 1 delay 0 check yes' setting during minimization (../min.cpp:168)
Neighbor list info ...
  update every 1 steps, delay 0 steps, check yes
  max neighbors/atom: 2000, page size: 100000
  master list distance cutoff = 16
  ghost atom cutoff = 16
  binsize = 8, bins = 6 6 6
  3 neighbor lists, perpetual/occasional/extra = 3 0 0
  (1) pair buck6d/coul/gauss/dsf, perpetual, skip from (3)
      attributes: half, newton on
      pair build: skip
      stencil: none
      bin: none
  (2) pair lj/cut, perpetual, skip from (3)
      attributes: half, newton on
      pair build: skip
      stencil: none
      bin: none
  (3) neighbor class addition, perpetual
      attributes: half, newton on
      pair build: half/bin/newton
      stencil: half/bin/3d/newton
      bin: standard
Setting up cg style minimization ...
  Unit style    : real
  Current step  : 0
WARNING: Inconsistent image flags (../domain.cpp:786)
Per MPI rank memory allocation (min/avg/max) = 22.87 | 23.28 | 24.42 Mbytes
Step Temp E_pair E_mol TotEng Press 
       0            0   -11527.577    6482.8914   -5044.6856    6287.2347 
     508            0   -11537.196     3725.069   -7812.1275   -439.65691 
Loop time of 1.23106 on 24 procs for 508 steps with 1733 atoms

99.8% CPU use with 24 MPI tasks x no OpenMP threads

Minimization stats:
  Stopping criterion = max force evaluations
  Energy initial, next-to-last, final = 
        -5044.68563881     -7812.10180555     -7812.12746131
  Force two-norm initial, final = 2576.96 7.76243
  Force max component initial, final = 151.978 1.03252
  Final line search alpha, max atom move = 0.00566138 0.0058455
  Iterations, force evaluations = 508 1000

MPI task timing breakdown:
Section |  min time  |  avg time  |  max time  |%varavg| %total
---------------------------------------------------------------
Pair    | 0.43682    | 0.60343    | 0.77451    |  10.6 | 49.02
Bond    | 0.11982    | 0.15735    | 0.19653    |   4.8 | 12.78
Neigh   | 0.0072965  | 0.0074831  | 0.0076737  |   0.1 |  0.61
Comm    | 0.24614    | 0.41919    | 0.59126    |  12.2 | 34.05
Output  | 0          | 0          | 0          |   0.0 |  0.00
Modify  | 0          | 0          | 0          |   0.0 |  0.00
Other   |            | 0.0436     |            |       |  3.54

Nlocal:    72.2083 ave 90 max 58 min
Histogram: 1 2 2 5 3 6 3 1 0 1
Nghost:    1971.04 ave 2147 max 1872 min
Histogram: 16 0 0 0 0 0 0 0 0 8
Neighs:    7631.75 ave 11290 max 4148 min
Histogram: 1 2 4 2 2 3 5 2 2 1

Total # of neighbors = 183162
Ave neighs/atom = 105.691
Ave special neighs/atom = 6.64743
Neighbor list builds = 14
Dangerous builds = 0
Neighbor list info ...
  update every 1 steps, delay 10 steps, check yes
  max neighbors/atom: 2000, page size: 100000
  master list distance cutoff = 16
  ghost atom cutoff = 16
  binsize = 8, bins = 6 6 6
  3 neighbor lists, perpetual/occasional/extra = 3 0 0
  (1) pair buck6d/coul/gauss/dsf, perpetual, skip from (3)
      attributes: half, newton on
      pair build: skip
      stencil: none
      bin: none
  (2) pair lj/cut, perpetual, skip from (3)
      attributes: half, newton on
      pair build: skip
      stencil: none
      bin: none
  (3) neighbor class addition, perpetual
      attributes: half, newton on
      pair build: half/bin/newton
      stencil: half/bin/3d/newton
      bin: standard
Setting up Verlet run ...
  Unit style    : real
  Current step  : 508
  Time step     : 1
WARNING: Inconsistent image flags (../domain.cpp:786)
Per MPI rank memory allocation (min/avg/max) = 22.52 | 22.69 | 23.31 Mbytes
Step Temp PotEng TotEng Press Volume Lx Ly Lz 
     508          110   -7812.1275   -7244.2235   -185.15207     102002.7      46.7237      46.7237      46.7237 
    1000     93.05817   -7290.6424   -6810.2052   -630.12236     102002.7      46.7237      46.7237      46.7237 
    2000    108.26739   -7203.8681   -6644.9093   -532.13799     102002.7      46.7237      46.7237      46.7237 
    3000    111.03079   -7248.3826   -6675.1569   -698.93063     102002.7      46.7237      46.7237      46.7237 
    4000    104.34553    -7215.768   -6677.0568   -394.81081     102002.7      46.7237      46.7237      46.7237 
    5000    110.44204   -7224.3049   -6654.1188    -772.5799     102002.7      46.7237      46.7237      46.7237 
    6000    110.36389   -7241.6724   -6671.8898   -808.89917     102002.7      46.7237      46.7237      46.7237 
    7000      108.406   -7220.7945     -6661.12   -557.06833     102002.7      46.7237      46.7237      46.7237 
    8000    107.45061   -7237.7787   -6683.0367   -840.46017     102002.7      46.7237      46.7237      46.7237 
    9000    109.09287   -7236.7337    -6673.513   -572.52745     102002.7      46.7237      46.7237      46.7237 
   10000    108.41757   -7223.4344   -6663.7001   -513.36904     102002.7      46.7237      46.7237      46.7237 
   11000    106.91055   -7235.4678    -6683.514    -555.2167     102002.7      46.7237      46.7237      46.7237 
   12000    110.89978    -7234.577   -6662.0277   -648.16048     102002.7      46.7237      46.7237      46.7237 
   13000    110.05311   -7251.1567   -6682.9786   -536.39441     102002.7      46.7237      46.7237      46.7237 
   14000    106.99909    -7209.478   -6657.0671   -322.95397     102002.7      46.7237      46.7237      46.7237 
   15000    110.93393   -7251.5435   -6678.8179   -585.16523     102002.7      46.7237      46.7237      46.7237 
   16000    113.08172   -7238.3178   -6654.5037   -731.18795     102002.7      46.7237      46.7237      46.7237 
   17000    111.58533   -7247.9637   -6671.8751    -501.8039     102002.7      46.7237      46.7237      46.7237 
   18000    106.06099   -7232.3742   -6684.8064   -705.72351     102002.7      46.7237      46.7237      46.7237 
   19000    109.72159   -7201.0997   -6634.6331   -887.68183     102002.7      46.7237      46.7237      46.7237 
   20000    108.70816   -7222.2081   -6660.9737   -682.99795     102002.7      46.7237      46.7237      46.7237 
   21000    109.55123   -7236.2621   -6670.6751   -674.58108     102002.7      46.7237      46.7237      46.7237 
   22000    113.21999   -7230.7156   -6646.1876   -1001.3505     102002.7      46.7237      46.7237      46.7237 
   23000    103.12361   -7237.9871   -6705.5843   -870.97325     102002.7      46.7237      46.7237      46.7237 
   24000    106.35806   -7223.0902   -6673.9888   -831.57593     102002.7      46.7237      46.7237      46.7237 
   25000    114.42802   -7247.8761   -6657.1113   -655.67921     102002.7      46.7237      46.7237      46.7237 
   26000    109.07123   -7229.2399   -6666.1309   -722.10091     102002.7      46.7237      46.7237      46.7237 
   27000    112.03449   -7238.7956   -6660.3881   -982.69631     102002.7      46.7237      46.7237      46.7237 
   28000    110.88842   -7222.5023   -6650.0117   -846.89566     102002.7      46.7237      46.7237      46.7237 
   29000    109.63943   -7239.9215   -6673.8791   -559.47112     102002.7      46.7237      46.7237      46.7237 
   30000    114.32604    -7231.549   -6641.3107   -311.61604     102002.7      46.7237      46.7237      46.7237 
   31000    112.67456   -7238.0359   -6656.3238   -609.88198     102002.7      46.7237      46.7237      46.7237 
   32000    106.47449   -7246.0143   -6696.3117   -863.64279     102002.7      46.7237      46.7237      46.7237 
   33000    110.63579   -7236.5633    -6665.377   -773.05729     102002.7      46.7237      46.7237      46.7237 
   34000    108.48244   -7214.9848   -6654.9157   -720.11784     102002.7      46.7237      46.7237      46.7237 
   35000    107.77912    -7239.414   -6682.9759   -475.27659     102002.7      46.7237      46.7237      46.7237 
   36000     110.2651   -7237.7296    -6668.457   -586.74873     102002.7      46.7237      46.7237      46.7237 
   37000    109.31632   -7235.3377   -6670.9634    -604.5633     102002.7      46.7237      46.7237      46.7237 
   38000    110.23048   -7249.7411   -6680.6472   -469.96161     102002.7      46.7237      46.7237      46.7237 
   39000    110.69643    -7243.989   -6672.4896    -434.7183     102002.7      46.7237      46.7237      46.7237 
   40000    112.87252   -7228.6025   -6645.8684   -647.23886     102002.7      46.7237      46.7237      46.7237 
   41000    112.28421   -7242.3631   -6662.6663    -717.1678     102002.7      46.7237      46.7237      46.7237 
   42000    109.25314   -7240.6957   -6676.6476   -531.67242     102002.7      46.7237      46.7237      46.7237 
   43000    110.41314   -7245.9215   -6675.8846   -692.74802     102002.7      46.7237      46.7237      46.7237 
   44000    111.69412   -7231.5793    -6654.929   -481.14527     102002.7      46.7237      46.7237      46.7237 
   45000    115.26922   -7223.3751   -6628.2675   -674.69255     102002.7      46.7237      46.7237      46.7237 
   46000    112.70646   -7251.5597    -6669.683    -914.1968     102002.7      46.7237      46.7237      46.7237 
   47000    110.42006   -7265.2764   -6695.2038   -727.56986     102002.7      46.7237      46.7237      46.7237 
   48000    111.46874   -7244.6167     -6669.13   -741.95247     102002.7      46.7237      46.7237      46.7237 
   49000    107.45725   -7223.8809   -6669.1046   -519.85285     102002.7      46.7237      46.7237      46.7237 
   50000    108.19874   -7231.7192   -6673.1147   -602.09704     102002.7      46.7237      46.7237      46.7237 
   51000    108.01559   -7245.0394   -6687.3805    -529.8696     102002.7      46.7237      46.7237      46.7237 
   52000    111.89872   -7234.9619   -6657.2553   -439.77389     102002.7      46.7237      46.7237      46.7237 
   53000    107.75376    -7224.775   -6668.4679   -750.45313     102002.7      46.7237      46.7237      46.7237 
   54000    107.71241   -7234.5381   -6678.4444   -643.95497     102002.7      46.7237      46.7237      46.7237 
   55000    109.16211   -7226.8961    -6663.318   -814.54954     102002.7      46.7237      46.7237      46.7237 
   56000     112.8742   -7226.5033   -6643.7606   -736.93281     102002.7      46.7237      46.7237      46.7237 
   57000    110.58615   -7232.8289   -6661.8989   -806.76455     102002.7      46.7237      46.7237      46.7237 
   58000    109.87477   -7253.4273   -6686.1699   -758.90607     102002.7      46.7237      46.7237      46.7237 
   59000    109.08837     -7237.95   -6674.7526   -735.06882     102002.7      46.7237      46.7237      46.7237 
   60000    108.87251   -7237.9745   -6675.8915   -664.43823     102002.7      46.7237      46.7237      46.7237 
   61000    108.30781   -7227.5055   -6668.3379   -460.40867     102002.7      46.7237      46.7237      46.7237 
   62000    110.62228   -7243.5008   -6672.3842   -387.30392     102002.7      46.7237      46.7237      46.7237 
   63000    110.03209   -7232.3422   -6664.2726   -308.63218     102002.7      46.7237      46.7237      46.7237 
   64000    107.04081   -7232.0734   -6679.4471   -586.43076     102002.7      46.7237      46.7237      46.7237 
   65000    110.12569   -7266.0627   -6697.5099   -626.33601     102002.7      46.7237      46.7237      46.7237 
   66000    111.36728    -7237.325   -6662.3622   -630.29199     102002.7      46.7237      46.7237      46.7237 
   67000    107.89132    -7245.309   -6688.2917   -428.73131     102002.7      46.7237      46.7237      46.7237 
   68000    110.90113   -7232.2481   -6659.6918   -430.08214     102002.7      46.7237      46.7237      46.7237 
   69000    113.59412   -7235.7994   -6649.3399   -786.87994     102002.7      46.7237      46.7237      46.7237 
   70000    111.76193   -7242.9623   -6665.9619   -489.66708     102002.7      46.7237      46.7237      46.7237 
   71000    109.71065   -7242.1926   -6675.7825   -595.27108     102002.7      46.7237      46.7237      46.7237 
   72000    109.97769   -7195.2306   -6627.4418   -664.68738     102002.7      46.7237      46.7237      46.7237 
   73000    111.67131   -7233.3776    -6656.845   -486.77448     102002.7      46.7237      46.7237      46.7237 
   74000    108.57364   -7246.8945   -6686.3546   -559.79177     102002.7      46.7237      46.7237      46.7237 
   75000    111.54925   -7233.1549   -6657.2526   -488.45319     102002.7      46.7237      46.7237      46.7237 
   76000    107.07184   -7238.3562   -6685.5697   -482.21211     102002.7      46.7237      46.7237      46.7237 
   77000    104.55493   -7241.2422   -6701.4499   -674.53048     102002.7      46.7237      46.7237      46.7237 
   78000    112.78108   -7237.5651   -6655.3031   -661.07215     102002.7      46.7237      46.7237      46.7237 
   79000    109.65657   -7220.5309      -6654.4   -434.94009     102002.7      46.7237      46.7237      46.7237 
   80000     113.8931   -7253.0839   -6665.0808   -415.58179     102002.7      46.7237      46.7237      46.7237 
   81000    112.00161   -7217.5466   -6639.3089   -755.79547     102002.7      46.7237      46.7237      46.7237 
   82000    110.77667   -7242.9782   -6671.0645   -549.86819     102002.7      46.7237      46.7237      46.7237 
   83000    110.81553   -7226.9956   -6654.8812   -981.02581     102002.7      46.7237      46.7237      46.7237 
   84000    108.85612   -7227.2883     -6665.29   -969.39267     102002.7      46.7237      46.7237      46.7237 
   85000    106.77946   -7248.4848   -6697.2078   -688.32288     102002.7      46.7237      46.7237      46.7237 
   86000     113.4661   -7250.3897   -6664.5911   -939.58362     102002.7      46.7237      46.7237      46.7237 
   87000    111.50991   -7238.1824   -6662.4831   -662.82508     102002.7      46.7237      46.7237      46.7237 
   88000    108.72986   -7245.4677   -6684.1213   -954.34882     102002.7      46.7237      46.7237      46.7237 
   89000    114.15096   -7211.9841   -6622.6498   -711.22884     102002.7      46.7237      46.7237      46.7237 
   90000    112.74298    -7254.778   -6672.7127   -626.54057     102002.7      46.7237      46.7237      46.7237 
   91000    111.52662   -7226.5655     -6650.78    -779.1086     102002.7      46.7237      46.7237      46.7237 
   92000    108.12322   -7256.4915    -6698.277   -705.69201     102002.7      46.7237      46.7237      46.7237 
   93000    110.37948   -7230.1019   -6660.2388   -655.88665     102002.7      46.7237      46.7237      46.7237 
   94000    109.44179   -7217.6668   -6652.6448   -604.86522     102002.7      46.7237      46.7237      46.7237 
   95000    108.00104   -7236.2136   -6678.6298   -649.13828     102002.7      46.7237      46.7237      46.7237 
   96000    109.89314   -7224.7986   -6657.4464   -435.62053     102002.7      46.7237      46.7237      46.7237 
   97000    110.98747   -7221.5178   -6648.5158   -632.50888     102002.7      46.7237      46.7237      46.7237 
   98000    112.42141   -7229.9519   -6649.5468   -653.41446     102002.7      46.7237      46.7237      46.7237 
   99000    111.14691   -7225.1113   -6651.2862   -599.98499     102002.7      46.7237      46.7237      46.7237 
  100000    109.37522   -7238.3192   -6673.6408   -678.56537     102002.7      46.7237      46.7237      46.7237 
  101000    110.94602   -7216.8214   -6644.0334   -646.42183     102002.7      46.7237      46.7237      46.7237 
  102000    110.07336   -7237.8715   -6669.5889   -703.80804     102002.7      46.7237      46.7237      46.7237 
  103000    107.51892   -7233.4826   -6678.3879   -685.43073     102002.7      46.7237      46.7237      46.7237 
  104000    113.06585   -7240.9326   -6657.2004   -793.91254     102002.7      46.7237      46.7237      46.7237 
  105000    108.09571    -7249.789   -6691.7165   -726.77444     102002.7      46.7237      46.7237      46.7237 
  106000    108.47232   -7229.2029    -6669.186   -550.61062     102002.7      46.7237      46.7237      46.7237 
  107000    106.90458   -7237.0291    -6685.106   -798.98322     102002.7      46.7237      46.7237      46.7237 
  108000    112.52457   -7236.1894   -6655.2517   -626.64798     102002.7      46.7237      46.7237      46.7237 
  109000    110.68433   -7237.0728   -6665.6358   -639.68118     102002.7      46.7237      46.7237      46.7237 
  110000    111.25643    -7233.582   -6659.1914   -813.76281     102002.7      46.7237      46.7237      46.7237 
  111000    111.14389   -7248.3964   -6674.5868   -450.06746     102002.7      46.7237      46.7237      46.7237 
  112000    109.72457   -7247.6455   -6681.1635   -775.93008     102002.7      46.7237      46.7237      46.7237 
  113000    110.69374   -7197.2103   -6625.7248   -511.65743     102002.7      46.7237      46.7237      46.7237 
  114000    108.70278   -7233.1544   -6671.9477   -408.97614     102002.7      46.7237      46.7237      46.7237 
  115000     108.0819   -7249.7517   -6691.7505   -703.98733     102002.7      46.7237      46.7237      46.7237 
  116000     108.9406   -7224.0693   -6661.6348   -472.17386     102002.7      46.7237      46.7237      46.7237 
  117000    106.71984   -7233.7128   -6682.7436    -773.4836     102002.7      46.7237      46.7237      46.7237 
  118000    109.04177   -7221.7477   -6658.7908   -707.40201     102002.7      46.7237      46.7237      46.7237 
  119000    111.00896   -7227.3757   -6654.2628   -834.09399     102002.7      46.7237      46.7237      46.7237 
  120000    107.16482   -7234.4821   -6681.2155   -958.35845     102002.7      46.7237      46.7237      46.7237 
  121000    105.95883   -7231.5959   -6684.5556   -514.41643     102002.7      46.7237      46.7237      46.7237 
  122000    109.10722   -7236.1145   -6672.8198    -695.1328     102002.7      46.7237      46.7237      46.7237 
  123000    107.15123   -7227.8711   -6674.6747   -463.54257     102002.7      46.7237      46.7237      46.7237 
  124000    108.38741   -7240.8728   -6681.2943   -674.92209     102002.7      46.7237      46.7237      46.7237 
  125000    107.40073   -7222.9637   -6668.4792   -693.09998     102002.7      46.7237      46.7237      46.7237 
  126000    109.97275    -7232.145   -6664.3818   -587.88021     102002.7      46.7237      46.7237      46.7237 
  127000    107.66356   -7248.6434   -6692.8019   -755.83301     102002.7      46.7237      46.7237      46.7237 
  128000    110.83872   -7225.5198   -6653.2858   -537.83541     102002.7      46.7237      46.7237      46.7237 
  129000    112.56856   -7221.8721   -6640.7073   -857.35133     102002.7      46.7237      46.7237      46.7237 
  130000    106.38425   -7224.3246    -6675.088   -513.98619     102002.7      46.7237      46.7237      46.7237 
  131000    102.46264   -7227.2205   -6698.2302   -842.97309     102002.7      46.7237      46.7237      46.7237 
  132000    108.23362   -7214.4356    -6655.651   -489.78508     102002.7      46.7237      46.7237      46.7237 
  133000       109.53   -7265.5797   -6700.1022   -491.89111     102002.7      46.7237      46.7237      46.7237 
  134000    109.76265   -7230.1478   -6663.4693   -498.36804     102002.7      46.7237      46.7237      46.7237 
  135000     110.8061   -7237.3396    -6665.274   -453.16622     102002.7      46.7237      46.7237      46.7237 
  136000    109.47582   -7221.7091   -6656.5114   -599.61352     102002.7      46.7237      46.7237      46.7237 
  137000    111.61859   -7231.0057   -6654.7454   -314.71945     102002.7      46.7237      46.7237      46.7237 
  138000    108.98535   -7237.1324   -6674.4668   -368.97949     102002.7      46.7237      46.7237      46.7237 
  139000    108.74092   -7246.9544   -6685.5508   -824.74062     102002.7      46.7237      46.7237      46.7237 
  140000    112.93209    -7228.038   -6644.9964   -533.73231     102002.7      46.7237      46.7237      46.7237 
  141000    107.32976   -7238.2684   -6684.1502   -698.17922     102002.7      46.7237      46.7237      46.7237 
  142000    111.87479    -7227.907    -6650.324   -796.99009     102002.7      46.7237      46.7237      46.7237 
  143000     110.0738   -7238.8022   -6670.5172   -661.81022     102002.7      46.7237      46.7237      46.7237 
  144000    108.55385   -7233.1617   -6672.7239   -656.11861     102002.7      46.7237      46.7237      46.7237 
  145000    112.07605   -7230.5127   -6651.8906   -496.30256     102002.7      46.7237      46.7237      46.7237 
  146000    109.36834   -7232.5618   -6667.9189   -507.61897     102002.7      46.7237      46.7237      46.7237 
  147000    107.12305   -7244.1051   -6691.0542   -736.92796     102002.7      46.7237      46.7237      46.7237 
  148000    111.20443   -7243.5056   -6669.3835   -417.53327     102002.7      46.7237      46.7237      46.7237 
  149000    111.41846   -7239.2846   -6664.0575   -870.84907     102002.7      46.7237      46.7237      46.7237 
  150000    110.99488   -7219.5686   -6646.5284   -571.40507     102002.7      46.7237      46.7237      46.7237 
  151000    106.50364   -7239.6239   -6689.7708   -660.87618     102002.7      46.7237      46.7237      46.7237 
  152000    111.78374   -7223.2393   -6646.1263   -676.00231     102002.7      46.7237      46.7237      46.7237 
  153000    109.50318   -7243.7675   -6678.4286   -791.28169     102002.7      46.7237      46.7237      46.7237 
  154000    110.33456   -7248.0597   -6678.4286   -470.23352     102002.7      46.7237      46.7237      46.7237 
  155000    106.18313   -7218.4068   -6670.2085   -694.67931     102002.7      46.7237      46.7237      46.7237 
  156000    110.66562   -7226.6953    -6655.355   -816.02345     102002.7      46.7237      46.7237      46.7237 
  157000    109.12096   -7247.3823   -6684.0166   -606.02371     102002.7      46.7237      46.7237      46.7237 
  158000    109.82646    -7242.706    -6675.698   -793.49977     102002.7      46.7237      46.7237      46.7237 
  159000    108.99096   -7232.1525    -6669.458   -735.65929     102002.7      46.7237      46.7237      46.7237 
  160000    109.45994   -7238.7242   -6673.6084   -821.21935     102002.7      46.7237      46.7237      46.7237 
  161000    110.59832   -7226.8623   -6655.8694   -652.53569     102002.7      46.7237      46.7237      46.7237 
  162000    112.15677   -7251.3229   -6672.2841   -617.33705     102002.7      46.7237      46.7237      46.7237 
  163000    110.53266   -7249.0152   -6678.3612   -538.21106     102002.7      46.7237      46.7237      46.7237 
  164000     106.2246   -7224.7201   -6676.3077   -563.78518     102002.7      46.7237      46.7237      46.7237 
  165000    107.22608   -7240.9251   -6687.3422   -733.67842     102002.7      46.7237      46.7237      46.7237 
  166000     113.9631   -7214.8305    -6626.466   -917.26505     102002.7      46.7237      46.7237      46.7237 
  167000    109.94964   -7234.9839   -6667.3399    -606.1691     102002.7      46.7237      46.7237      46.7237 
  168000    111.57645   -7222.2867   -6646.2439   -731.25695     102002.7      46.7237      46.7237      46.7237 
  169000    109.92207   -7225.4785   -6657.9769   -777.49929     102002.7      46.7237      46.7237      46.7237 
  170000    109.78749    -7253.693   -6686.8862   -552.36048     102002.7      46.7237      46.7237      46.7237 
  171000    110.47668   -7220.9063   -6650.5414   -423.50267     102002.7      46.7237      46.7237      46.7237 
  172000    108.64525   -7226.0428   -6665.1331   -541.03942     102002.7      46.7237      46.7237      46.7237 
  173000    109.28091   -7229.2951   -6665.1037   -777.35298     102002.7      46.7237      46.7237      46.7237 
  174000    110.79586   -7231.1426   -6659.1299   -693.27632     102002.7      46.7237      46.7237      46.7237 
  175000    108.76675   -7245.4527   -6683.9157    -710.4376     102002.7      46.7237      46.7237      46.7237 
  176000     112.4406   -7225.2004   -6644.6962   -913.29099     102002.7      46.7237      46.7237      46.7237 
  177000    108.44405   -7247.5059    -6687.635   -408.77557     102002.7      46.7237      46.7237      46.7237 
  178000    112.35581   -7235.5529   -6655.4865   -470.07199     102002.7      46.7237      46.7237      46.7237 
  179000    109.96661   -7232.6079   -6664.8763   -438.69903     102002.7      46.7237      46.7237      46.7237 
  180000    110.79184   -7256.0395   -6684.0475   -438.26475     102002.7      46.7237      46.7237      46.7237 
  181000    111.87783   -7228.7385   -6651.1398   -685.64202     102002.7      46.7237      46.7237      46.7237 
  182000    109.45009   -7231.1132   -6666.0484   -527.74646     102002.7      46.7237      46.7237      46.7237 
  183000    108.60171   -7238.7336   -6678.0487   -634.52285     102002.7      46.7237      46.7237      46.7237 
  184000     109.0743   -7222.4066   -6659.2818   -853.21194     102002.7      46.7237      46.7237      46.7237 
  185000    106.80421    -7220.964   -6669.5592   -846.22119     102002.7      46.7237      46.7237      46.7237 
  186000    108.86738   -7249.8714   -6687.8149   -727.48841     102002.7      46.7237      46.7237      46.7237 
  187000    109.39863   -7236.6546   -6671.8554   -352.16214     102002.7      46.7237      46.7237      46.7237 
  188000    110.84621   -7222.9753   -6650.7026   -467.42753     102002.7      46.7237      46.7237      46.7237 
  189000    114.76218   -7235.1242   -6642.6343    -549.1363     102002.7      46.7237      46.7237      46.7237 
  190000     107.2849   -7238.6547   -6684.7681   -488.20358     102002.7      46.7237      46.7237      46.7237 
  191000    109.27701   -7254.9355   -6690.7642   -488.97691     102002.7      46.7237      46.7237      46.7237 
  192000     108.1145   -7221.8988   -6663.7293    -1033.057     102002.7      46.7237      46.7237      46.7237 
  193000    110.16049   -7254.7407   -6686.0082   -546.20091     102002.7      46.7237      46.7237      46.7237 
  194000    112.84164   -7242.4224   -6659.8478   -775.06009     102002.7      46.7237      46.7237      46.7237 
  195000    108.73696   -7234.2383   -6672.8551   -688.66956     102002.7      46.7237      46.7237      46.7237 
  196000    109.32297   -7253.5538   -6689.1453   -488.48523     102002.7      46.7237      46.7237      46.7237 
  197000    111.08348   -7239.2524   -6665.7547   -551.65429     102002.7      46.7237      46.7237      46.7237 
  198000    108.44182      -7245.6   -6685.7406    -392.0897     102002.7      46.7237      46.7237      46.7237 
  199000    114.26171   -7243.1272   -6653.2211   -597.63457     102002.7      46.7237      46.7237      46.7237 
  200000     109.8614    -7246.186   -6678.9976   -706.34726     102002.7      46.7237      46.7237      46.7237 
  201000    109.65484   -7233.8116   -6667.6896   -606.47073     102002.7      46.7237      46.7237      46.7237 
  202000    110.51685   -7218.1425   -6647.5702   -753.93221     102002.7      46.7237      46.7237      46.7237 
  203000    108.80073    -7235.564   -6673.8517   -515.07607     102002.7      46.7237      46.7237      46.7237 
  204000    106.87972    -7237.332   -6685.5373   -517.81456     102002.7      46.7237      46.7237      46.7237 
  205000    109.91078   -7224.7077   -6657.2644   -469.03008     102002.7      46.7237      46.7237      46.7237 
  206000    106.45561   -7241.1032   -6691.4981    -765.8798     102002.7      46.7237      46.7237      46.7237 
  207000    109.56101   -7229.9726   -6664.3351   -479.56652     102002.7      46.7237      46.7237      46.7237 
  208000    113.20547   -7241.9562   -6657.5032   -475.86177     102002.7      46.7237      46.7237      46.7237 
  209000    109.34024   -7250.2474   -6685.7497   -494.88753     102002.7      46.7237      46.7237      46.7237 
  210000    112.34625   -7259.1223   -6679.1053   -289.19566     102002.7      46.7237      46.7237      46.7237 
  211000    108.43723   -7235.1776   -6675.3419   -679.08009     102002.7      46.7237      46.7237      46.7237 
  212000    108.45977    -7220.307   -6660.3549   -639.60782     102002.7      46.7237      46.7237      46.7237 
  213000    106.97232   -7241.2949   -6689.0222   -800.08301     102002.7      46.7237      46.7237      46.7237 
  214000    108.12985   -7227.1943   -6668.9456   -574.47231     102002.7      46.7237      46.7237      46.7237 
  215000    110.88759   -7203.7455   -6631.2591   -806.47823     102002.7      46.7237      46.7237      46.7237 
  216000    107.94925   -7227.8365   -6670.5201   -1019.3905     102002.7      46.7237      46.7237      46.7237 
  217000    106.64355   -7236.4583   -6685.8829   -630.50832     102002.7      46.7237      46.7237      46.7237 
  218000    111.90002   -7228.8777   -6651.1643   -664.33348     102002.7      46.7237      46.7237      46.7237 
  219000    109.44029   -7235.7551   -6670.7408   -617.73216     102002.7      46.7237      46.7237      46.7237 
  220000    109.78715   -7230.6497   -6663.8446   -786.47604     102002.7      46.7237      46.7237      46.7237 
  221000    110.58072   -7225.8734   -6654.9713   -620.63708     102002.7      46.7237      46.7237      46.7237 
  222000     103.4152   -7226.3079   -6692.3997   -553.68181     102002.7      46.7237      46.7237      46.7237 
  223000    110.47366   -7230.7738   -6660.4245   -844.72697     102002.7      46.7237      46.7237      46.7237 
  224000    111.51073   -7222.5615   -6646.8581   -713.23296     102002.7      46.7237      46.7237      46.7237 
  225000    109.09787   -7232.4062   -6669.1598   -1098.1789     102002.7      46.7237      46.7237      46.7237 
  226000    107.48888   -7237.8241   -6682.8845   -659.04297     102002.7      46.7237      46.7237      46.7237 
  227000    114.44802   -7237.3464   -6646.4784    -719.0628     102002.7      46.7237      46.7237      46.7237 
  228000    109.10336     -7214.32   -6651.0452   -922.67011     102002.7      46.7237      46.7237      46.7237 
  229000    111.79332   -7227.4708   -6650.3084   -594.57761     102002.7      46.7237      46.7237      46.7237 
  230000    109.46781    -7237.959   -6672.8027   -810.21949     102002.7      46.7237      46.7237      46.7237 
  231000    111.61216   -7207.5258   -6631.2987   -677.08859     102002.7      46.7237      46.7237      46.7237 
  232000    108.07326   -7232.2298   -6674.2731   -752.51619     102002.7      46.7237      46.7237      46.7237 
  233000    109.68626   -7221.8499   -6655.5657   -991.76376     102002.7      46.7237      46.7237      46.7237 
  234000    109.68438   -7258.5625   -6692.2881   -412.79894     102002.7      46.7237      46.7237      46.7237 
  235000    113.22606   -7246.6043    -6662.045   -696.01954     102002.7      46.7237      46.7237      46.7237 
  236000      110.976   -7233.1928     -6660.25   -640.18797     102002.7      46.7237      46.7237      46.7237 
  237000    109.30367   -7243.0625   -6678.7535   -574.20067     102002.7      46.7237      46.7237      46.7237 
  238000    111.21281   -7232.2299   -6658.0646   -515.41916     102002.7      46.7237      46.7237      46.7237 
  239000    108.59834   -7218.6839   -6658.0164   -743.83069     102002.7      46.7237      46.7237      46.7237 
  240000    105.98499   -7243.3976   -6696.2222    -424.3247     102002.7      46.7237      46.7237      46.7237 
  241000    111.16778   -7232.4287   -6658.4958   -842.46872     102002.7      46.7237      46.7237      46.7237 
  242000     110.8345   -7246.8387   -6674.6264   -917.99175     102002.7      46.7237      46.7237      46.7237 
  243000    103.51889   -7228.0846   -6693.6411   -692.57943     102002.7      46.7237      46.7237      46.7237 
  244000    109.51667    -7237.064   -6671.6554   -624.48682     102002.7      46.7237      46.7237      46.7237 
  245000    111.39649   -7239.6333   -6664.5196   -631.90801     102002.7      46.7237      46.7237      46.7237 
  246000    114.92148   -7247.4016   -6654.0892   -647.83341     102002.7      46.7237      46.7237      46.7237 
  247000    111.45732   -7249.2441   -6673.8164   -680.52302     102002.7      46.7237      46.7237      46.7237 
  248000    109.55742   -7219.9662   -6654.3472   -841.28392     102002.7      46.7237      46.7237      46.7237 
  249000    109.51866   -7239.6137   -6674.1948   -718.01452     102002.7      46.7237      46.7237      46.7237 
  250000    112.25067   -7235.2161   -6655.6925   -414.33859     102002.7      46.7237      46.7237      46.7237 
  251000    109.60578   -7215.7532   -6649.8845   -483.97355     102002.7      46.7237      46.7237      46.7237 
  252000    109.59143   -7252.0916    -6686.297   -686.18415     102002.7      46.7237      46.7237      46.7237 
  253000    112.40987   -7232.6788   -6652.3333   -758.35879     102002.7      46.7237      46.7237      46.7237 
  254000    109.55915   -7232.9602   -6667.3322   -852.54986     102002.7      46.7237      46.7237      46.7237 
  255000    111.06854   -7236.8507   -6663.4302     -876.079     102002.7      46.7237      46.7237      46.7237 
  256000    108.82577   -7240.2756   -6678.4339   -718.70312     102002.7      46.7237      46.7237      46.7237 
  257000    113.53498   -7228.0153    -6641.861   -635.35574     102002.7      46.7237      46.7237      46.7237 
  258000    110.86116   -7241.9785   -6669.6286   -602.94269     102002.7      46.7237      46.7237      46.7237 
  259000    115.18437   -7242.0403   -6647.3707   -465.27333     102002.7      46.7237      46.7237      46.7237 
  260000    112.66996    -7217.201   -6635.5127   -656.22788     102002.7      46.7237      46.7237      46.7237 
  261000    108.08878   -7232.2821   -6674.2453   -626.13636     102002.7      46.7237      46.7237      46.7237 
  262000    113.62326   -7231.7013   -6645.0913   -937.02047     102002.7      46.7237      46.7237      46.7237 
  263000    111.84162   -7248.4033   -6670.9915   -606.16595     102002.7      46.7237      46.7237      46.7237 
  264000    114.53916   -7234.0839   -6642.7454   -739.78079     102002.7      46.7237      46.7237      46.7237 
  265000    113.30434   -7243.9109   -6658.9475   -679.70069     102002.7      46.7237      46.7237      46.7237 
  266000    108.33713   -7258.0097   -6698.6907   -738.88289     102002.7      46.7237      46.7237      46.7237 
  267000    111.21162   -7246.7782   -6672.6189    -844.6555     102002.7      46.7237      46.7237      46.7237 
  268000    107.63365   -7224.4732   -6668.7862   -625.67559     102002.7      46.7237      46.7237      46.7237 
  269000    112.40436   -7232.0862   -6651.7691   -836.09225     102002.7      46.7237      46.7237      46.7237 
  270000    115.10445   -7242.6491   -6648.3921     -554.208     102002.7      46.7237      46.7237      46.7237 
  271000    107.88994   -7229.9469   -6672.9367   -767.63079     102002.7      46.7237      46.7237      46.7237 
  272000    114.59588   -7224.8802   -6633.2488   -948.41555     102002.7      46.7237      46.7237      46.7237 
  273000    110.28632    -7224.808   -6655.4258   -527.91547     102002.7      46.7237      46.7237      46.7237 
  274000    110.40306   -7242.4633   -6672.4785   -1005.5236     102002.7      46.7237      46.7237      46.7237 
  275000    107.98458   -7231.6904   -6674.1916   -787.12932     102002.7      46.7237      46.7237      46.7237 
  276000    109.05012   -7211.8239    -6648.824   -749.10297     102002.7      46.7237      46.7237      46.7237 
  277000    112.98598   -7220.5256   -6637.2058   -712.03774     102002.7      46.7237      46.7237      46.7237 
  278000    107.26031   -7232.6407   -6678.8812   -597.49015     102002.7      46.7237      46.7237      46.7237 
  279000    108.77007   -7221.4147   -6659.8606   -696.68229     102002.7      46.7237      46.7237      46.7237 
  280000     112.1473   -7244.7044   -6665.7144   -815.17576     102002.7      46.7237      46.7237      46.7237 
  281000    107.75097   -7256.3665   -6700.0738   -947.68396     102002.7      46.7237      46.7237      46.7237 
  282000    108.98968    -7241.141   -6678.4532   -768.87264     102002.7      46.7237      46.7237      46.7237 
  283000    110.48346   -7243.5167   -6673.1168   -927.12068     102002.7      46.7237      46.7237      46.7237 
  284000    108.24502   -7245.1938   -6686.3504   -657.83762     102002.7      46.7237      46.7237      46.7237 
  285000    110.69334   -7228.3127   -6656.8292   -634.06298     102002.7      46.7237      46.7237      46.7237 
  286000    109.91917   -7236.8173   -6669.3307   -459.62332     102002.7      46.7237      46.7237      46.7237 
  287000    110.07514   -7216.8659   -6648.5741   -388.04456     102002.7      46.7237      46.7237      46.7237 
  288000    113.63902   -7234.0298   -6647.3385   -925.96037     102002.7      46.7237      46.7237      46.7237 
  289000    108.70674   -7248.0254   -6686.7982   -743.99725     102002.7      46.7237      46.7237      46.7237 
  290000    112.37917   -7225.1101   -6644.9231   -605.53633     102002.7      46.7237      46.7237      46.7237 
  291000    109.08406   -7236.7396   -6673.5645   -560.75958     102002.7      46.7237      46.7237      46.7237 
  292000    109.05753   -7255.8008   -6692.7625   -580.59498     102002.7      46.7237      46.7237      46.7237 
  293000    111.67632   -7237.6958   -6661.1374   -435.58302     102002.7      46.7237      46.7237      46.7237 
  294000    110.23669   -7243.7709    -6674.645   -432.53954     102002.7      46.7237      46.7237      46.7237 
  295000    114.34706   -7241.5514   -6651.2047   -406.66737     102002.7      46.7237      46.7237      46.7237 
  296000    109.21127   -7231.4086   -6667.5767   -483.09729     102002.7      46.7237      46.7237      46.7237 
  297000    109.61789   -7244.5776   -6678.6464   -389.24789     102002.7      46.7237      46.7237      46.7237 
  298000    111.83818   -7226.1132   -6648.7191   -521.15073     102002.7      46.7237      46.7237      46.7237 
  299000    111.05028   -7235.7196   -6662.3934   -616.94795     102002.7      46.7237      46.7237      46.7237 
  300000    109.80036    -7237.564   -6670.6908   -640.77177     102002.7      46.7237      46.7237      46.7237 
  301000    110.04493   -7215.5697   -6647.4338   -647.99641     102002.7      46.7237      46.7237      46.7237 
  302000    111.46697   -7234.0692   -6658.5917   -478.75732     102002.7      46.7237      46.7237      46.7237 
  303000    112.57903   -7227.9045   -6646.6856   -430.69419     102002.7      46.7237      46.7237      46.7237 
  304000     111.4772   -7245.8287   -6670.2983   -644.33777     102002.7      46.7237      46.7237      46.7237 
  305000    108.40303     -7230.27   -6670.6108   -916.61115     102002.7      46.7237      46.7237      46.7237 
  306000    111.98307   -7239.0043   -6660.8623   -494.29894     102002.7      46.7237      46.7237      46.7237 
  307000    112.43414   -7252.2503   -6671.7794   -419.12685     102002.7      46.7237      46.7237      46.7237 
  308000    112.74616      -7223.6   -6641.5182   -855.85166     102002.7      46.7237      46.7237      46.7237 
  309000    113.11025   -7233.3829   -6649.4215   -654.68389     102002.7      46.7237      46.7237      46.7237 
  310000    109.16022   -7270.0676   -6706.4992   -492.09789     102002.7      46.7237      46.7237      46.7237 
  311000    110.85459   -7225.9035   -6653.5875   -638.70269     102002.7      46.7237      46.7237      46.7237 
  312000    112.73374   -7221.8261   -6639.8085   -976.07535     102002.7      46.7237      46.7237      46.7237 
  313000    111.49738   -7253.0988   -6677.4643   -800.35729     102002.7      46.7237      46.7237      46.7237 
  314000    110.55786   -7250.1688   -6679.3848   -815.42958     102002.7      46.7237      46.7237      46.7237 
  315000    111.47605   -7236.6503   -6661.1259   -511.92928     102002.7      46.7237      46.7237      46.7237 
  316000    111.62233   -7247.9786    -6671.699   -720.06103     102002.7      46.7237      46.7237      46.7237 
  317000    111.12541   -7233.6202   -6659.9061   -575.01273     102002.7      46.7237      46.7237      46.7237 
  318000    111.67373   -7237.7238   -6661.1788   -759.00515     102002.7      46.7237      46.7237      46.7237 
  319000    112.78742   -7248.9688   -6666.6741   -666.80364     102002.7      46.7237      46.7237      46.7237 
  320000    107.95885   -7239.2283   -6681.8623   -619.91719     102002.7      46.7237      46.7237      46.7237 
  321000      110.222   -7227.6227   -6658.5726   -730.65093     102002.7      46.7237      46.7237      46.7237 
  322000    108.79554   -7233.8128   -6672.1272   -497.58418     102002.7      46.7237      46.7237      46.7237 
  323000    111.85781   -7229.8786   -6652.3833   -944.29523     102002.7      46.7237      46.7237      46.7237 
  324000    113.31838   -7240.8622   -6655.8263   -976.49217     102002.7      46.7237      46.7237      46.7237 
  325000    106.52452   -7230.7979    -6680.837   -881.84552     102002.7      46.7237      46.7237      46.7237 
  326000    113.12876   -7237.2846   -6653.2277   -827.18873     102002.7      46.7237      46.7237      46.7237 
  327000    110.00277   -7233.1687   -6665.2504   -614.25011     102002.7      46.7237      46.7237      46.7237 
  328000    108.01228   -7242.8747   -6685.2329   -681.26068     102002.7      46.7237      46.7237      46.7237 
  329000    107.91905   -7222.2359   -6665.0753   -654.44342     102002.7      46.7237      46.7237      46.7237 
  330000    108.07574   -7237.0691   -6679.0996    -170.3089     102002.7      46.7237      46.7237      46.7237 
  331000    108.05649   -7235.0274   -6677.1573   -274.15153     102002.7      46.7237      46.7237      46.7237 
  332000    113.01506    -7243.245   -6659.7751   -654.44087     102002.7      46.7237      46.7237      46.7237 
  333000     107.3096   -7233.7943   -6679.7803   -709.60616     102002.7      46.7237      46.7237      46.7237 
  334000     112.9472    -7227.895   -6644.7754   -490.03659     102002.7      46.7237      46.7237      46.7237 
  335000     106.3765    -7238.249   -6689.0523   -448.99718     102002.7      46.7237      46.7237      46.7237 
  336000    107.89388   -7221.0361   -6664.0056   -628.86466     102002.7      46.7237      46.7237      46.7237 
  337000    109.76958   -7230.3193   -6663.6049   -556.97689     102002.7      46.7237      46.7237      46.7237 
  338000    108.11702   -7232.8927   -6674.7101   -544.93952     102002.7      46.7237      46.7237      46.7237 
  339000     108.9663   -7256.9878   -6694.4206    -509.9104     102002.7      46.7237      46.7237      46.7237 
  340000    112.45554    -7238.665   -6658.0836   -351.30699     102002.7      46.7237      46.7237      46.7237 
  341000    111.21257   -7218.0375   -6643.8733   -672.65419     102002.7      46.7237      46.7237      46.7237 
  342000    112.68361   -7251.1033   -6669.3445   -578.00202     102002.7      46.7237      46.7237      46.7237 
  343000    113.38282   -7220.1049   -6634.7363   -736.26078     102002.7      46.7237      46.7237      46.7237 
  344000    109.16322   -7241.0153   -6677.4315    -547.4205     102002.7      46.7237      46.7237      46.7237 
  345000     109.4431   -7219.0908   -6654.0621   -417.17544     102002.7      46.7237      46.7237      46.7237 
  346000    107.74488   -7219.0435   -6662.7822   -792.39358     102002.7      46.7237      46.7237      46.7237 
  347000    108.74463   -7230.9832   -6669.5605   -751.04139     102002.7      46.7237      46.7237      46.7237 
  348000    115.84279   -7243.9701   -6645.9012   -746.61306     102002.7      46.7237      46.7237      46.7237 
  349000    112.42787   -7266.8519   -6686.4134   -846.11844     102002.7      46.7237      46.7237      46.7237 
  350000    109.07642   -7227.4762   -6664.3405   -809.72995     102002.7      46.7237      46.7237      46.7237 
  351000    110.01341   -7238.3755   -6670.4023   -491.57111     102002.7      46.7237      46.7237      46.7237 
  352000    111.78594   -7232.3823    -6655.258   -554.80227     102002.7      46.7237      46.7237      46.7237 
  353000    112.09159   -7237.5483    -6658.846    -505.0006     102002.7      46.7237      46.7237      46.7237 
  354000    113.00409   -7226.2284    -6642.815   -570.20595     102002.7      46.7237      46.7237      46.7237 
  355000    109.40455   -7231.4328    -6666.603   -373.93648     102002.7      46.7237      46.7237      46.7237 
  356000    109.41244   -7255.8466   -6690.9761   -776.14463     102002.7      46.7237      46.7237      46.7237 
  357000    111.06731   -7236.7845   -6663.3703   -408.70655     102002.7      46.7237      46.7237      46.7237 
  358000    107.26191   -7249.7504   -6695.9826   -902.36312     102002.7      46.7237      46.7237      46.7237 
  359000    110.51746   -7251.4629   -6680.8875   -694.74181     102002.7      46.7237      46.7237      46.7237 
  360000    110.57359   -7213.6281   -6642.7629   -675.92304     102002.7      46.7237      46.7237      46.7237 
  361000    107.99259   -7241.5068   -6683.9667   -897.42118     102002.7      46.7237      46.7237      46.7237 
  362000    109.05629   -7222.7188    -6659.687   -537.28793     102002.7      46.7237      46.7237      46.7237 
  363000    109.96031   -7239.4594   -6671.7604   -501.20793     102002.7      46.7237      46.7237      46.7237 
  364000    112.11677   -7233.2309   -6654.3986   -435.54982     102002.7      46.7237      46.7237      46.7237 
  365000    110.76321   -7240.2738   -6668.4296   -266.74492     102002.7      46.7237      46.7237      46.7237 
  366000     109.0396   -7235.9446   -6672.9989   -632.76113     102002.7      46.7237      46.7237      46.7237 
  367000    108.51791   -7237.5857   -6677.3335    -806.7805     102002.7      46.7237      46.7237      46.7237 
  368000    109.94391   -7230.6466   -6663.0323   -739.81863     102002.7      46.7237      46.7237      46.7237 
  369000    112.41792   -7250.3385   -6669.9514    -952.5866     102002.7      46.7237      46.7237      46.7237 
  370000    109.96884     -7243.72    -6675.977   -670.30726     102002.7      46.7237      46.7237      46.7237 
  371000    111.32371   -7226.0854   -6651.3475   -707.72327     102002.7      46.7237      46.7237      46.7237 
  372000    106.99586   -7226.6203    -6674.226   -500.39612     102002.7      46.7237      46.7237      46.7237 
  373000      110.444   -7222.0029   -6651.8067   -732.71488     102002.7      46.7237      46.7237      46.7237 
  374000    103.41322   -7237.1091   -6703.2111   -578.07066     102002.7      46.7237      46.7237      46.7237 
  375000    110.39295   -7235.4921   -6665.5595   -754.16392     102002.7      46.7237      46.7237      46.7237 
  376000    105.47378   -7254.6465   -6710.1104   -735.00641     102002.7      46.7237      46.7237      46.7237 
  377000    110.52007    -7222.985   -6652.3961    -819.3557     102002.7      46.7237      46.7237      46.7237 
  378000     108.2716   -7238.4831   -6679.5025   -745.49039     102002.7      46.7237      46.7237      46.7237 
  379000    110.38131   -7247.1596    -6677.287   -673.92631     102002.7      46.7237      46.7237      46.7237 
  380000    115.97752   -7208.0368   -6609.2723   -608.55871     102002.7      46.7237      46.7237      46.7237 
  381000    108.46992   -7232.0826   -6672.0781   -817.51241     102002.7      46.7237      46.7237      46.7237 
  382000    109.53948   -7230.2833    -6664.757   -598.42467     102002.7      46.7237      46.7237      46.7237 
  383000    109.54022   -7219.1296   -6653.5994   -607.27915     102002.7      46.7237      46.7237      46.7237 
  384000     109.2054   -7235.5741   -6671.7725   -312.27835     102002.7      46.7237      46.7237      46.7237 
  385000    111.25948   -7228.2606   -6653.8543   -856.34492     102002.7      46.7237      46.7237      46.7237 
  386000    110.96151   -7242.3044   -6669.4364   -430.90065     102002.7      46.7237      46.7237      46.7237 
  387000    109.88554   -7242.0304   -6674.7174   -845.07279     102002.7      46.7237      46.7237      46.7237 
  388000    109.16671   -7238.6261   -6675.0242   -841.29189     102002.7      46.7237      46.7237      46.7237 
  389000    113.53864   -7233.9415   -6647.7683   -444.01477     102002.7      46.7237      46.7237      46.7237 
  390000    111.70162   -7245.3811   -6668.6921   -774.91269     102002.7      46.7237      46.7237      46.7237 
  391000    110.96711   -7253.4699    -6680.573   -536.33663     102002.7      46.7237      46.7237      46.7237 
  392000    114.23617   -7229.2596   -6639.4853   -902.57136     102002.7      46.7237      46.7237      46.7237 
  393000    107.76715   -7245.4766   -6689.1003   -747.27624     102002.7      46.7237      46.7237      46.7237 
  394000    110.31187   -7240.0632   -6670.5492   -770.54829     102002.7      46.7237      46.7237      46.7237 
  395000    111.33221   -7249.3631   -6674.5813   -742.74657     102002.7      46.7237      46.7237      46.7237 
  396000     110.5867   -7250.3561   -6679.4232   -894.10586     102002.7      46.7237      46.7237      46.7237 
  397000    111.39542   -7243.8701   -6668.7619   -707.75197     102002.7      46.7237      46.7237      46.7237 
  398000    110.98817   -7245.0375   -6672.0319   -539.96635     102002.7      46.7237      46.7237      46.7237 
  399000    112.86784   -7242.1473   -6659.4374   -535.19675     102002.7      46.7237      46.7237      46.7237 
  400000    111.52049   -7237.9824   -6662.2286   -654.02182     102002.7      46.7237      46.7237      46.7237 
  401000    113.02283   -7228.2238   -6644.7137   -649.94692     102002.7      46.7237      46.7237      46.7237 
  402000    110.05576   -7253.9163   -6685.7245   -407.84218     102002.7      46.7237      46.7237      46.7237 
  403000    113.04808   -7220.4786   -6636.8381   -493.90934     102002.7      46.7237      46.7237      46.7237 
  404000    108.39314   -7228.2213   -6668.6132   -449.34809     102002.7      46.7237      46.7237      46.7237 
  405000    107.05955   -7255.8416   -6703.1185   -692.37909     102002.7      46.7237      46.7237      46.7237 
  406000    108.88308   -7233.7703   -6671.6328   -461.02158     102002.7      46.7237      46.7237      46.7237 
  407000    112.31581    -7224.592   -6644.7321   -600.37023     102002.7      46.7237      46.7237      46.7237 
  408000    113.68183   -7251.2026   -6664.2903   -636.87071     102002.7      46.7237      46.7237      46.7237 
  409000     108.5864   -7259.0997   -6698.4939   -597.32328     102002.7      46.7237      46.7237      46.7237 
  410000    110.00026   -7222.0473   -6654.1421   -744.33907     102002.7      46.7237      46.7237      46.7237 
  411000    111.78923   -7235.5203    -6658.379   -713.61682     102002.7      46.7237      46.7237      46.7237 
  412000    108.60346   -7252.3627   -6691.6688   -612.47088     102002.7      46.7237      46.7237      46.7237 
  413000    112.94691    -7240.972   -6657.8538   -736.43531     102002.7      46.7237      46.7237      46.7237 
  414000    107.74047   -7241.0859   -6684.8474   -729.52763     102002.7      46.7237      46.7237      46.7237 
  415000    110.10298   -7231.6685   -6663.2329   -606.73758     102002.7      46.7237      46.7237      46.7237 
  416000    106.68454   -7226.4896   -6675.7026   -670.55537     102002.7      46.7237      46.7237      46.7237 
  417000    109.33199   -7237.7065   -6673.2513   -929.90224     102002.7      46.7237      46.7237      46.7237 
  418000    107.87845   -7224.4075   -6667.4567   -776.20582     102002.7      46.7237      46.7237      46.7237 
  419000    113.35553   -7233.1787   -6647.9509   -756.18004     102002.7      46.7237      46.7237      46.7237 
  420000    108.36541   -7262.6114   -6703.1465   -733.96993     102002.7      46.7237      46.7237      46.7237 
  421000    107.50745   -7211.0443   -6656.0089   -826.85009     102002.7      46.7237      46.7237      46.7237 
  422000    105.63063   -7243.5259     -6698.18   -653.21832     102002.7      46.7237      46.7237      46.7237 
  423000    109.60018    -7226.674   -6660.8343   -617.32343     102002.7      46.7237      46.7237      46.7237 
  424000    110.11275   -7245.7525   -6677.2665   -580.08751     102002.7      46.7237      46.7237      46.7237 
  425000    106.53582   -7224.6679   -6674.6488    -646.4168     102002.7      46.7237      46.7237      46.7237 
  426000    111.25365   -7224.4287   -6650.0524    -415.4035     102002.7      46.7237      46.7237      46.7237 
  427000    108.48561   -7230.6066   -6670.5211   -412.65219     102002.7      46.7237      46.7237      46.7237 
  428000     113.7206   -7238.4922   -6651.3797   -405.60537     102002.7      46.7237      46.7237      46.7237 
  429000    106.38299   -7250.2785   -6701.0483   -585.44701     102002.7      46.7237      46.7237      46.7237 
  430000    109.80277   -7231.3857      -6664.5   -363.14796     102002.7      46.7237      46.7237      46.7237 
  431000    107.74854   -7245.9508   -6689.6706    -869.8156     102002.7      46.7237      46.7237      46.7237 
  432000    110.51889   -7227.9253   -6657.3424   -539.07944     102002.7      46.7237      46.7237      46.7237 
  433000    112.76466   -7224.3057   -6642.1285   -742.53205     102002.7      46.7237      46.7237      46.7237 
  434000    109.62553    -7236.158   -6670.1874   -421.96968     102002.7      46.7237      46.7237      46.7237 
  435000     107.5603   -7227.1434   -6671.8351   -564.28857     102002.7      46.7237      46.7237      46.7237 
  436000    110.48499    -7217.552   -6647.1442   -483.91529     102002.7      46.7237      46.7237      46.7237 
  437000    108.68462    -7234.456   -6673.3431   -436.06251     102002.7      46.7237      46.7237      46.7237 
  438000    110.55888   -7252.2949   -6681.5056   -662.34798     102002.7      46.7237      46.7237      46.7237 
  439000    108.68395    -7224.626   -6663.5165   -623.15483     102002.7      46.7237      46.7237      46.7237 
  440000    107.50887   -7236.8629   -6681.8201   -720.16608     102002.7      46.7237      46.7237      46.7237 
  441000    107.12424   -7250.2973   -6697.2402    -863.0867     102002.7      46.7237      46.7237      46.7237 
  442000    110.88737   -7225.3355   -6652.8503    -786.3989     102002.7      46.7237      46.7237      46.7237 
  443000    109.26219   -7236.5468   -6672.4519   -429.32155     102002.7      46.7237      46.7237      46.7237 
  444000     114.4909   -7228.2634    -6637.174   -828.55333     102002.7      46.7237      46.7237      46.7237 
  445000     110.0794   -7234.9099    -6666.596   -713.45267     102002.7      46.7237      46.7237      46.7237 
  446000    110.87532    -7221.277    -6648.854   -880.32844     102002.7      46.7237      46.7237      46.7237 
  447000    112.16307   -7237.8351   -6658.7638   -696.69482     102002.7      46.7237      46.7237      46.7237 
  448000    110.30759   -7261.7395   -6692.2476   -548.68672     102002.7      46.7237      46.7237      46.7237 
  449000    110.39913   -7236.7661   -6666.8015   -959.23839     102002.7      46.7237      46.7237      46.7237 
  450000    112.49431   -7239.4706   -6658.6892    -771.2916     102002.7      46.7237      46.7237      46.7237 
  451000    108.62142   -7244.1781   -6683.3914   -694.14531     102002.7      46.7237      46.7237      46.7237 
  452000     110.3595   -7232.5745   -6662.8146   -706.13987     102002.7      46.7237      46.7237      46.7237 
  453000    109.97915   -7225.3864   -6657.5901   -679.66804     102002.7      46.7237      46.7237      46.7237 
  454000    108.81828   -7235.0401   -6673.2371   -564.09833     102002.7      46.7237      46.7237      46.7237 
  455000    110.11119   -7215.5667   -6647.0887    -263.9342     102002.7      46.7237      46.7237      46.7237 
  456000    109.91891   -7221.7609   -6654.2757   -608.10281     102002.7      46.7237      46.7237      46.7237 
  457000     107.5568   -7235.0383   -6679.7481   -517.47655     102002.7      46.7237      46.7237      46.7237 
  458000     111.9394   -7222.0556    -6644.139   -534.10546     102002.7      46.7237      46.7237      46.7237 
  459000    111.97934   -7246.1221   -6667.9993   -553.22553     102002.7      46.7237      46.7237      46.7237 
  460000    111.57712   -7230.4269   -6654.3807   -227.03593     102002.7      46.7237      46.7237      46.7237 
  461000    109.53249   -7236.8625   -6671.3723     -765.432     102002.7      46.7237      46.7237      46.7237 
  462000    113.36765   -7230.9869   -6645.6966   -578.62151     102002.7      46.7237      46.7237      46.7237 
  463000    111.92029   -7241.2451   -6663.4272   -395.90124     102002.7      46.7237      46.7237      46.7237 
  464000    112.86696   -7231.8804   -6649.1751   -588.21384     102002.7      46.7237      46.7237      46.7237 
  465000    106.45912    -7224.226   -6674.6028   -517.74865     102002.7      46.7237      46.7237      46.7237 
  466000    108.93961   -7232.1621   -6669.7327   -645.15849     102002.7      46.7237      46.7237      46.7237 
  467000    110.48175    -7210.961   -6640.5699   -782.52464     102002.7      46.7237      46.7237      46.7237 
  468000    107.96969   -7229.5745   -6672.1526   -815.46392     102002.7      46.7237      46.7237      46.7237 
  469000    110.17457   -7236.2617   -6667.4565   -627.80345     102002.7      46.7237      46.7237      46.7237 
  470000    112.22818   -7229.0031   -6649.5956    -769.0583     102002.7      46.7237      46.7237      46.7237 
  471000    104.95946   -7258.4745   -6716.5937   -779.38146     102002.7      46.7237      46.7237      46.7237 
  472000    109.52486   -7232.7564   -6667.3055   -700.43774     102002.7      46.7237      46.7237      46.7237 
  473000    106.76041   -7248.1122   -6696.9335   -764.30541     102002.7      46.7237      46.7237      46.7237 
  474000    111.41983   -7233.8152    -6658.581   -502.17307     102002.7      46.7237      46.7237      46.7237 
  475000    113.30072   -7243.8726   -6658.9279   -844.08295     102002.7      46.7237      46.7237      46.7237 
  476000    112.16641   -7236.7355   -6657.6469   -939.22138     102002.7      46.7237      46.7237      46.7237 
  477000    109.25627    -7230.889   -6666.8248   -536.49116     102002.7      46.7237      46.7237      46.7237 
  478000    107.38811   -7257.5053   -6703.0859   -467.26655     102002.7      46.7237      46.7237      46.7237 
  479000    109.79852   -7228.1747    -6661.311   -626.09169     102002.7      46.7237      46.7237      46.7237 
  480000    107.21508   -7243.3375   -6689.8114    -416.9564     102002.7      46.7237      46.7237      46.7237 
  481000    107.01599   -7225.7109   -6673.2128   -785.49281     102002.7      46.7237      46.7237      46.7237 
  482000    108.51778   -7250.1392   -6689.8876   -573.19864     102002.7      46.7237      46.7237      46.7237 
  483000    110.42535    -7229.047    -6658.947   -676.01181     102002.7      46.7237      46.7237      46.7237 
  484000    106.71475   -7220.2006   -6669.2576   -708.95803     102002.7      46.7237      46.7237      46.7237 
  485000    110.75689    -7212.369   -6640.5574   -914.61475     102002.7      46.7237      46.7237      46.7237 
  486000    110.81041   -7248.6305   -6676.5425   -742.91302     102002.7      46.7237      46.7237      46.7237 
  487000    114.57047   -7229.3531   -6637.8529   -729.07007     102002.7      46.7237      46.7237      46.7237 
  488000    112.69815   -7235.2325   -6653.3987   -425.87104     102002.7      46.7237      46.7237      46.7237 
  489000    107.97992   -7240.5324   -6683.0576   -761.23935     102002.7      46.7237      46.7237      46.7237 
  490000    110.94421   -7212.9544   -6640.1757   -677.82306     102002.7      46.7237      46.7237      46.7237 
  491000    112.64116   -7235.6416    -6654.102   -794.90065     102002.7      46.7237      46.7237      46.7237 
  492000    106.66012   -7243.2019    -6692.541   -795.54315     102002.7      46.7237      46.7237      46.7237 
  493000     110.2471   -7226.0695   -6656.8899   -615.00326     102002.7      46.7237      46.7237      46.7237 
  494000      108.372   -7243.3643   -6683.8654   -418.54731     102002.7      46.7237      46.7237      46.7237 
  495000     112.0498   -7255.3694   -6676.8828   -476.02044     102002.7      46.7237      46.7237      46.7237 
  496000    107.97824   -7214.8289   -6657.3629   -653.08087     102002.7      46.7237      46.7237      46.7237 
  497000    108.29489   -7227.3537   -6668.2528    -652.6027     102002.7      46.7237      46.7237      46.7237 
  498000    113.37375   -7229.7853   -6644.4636   -843.66409     102002.7      46.7237      46.7237      46.7237 
  499000    109.73215   -7240.9646   -6674.4435   -493.78251     102002.7      46.7237      46.7237      46.7237 
  500000    114.55383   -7226.6599   -6635.2456   -373.76787     102002.7      46.7237      46.7237      46.7237 
  500508    112.72794   -7230.0091   -6648.0214   -755.70702     102002.7      46.7237      46.7237      46.7237 
Loop time of 566.626 on 24 procs for 500000 steps with 1733 atoms

Performance: 76.241 ns/day, 0.315 hours/ns, 882.416 timesteps/s
99.9% CPU use with 24 MPI tasks x no OpenMP threads

MPI task timing breakdown:
Section |  min time  |  avg time  |  max time  |%varavg| %total
---------------------------------------------------------------
Pair    | 185.1      | 274.43     | 358.88     | 332.9 | 48.43
Bond    | 70.701     | 78.281     | 85.416     |  49.5 | 13.82
Neigh   | 1.6257     | 1.6426     | 1.6557     |   0.8 |  0.29
Comm    | 116.39     | 205.14     | 300.21     | 399.7 | 36.20
Output  | 0.30347    | 0.30378    | 0.30789    |   0.2 |  0.05
Modify  | 3.3533     | 3.7906     | 4.0858     |   9.0 |  0.67
Other   |            | 3.039      |            |       |  0.54

Nlocal:    72.2083 ave 91 max 53 min
Histogram: 1 1 2 5 4 4 0 5 0 2
Nghost:    1975.38 ave 2128 max 1893 min
Histogram: 14 2 0 0 0 0 0 0 1 7
Neighs:    7636.54 ave 11977 max 4511 min
Histogram: 2 3 4 4 1 3 5 0 0 2

Total # of neighbors = 183277
Ave neighs/atom = 105.757
Ave special neighs/atom = 6.64743
Neighbor list builds = 3087
Dangerous builds = 0
Neighbor list info ...
  update every 1 steps, delay 10 steps, check yes
  max neighbors/atom: 2000, page size: 100000
  master list distance cutoff = 16
  ghost atom cutoff = 16
  binsize = 8, bins = 6 6 6
  3 neighbor lists, perpetual/occasional/extra = 3 0 0
  (1) pair buck6d/coul/gauss/dsf, perpetual, skip from (3)
      attributes: half, newton on
      pair build: skip
      stencil: none
      bin: none
  (2) pair lj/cut, perpetual, skip from (3)
      attributes: half, newton on
      pair build: skip
      stencil: none
      bin: none
  (3) neighbor class addition, perpetual
      attributes: half, newton on
      pair build: half/bin/newton
      stencil: half/bin/3d/newton
      bin: standard
Setting up Verlet run ...
  Unit style    : real
  Current step  : 500508
  Time step     : 1
WARNING: Inconsistent image flags (../domain.cpp:786)
Per MPI rank memory allocation (min/avg/max) = 24.11 | 24.46 | 24.57 Mbytes
Step Time TotEng KinEng PotEng E_mol E_pair Temp Pxx Pyy Pzz Pxy Pxz Pyz Cella Cellb Cellc CellAlpha CellBeta CellGamma Volume Press 
  500508       500000   -6648.0214    581.98766   -7230.0091    4303.2994   -11533.308    112.72794   -467.26578   -837.08195   -962.77332   -131.48761   -81.286105   -43.634217      46.7237      46.7237      46.7237           90           90           90     102002.7   -755.70702 
  501000       500492   -6675.5671    573.09369   -7248.6608     4287.433   -11536.094    111.00523   -587.92748   -592.19392   -768.88016    163.16581    54.466656   -66.628524      46.7237      46.7237      46.7237           90           90           90     102002.7   -649.66719 
  502000       501492   -6701.0883    543.80536   -7244.8937    4282.0729   -11526.967    105.33223   -635.24694   -44.072837   -692.04197    100.67909    86.805776   -80.844253      46.7237      46.7237      46.7237           90           90           90     102002.7   -457.12058 
  503000       502492   -6661.2866     577.9483   -7239.2348    4298.0948    -11537.33    111.94554   -329.20488    -377.8239   -1110.8896    -9.719833   -86.375189   -114.34288      46.7237      46.7237      46.7237           90           90           90     102002.7   -605.97278 
  504000       503492   -6675.7724    563.30503   -7239.0774    4286.7364   -11525.814    109.10922   -1113.2421   -596.54892   -712.38456     12.95526    60.049849   -177.39017      46.7237      46.7237      46.7237           90           90           90     102002.7   -807.39187 
  505000       504492   -6654.8966    583.48934    -7238.386    4293.7239    -11532.11    113.01881   -568.97034   -943.92336    -923.7966   -98.000857   -235.11749     63.68667      46.7237      46.7237      46.7237           90           90           90     102002.7    -812.2301 
  506000       505492   -6674.1882    564.76491   -7238.9531    4299.1392   -11538.092    109.39199   -567.36569   -1008.4144   -936.32724   -79.302924    173.48714   -259.97652      46.7237      46.7237      46.7237           90           90           90     102002.7   -837.36912 
  507000       506492   -6668.3944    543.45651   -7211.8509    4329.7311   -11541.582    105.26466   -1020.2008    -1069.386   -525.71268   -55.425879   -196.98254   0.39327168      46.7237      46.7237      46.7237           90           90           90     102002.7   -871.76649 
  508000       507492   -6686.6397    555.72048   -7242.3601    4301.3795    -11543.74    107.64013   -551.39606   -814.67368   -839.12364    -77.49421    -125.6154     157.4925      46.7237      46.7237      46.7237           90           90           90     102002.7   -735.06446 
  509000       508492   -6668.3487    572.39686   -7240.7455    4283.4672   -11524.213    110.87026    -587.1527   -1073.7491   -813.50837   -23.124898    59.542202   -427.07358      46.7237      46.7237      46.7237           90           90           90     102002.7   -824.80339 
  510000       509492   -6640.3942    569.49124   -7209.8855     4321.213   -11531.098    110.30745   -606.45306   -856.58486   -504.44946   -211.78958   -240.80692   -137.32135      46.7237      46.7237      46.7237           90           90           90     102002.7   -655.82912 
  511000       510492   -6672.7228    568.26785   -7240.9907     4280.649    -11521.64    110.07049   -284.14241   -574.21041   -921.94271   -44.246207   -227.81255   -52.001853      46.7237      46.7237      46.7237           90           90           90     102002.7   -593.43184 
  512000       511492    -6676.023    563.77498    -7239.798    4310.0861   -11549.884    109.20024   -711.38487   -830.38844   -582.47964    124.94023   -41.753174    55.262261      46.7237      46.7237      46.7237           90           90           90     102002.7   -708.08432 
  513000       512492   -6656.3334     578.5206    -7234.854    4294.5677   -11529.422    112.05639   -922.21641   -1172.8962   -641.40128    92.197744    152.65252   -134.57232      46.7237      46.7237      46.7237           90           90           90     102002.7   -912.17129 
  514000       513492   -6664.5004    577.16362   -7241.6641    4311.6028   -11553.267    111.79355   -740.62412   -878.72967   -1019.7338   -125.59623    97.390872    206.66227      46.7237      46.7237      46.7237           90           90           90     102002.7   -879.69588 
  515000       514492   -6668.5005    574.79789   -7243.2984    4284.4324   -11527.731    111.33532   -989.07045   -1011.2487   -478.97467   -74.849319   -58.549325    9.3514619      46.7237      46.7237      46.7237           90           90           90     102002.7   -826.43127 
  516000       515492   -6664.7991    563.56616   -7228.3652     4316.306   -11544.671     109.1598   -834.16199   -435.86754   -789.80543   -9.1971752    236.56145   -62.845255      46.7237      46.7237      46.7237           90           90           90     102002.7   -686.61165 
  517000       516492   -6664.2849    578.89792   -7243.1828    4283.9091   -11527.092    112.12948   -1124.8238   -473.33841   -890.63904   -234.45013   -70.667183   -66.040984      46.7237      46.7237      46.7237           90           90           90     102002.7   -829.60041 
  518000       517492   -6682.6671    549.84365   -7232.5108    4293.7423   -11526.253    106.50182   -771.17152   -906.33774   -159.08378   -187.52242    10.407735    36.114039      46.7237      46.7237      46.7237           90           90           90     102002.7   -612.19768 
  519000       518492   -6655.1938    585.08562   -7240.2794    4279.4846   -11519.764      113.328    -588.1698   -897.99515   -614.77977    12.010402   -120.29931   -102.55383      46.7237      46.7237      46.7237           90           90           90     102002.7   -700.31491 
  520000       519492   -6652.4862     585.6772   -7238.1634    4293.4047   -11531.568    113.44259   -321.35044   -334.39567   -411.52752   -33.631003    170.72851   -43.610413      46.7237      46.7237      46.7237           90           90           90     102002.7   -355.75788 
  521000       520492    -6678.406    579.11975   -7257.5258      4272.05   -11529.576    112.17245     -366.317   -1016.0726   -698.16637   -77.980074   -183.22833    215.09605      46.7237      46.7237      46.7237           90           90           90     102002.7   -693.51865 
  522000       521492   -6686.6296     570.9316   -7257.5612    4280.0384     -11537.6    110.58644   -497.73673   -841.50198   -438.18377   -109.29136    70.266816    44.529668      46.7237      46.7237      46.7237           90           90           90     102002.7   -592.47416 
  523000       522492   -6677.7401    563.93184   -7241.6719     4307.963   -11549.635    109.23063   -487.39486   -1028.9877   -843.06696    87.611838   -15.001336    79.620414      46.7237      46.7237      46.7237           90           90           90     102002.7   -786.48316 
  524000       523492   -6659.0346      575.174   -7234.2086    4309.5176   -11543.726    111.40817   -730.00283   -667.96583   -708.03553   -110.96432    54.899172    102.19756      46.7237      46.7237      46.7237           90           90           90     102002.7    -702.0014 
  525000       524492   -6643.6187    581.80265   -7225.4213    4320.1004   -11545.522    112.69211    -850.0307   -540.10851   -715.34764    283.47433    312.08643     341.9309      46.7237      46.7237      46.7237           90           90           90     102002.7   -701.82895 
  526000       525492   -6679.3811    555.51879   -7234.8999    4296.2969   -11531.197    107.60106   -761.82445   -574.13882   -951.16284    -91.66181   -86.356207    309.68906      46.7237      46.7237      46.7237           90           90           90     102002.7   -762.37537 
  527000       526492    -6674.602    579.26002    -7253.862    4283.4294   -11537.291    112.19961   -410.47271   -842.82528   -857.36066     322.9681    106.97888   -111.60441      46.7237      46.7237      46.7237           90           90           90     102002.7   -703.55289 
  528000       527492   -6676.7072    551.74144   -7228.4486    4306.4079   -11534.857    106.86941   -738.25988   -1254.5287   -906.79666    233.52144   -182.48428    89.281394      46.7237      46.7237      46.7237           90           90           90     102002.7   -966.52842 
  529000       528492   -6670.7739    565.22584   -7235.9998    4308.9105    -11544.91    109.48127   -986.99115   -357.47284    -271.8374    45.378322   -70.341147   -81.040189      46.7237      46.7237      46.7237           90           90           90     102002.7   -538.76713 
  530000       529492   -6650.0093    582.57583   -7232.5852    4300.4407   -11533.026    112.84187   -367.28834   -441.17416   -512.45658    207.52752     84.08978    173.36078      46.7237      46.7237      46.7237           90           90           90     102002.7   -440.30636 
  531000       530492   -6688.0055    563.71213   -7251.7176    4275.2696   -11526.987    109.18807   -630.93693    -697.4831   -323.93241   -84.836428   -17.995267   0.27902561      46.7237      46.7237      46.7237           90           90           90     102002.7   -550.78415 
  532000       531492   -6654.6024    575.82412   -7230.4265    4289.8741   -11520.301     111.5341   -923.38184   -937.82456   -866.04617   -59.187423    154.12421   -21.861403      46.7237      46.7237      46.7237           90           90           90     102002.7   -909.08419 
  533000       532492   -6667.4344    567.41579   -7234.8502    4316.5223   -11551.372    109.90545   -848.87419   -687.99881   -804.64989   -156.72553    200.44203    131.42928      46.7237      46.7237      46.7237           90           90           90     102002.7   -780.50763 
  534000       533492   -6672.4675    568.85444   -7241.3219    4277.6105   -11518.932    110.18411    -760.6298   -1078.6078   -851.68911   -411.05816   -125.43733    51.901449      46.7237      46.7237      46.7237           90           90           90     102002.7   -896.97558 
  535000       534492   -6690.2956     547.8336   -7238.1292     4292.134   -11530.263    106.11248   -540.85831   -897.39381   -639.04221   -165.24633   -245.81673    101.54087      46.7237      46.7237      46.7237           90           90           90     102002.7   -692.43144 
  536000       535492   -6665.9134    572.11342   -7238.0268    4301.6839   -11539.711    110.81536    -717.1614   -819.95799   -314.99892   -125.31406    121.49563    88.559049      46.7237      46.7237      46.7237           90           90           90     102002.7   -617.37277 
  537000       536492   -6668.9596    565.58081   -7234.5404    4298.6593     -11533.2    109.55002   -946.56369   -921.78909   -508.05287   -79.325155    172.61932    263.35676      46.7237      46.7237      46.7237           90           90           90     102002.7   -792.13522 
  538000       537492   -6642.6306     568.5979   -7211.2285    4312.0477   -11523.276    110.13442   -579.65378   -351.62029   -142.62771    -311.9568   -183.99655     33.15717      46.7237      46.7237      46.7237           90           90           90     102002.7   -357.96726 
  539000       538492   -6652.7965    566.87501   -7219.6715    4312.5894   -11532.261     109.8007   -684.34246     -292.011   -223.29531    76.956256   -209.28224     56.97164      46.7237      46.7237      46.7237           90           90           90     102002.7   -399.88292 
  540000       539492   -6679.6277    551.07031    -7230.698     4294.786   -11525.484    106.73942   -251.97829    -711.5463    -792.1355   -51.130555   -123.55046    34.061308      46.7237      46.7237      46.7237           90           90           90     102002.7   -585.22003 
  541000       540492   -6660.4444    585.71287   -7246.1573    4286.4262   -11532.583     113.4495   -472.64093   -682.69607   -349.85706   -39.002933    169.22216    149.92944      46.7237      46.7237      46.7237           90           90           90     102002.7   -501.73136 
  542000       541492   -6691.0122    566.00883    -7257.021    4252.5481   -11509.569    109.63293   -993.62481   -595.84525    -341.9685   -133.02446     203.8646    173.68084      46.7237      46.7237      46.7237           90           90           90     102002.7   -643.81285 
  543000       542492   -6639.9045    576.53767   -7216.4421    4314.7416   -11531.184    111.67231   -188.65774    -798.6613   -432.27098    -213.7089   -54.691548   -77.721496      46.7237      46.7237      46.7237           90           90           90     102002.7   -473.19667 
  544000       543492   -6669.6683    571.95678   -7241.6251    4291.4749     -11533.1    110.78502   -424.46169   -548.93855   -840.01667    99.781049    -115.3933    237.81526      46.7237      46.7237      46.7237           90           90           90     102002.7    -604.4723 
  545000       544492   -6650.6619    583.27656   -7233.9384    4276.1758   -11510.114     112.9776   -378.75413   -387.82473   -293.03119   -221.14275   -91.773244    33.837259      46.7237      46.7237      46.7237           90           90           90     102002.7   -353.20335 
  546000       545492   -6659.4846    575.61878   -7235.1033    4288.6037   -11523.707    111.49433   -493.15532   -548.29585   -699.09761     92.20764    254.69712   -73.218463      46.7237      46.7237      46.7237           90           90           90     102002.7   -580.18293 
  547000       546492   -6659.8962    561.72542   -7221.6216    4310.3428   -11531.964    108.80326   -685.48654   -668.42405   -587.70981   -244.28066    44.609793   -264.06347      46.7237      46.7237      46.7237           90           90           90     102002.7    -647.2068 
  548000       547492   -6676.7835    561.85914   -7238.6427    4283.1953   -11521.838    108.82916   -684.79064   -315.86944   -941.67429   -108.72195    48.701166    24.876265      46.7237      46.7237      46.7237           90           90           90     102002.7   -647.44479 
  549000       548492   -6647.3575    581.08492   -7228.4425    4308.7031   -11537.146    112.55309   -914.06864   -344.54585   -494.00376   -13.720239   -128.01261    358.40511      46.7237      46.7237      46.7237           90           90           90     102002.7   -584.20608 
  550000       549492   -6695.1791    560.57807   -7255.7572     4281.461   -11537.218    108.58102   -782.77309   -404.33858   -180.48268   -50.874179   -20.471859   -187.33522      46.7237      46.7237      46.7237           90           90           90     102002.7   -455.86478 
  551000       550492   -6660.3669    569.95762   -7230.3245    4300.7365   -11531.061    110.39779   -599.42566   -201.83788   -954.36513    261.74674   -216.54507    -338.7441      46.7237      46.7237      46.7237           90           90           90     102002.7   -585.20956 
  552000       551492   -6665.7084    572.02247   -7237.7309    4296.4824   -11534.213    110.79774    -892.0634   -1093.3779    -402.7144   -1.7472888    73.288265   -15.751247      46.7237      46.7237      46.7237           90           90           90     102002.7    -796.0519 
  553000       552492   -6666.5847    564.50438   -7231.0891    4304.2723   -11535.361    109.34153   -467.03687   -515.57269   -499.16021   -102.49046    22.182522   -185.25832      46.7237      46.7237      46.7237           90           90           90     102002.7   -493.92326 
  554000       553492   -6685.1705    555.22026   -7240.3907    4290.9338   -11531.325    107.54324   -391.93073    -429.1596    -746.7923   -32.709756   -97.614003   -129.68519      46.7237      46.7237      46.7237           90           90           90     102002.7   -522.62754 
  555000       554492   -6665.1691    572.18074   -7237.3499    4291.4359   -11528.786     110.8284   -757.67618   -327.61219    -381.2156    -22.15081   -47.214838   -37.926649      46.7237      46.7237      46.7237           90           90           90     102002.7   -488.83466 
[...]
  936000       935492   -6688.6949    555.15458   -7243.8495    4287.3484   -11531.198    107.53052   -891.06558   -414.97419   -559.61615   -82.625246    112.64473   0.27091242      46.7237      46.7237      46.7237           90           90           90     102002.7   -621.88531 
  937000       936492   -6646.5684    588.73306   -7235.3015    4313.8862   -11549.188    114.03449    -654.8346   -601.99715   -806.48879    -338.9118   -145.57127   -126.26215      46.7237      46.7237      46.7237           90           90           90     102002.7   -687.77351 
  938000       937492   -6675.2994    551.32689   -7226.6263    4299.0544   -11525.681    106.78911   -645.46927    -752.5033    -510.7675    289.60736    258.77689   -107.94411      46.7237      46.7237      46.7237           90           90           90     102002.7   -636.24669 
  939000       938492   -6654.3738     577.9718   -7232.3456    4304.1117   -11536.457    111.95009   -1006.6406   -601.30178   -909.72116    83.534513   -182.44729   -121.84427      46.7237      46.7237      46.7237           90           90           90     102002.7   -839.22118 
  940000       939492   -6659.7565    572.71455    -7232.471    4297.2846   -11529.756    110.93179     -923.142   -1328.5398   -559.75965    21.506578   -82.672357    84.121635      46.7237      46.7237      46.7237           90           90           90     102002.7   -937.14715 
  941000       940492   -6686.0614    546.06781   -7232.1292    4296.4098   -11528.539    105.77046   -477.20963   -652.30729   -1118.5652   -73.243389    28.330348    149.77206      46.7237      46.7237      46.7237           90           90           90     102002.7   -749.36072 
  942000       941492   -6642.2581    581.04667   -7223.3048    4314.7978   -11538.103    112.54568   -675.07919   -946.68514   -649.55659   -264.67111    44.297221    123.09866      46.7237      46.7237      46.7237           90           90           90     102002.7   -757.10697 
  943000       942492   -6657.4757     579.6322   -7237.1079    4293.9132   -11531.021     112.2717   -1039.1934   -923.56243   -914.07503      9.35448   -142.50555    16.460532      46.7237      46.7237      46.7237           90           90           90     102002.7   -958.94364 
  944000       943492   -6679.4174    559.53598   -7238.9534    4283.7915   -11522.745    108.37917   -25.035169   -849.60629   -618.11382     158.2437   -80.252901   -135.75903      46.7237      46.7237      46.7237           90           90           90     102002.7   -497.58509 
  945000       944492   -6671.5378    568.84172   -7240.3796      4302.96    -11543.34    110.18164   -938.75138    -701.6389   -662.59523    148.63557    245.55163    15.129006      46.7237      46.7237      46.7237           90           90           90     102002.7   -767.66184 
  946000       945492   -6641.6179    569.06328   -7210.6812    4321.0304   -11531.712    110.22456   -933.73423   -948.09033   -963.52319    123.47353    191.40989   -31.185397      46.7237      46.7237      46.7237           90           90           90     102002.7   -948.44925 
  947000       946492   -6664.2957    569.41289   -7233.7086    4311.9464   -11545.655    110.29228   -842.62175    -1055.537   -797.92628     395.3605    8.4749085    77.871182      46.7237      46.7237      46.7237           90           90           90     102002.7   -898.69501 
  948000       947492   -6669.0452    562.80076   -7231.8459    4294.9734   -11526.819    109.01154   -583.11675    -667.5298   -1021.2373    82.115297   -20.546069   -212.17231      46.7237      46.7237      46.7237           90           90           90     102002.7   -757.29463 
  949000       948492   -6671.7965    560.04008   -7231.8365    4313.7747   -11545.611    108.47681   -832.26808   -455.54889   -629.10201    -137.1158   -116.99429   -148.54576      46.7237      46.7237      46.7237           90           90           90     102002.7   -638.97299 
  950000       949492   -6676.0056    574.84717   -7250.8528    4280.2244   -11531.077    111.34487   -1078.9038   -845.97927   -871.28926   -26.054115   -284.10632   -375.71186      46.7237      46.7237      46.7237           90           90           90     102002.7   -932.05743 
  951000       950492   -6668.3464    566.14844   -7234.4949    4292.2293   -11526.724    109.65997   -897.84681   -757.77169   -617.58122   -244.30924   -152.10752    126.30832      46.7237      46.7237      46.7237           90           90           90     102002.7   -757.73324 
  952000       951492    -6611.827    580.07333   -7191.9003    4345.6134   -11537.514    112.35715   -596.68169   -685.55495   -928.93862   -18.855465    27.802306    70.440929      46.7237      46.7237      46.7237           90           90           90     102002.7   -737.05842 
  953000       952492   -6689.1688    554.97508   -7244.1439    4289.6798   -11533.824    107.49575   -588.25676   -543.50615   -833.03916   -137.39074   -337.42768   -67.475105      46.7237      46.7237      46.7237           90           90           90     102002.7   -654.93403 
  954000       953492   -6665.0873    562.89337   -7227.9807    4300.4243   -11528.405    109.02948   -1068.1953   -751.14506   -831.24021   -97.977779   -144.38217   -65.163388      46.7237      46.7237      46.7237           90           90           90     102002.7   -883.52687 
  955000       954492   -6658.1002     568.0803   -7226.1805     4308.253   -11534.433    110.03416   -729.59475   -733.29794   -778.57586   -112.93532    50.131679    42.197703      46.7237      46.7237      46.7237           90           90           90     102002.7   -747.15618 
  956000       955492    -6675.365    563.25784   -7238.6228    4300.8547   -11539.478    109.10008   -745.81591   -705.29031   -813.05118   -79.447894   -35.378261    -61.18151      46.7237      46.7237      46.7237           90           90           90     102002.7   -754.71913 
  957000       956492   -6656.7103    578.79753   -7235.5078    4303.0756   -11538.583    112.11003   -944.49178   -1025.2688   -905.94169   -24.945776   -272.71551    123.34999      46.7237      46.7237      46.7237           90           90           90     102002.7   -958.56742 
  958000       957492   -6717.7104     547.3064   -7265.0168    4284.0372   -11549.054    106.01037   -817.38793   -823.74352   -661.94724   -168.20331    32.220206    38.174974      46.7237      46.7237      46.7237           90           90           90     102002.7    -767.6929 
  959000       958492   -6654.9746    583.13714   -7238.1117    4276.6402   -11514.752    112.95059   -648.48788    -896.2516   -684.54395    3.6139882   -33.198205    71.644308      46.7237      46.7237      46.7237           90           90           90     102002.7   -743.09448 
  960000       959492   -6635.0736    580.98108   -7216.0546    4323.9103   -11539.965    112.53297   -703.02296   -714.30152   -624.31144    19.872831    -8.641505   -28.434243      46.7237      46.7237      46.7237           90           90           90     102002.7    -680.5453 
  961000       960492   -6665.9813    592.91128   -7258.8925    4274.5225   -11533.415    114.84379   -425.31659   -721.81672   -563.22493   -152.67579    96.568056    115.20514      46.7237      46.7237      46.7237           90           90           90     102002.7   -570.11941 
  962000       961492   -6646.6589    576.30712    -7222.966    4319.7613   -11542.727    111.62765   -507.35384   -941.51131   -871.93993   -33.088396   -147.91465   -18.147039      46.7237      46.7237      46.7237           90           90           90     102002.7   -773.60169 
  963000       962492   -6661.1781    570.19658   -7231.3747    4298.4266   -11529.801    110.44407   -796.88609   -502.01531   -1040.2535    27.614856   -166.46099   -42.780938      46.7237      46.7237      46.7237           90           90           90     102002.7   -779.71828 
  964000       963492     -6673.97    549.23462   -7223.2047    4299.5149    -11522.72    106.38385   -902.28227   -389.69149   -701.79164    145.63286    105.21682    138.72845      46.7237      46.7237      46.7237           90           90           90     102002.7   -664.58846 
  965000       964492   -6638.0057    585.98522   -7223.9909    4318.3129   -11542.304    113.50225   -763.74778   -787.88927   -372.90951     145.0044    132.96639    111.43355      46.7237      46.7237      46.7237           90           90           90     102002.7   -641.51552 
  966000       965492   -6662.1868    577.24813   -7239.4349    4294.1321   -11533.567    111.80992    -592.7354   -494.03249   -148.52512   -19.320606    83.630356    23.534686      46.7237      46.7237      46.7237           90           90           90     102002.7   -411.76434 
  967000       966492   -6685.4829    577.31677   -7262.7997    4257.3054   -11520.105    111.82322   -828.51529   -676.24046   -1026.3646   -114.00458    130.90961   -4.3574036      46.7237      46.7237      46.7237           90           90           90     102002.7   -843.70677 
  968000       967492   -6674.5401    559.58079   -7234.1209    4288.4994    -11522.62    108.38785   -777.59467   -389.50895   -233.68069    -138.3045    211.65846      235.687      46.7237      46.7237      46.7237           90           90           90     102002.7   -466.92811 
  969000       968492   -6664.2485    567.35671   -7231.6052     4307.984   -11539.589    109.89401   -776.95523   -865.58635   -637.25955   -104.50084    51.624344    267.06632      46.7237      46.7237      46.7237           90           90           90     102002.7   -759.93371 
  970000       969492   -6670.4664    562.06779   -7232.5342    4285.1574   -11517.692    108.86957   -872.81151   -289.06757   -953.79238   -117.10197    1.6084477   -30.750536      46.7237      46.7237      46.7237           90           90           90     102002.7   -705.22382 
  971000       970492    -6643.915     595.2414   -7239.1564    4303.2059   -11542.362    115.29512   -691.65876   -774.47482   -516.58353    250.45783   -62.505123    156.17362      46.7237      46.7237      46.7237           90           90           90     102002.7    -660.9057 
  972000       971492   -6659.2471    572.00412   -7231.2512    4286.3976   -11517.649    110.79418    -188.8482   -264.77984   -152.35983    60.918679   -75.754008   -66.313807      46.7237      46.7237      46.7237           90           90           90     102002.7   -201.99596 
  973000       972492   -6678.4287    554.17099   -7232.5997    4300.5977   -11533.197       107.34   -388.20147   -687.69487    -646.3008    -244.0024  -0.12258043    -25.14545      46.7237      46.7237      46.7237           90           90           90     102002.7   -574.06572 
  974000       973492   -6663.0408      577.802   -7240.8428    4280.4206   -11521.263     111.9172   -190.82631    79.267535   -531.76315    50.204034   -6.3982608    110.55506      46.7237      46.7237      46.7237           90           90           90     102002.7   -214.44064 
  975000       974492   -6668.7391    575.02775   -7243.7668    4270.6114   -11514.378    111.37985   -425.23045   -753.66534   -923.81541   -3.1236855    139.30775   -60.718415      46.7237      46.7237      46.7237           90           90           90     102002.7   -700.90374 
  976000       975492   -6645.0631    578.10556   -7223.1687    4313.2075   -11536.376      111.976   -76.722159   -823.94702   -418.57692   -97.185938    47.831991    7.7771769      46.7237      46.7237      46.7237           90           90           90     102002.7    -439.7487 
  977000       976492   -6680.6515    561.79239   -7242.4439     4285.928   -11528.372    108.81623   -867.51674   -211.86031   -700.54855   -88.743789   -276.89652    221.80396      46.7237      46.7237      46.7237           90           90           90     102002.7   -593.30853 
  978000       977492   -6652.3043    575.64578     -7227.95    4294.0543   -11522.004    111.49956   -484.08274   -821.71874   -542.86461   0.75083221     4.128364   -3.8142212      46.7237      46.7237      46.7237           90           90           90     102002.7   -616.22203 
  979000       978492    -6631.657     588.6025   -7220.2595    4312.6464   -11532.906     114.0092   -262.95969    -422.7979   -1155.4403   -295.69796    -65.93527    -47.48872      46.7237      46.7237      46.7237           90           90           90     102002.7   -613.73263 
  980000       979492   -6674.4154    561.33379   -7235.7492    4302.0351   -11537.784     108.7274   -533.04458   -322.64238   -986.43052    87.259102    48.443588   -25.279398      46.7237      46.7237      46.7237           90           90           90     102002.7   -614.03916 
  981000       980492   -6684.3702    563.60468   -7247.9749    4279.5057   -11527.481    109.16726   -630.74784   -459.80584    -629.8426   -20.051528   -19.011033   -28.519924      46.7237      46.7237      46.7237           90           90           90     102002.7   -573.46542 
  982000       981492   -6661.8764    585.95541   -7247.8318    4274.6385    -11522.47    113.49648   -305.06824   -455.76069   -540.92272    93.889174     46.27727   -23.326001      46.7237      46.7237      46.7237           90           90           90     102002.7   -433.91722 
  983000       982492   -6679.9749    552.18962   -7232.1645    4307.2586   -11539.423    106.95622   -625.38244   -501.27824   -561.80819    -27.32119   -180.29803   -21.981015      46.7237      46.7237      46.7237           90           90           90     102002.7   -562.82296 
  984000       983492   -6658.3805    561.81898   -7220.1995    4301.9608    -11522.16    108.82138     -835.534    -910.5268   -698.69921    80.757842    1.1464087   -250.37021      46.7237      46.7237      46.7237           90           90           90     102002.7      -814.92 
  985000       984492   -6659.4839    574.29204   -7233.7759     4294.692   -11528.468    111.23734   -595.88379   -745.39232   -866.47035   -172.20239   -234.68223    -221.8762      46.7237      46.7237      46.7237           90           90           90     102002.7   -735.91549 
  986000       985492   -6665.8262    580.62258   -7246.4488     4294.187   -11540.636    112.46353   -663.24881   -624.55721   -525.93698    107.25918    -143.6545    192.54664      46.7237      46.7237      46.7237           90           90           90     102002.7     -604.581 
  987000       986492   -6657.3818     566.3737   -7223.7555    4320.1133   -11543.869     109.7036   -466.59826   -602.62457   -1054.0435   -90.528637   -157.83636   -12.135455      46.7237      46.7237      46.7237           90           90           90     102002.7   -707.75544 
  988000       987492   -6656.3876    583.07667   -7239.4642    4301.6716   -11541.136    112.93888   -790.07081   -228.03893   -958.20407   -77.838001   -284.69761    102.38773      46.7237      46.7237      46.7237           90           90           90     102002.7   -658.77127 
  989000       988492   -6666.5705    563.89591   -7230.4664    4291.2095   -11521.676    109.22367   -686.89288   -868.41663   -590.60212     115.9572   -80.856285    38.115962      46.7237      46.7237      46.7237           90           90           90     102002.7   -715.30388 
  990000       989492   -6649.3941    580.42406   -7229.8181    4299.9493   -11529.767    112.42508   -777.33823   -593.93691   -483.53259   -101.96438   -140.63889    132.82182      46.7237      46.7237      46.7237           90           90           90     102002.7   -618.26924 
  991000       990492   -6690.3314    565.69972   -7256.0311    4280.0286    -11536.06    109.57306   -646.32178   -771.21469   -696.12432   -142.69354   -226.00319   -103.81708      46.7237      46.7237      46.7237           90           90           90     102002.7    -704.5536 
  992000       991492   -6658.4272    558.14462   -7216.5718    4304.7778    -11521.35    108.10967   -556.76536   -735.73961     -563.836    209.41639   -184.48883   -35.029759      46.7237      46.7237      46.7237           90           90           90     102002.7   -618.78032 
  993000       992492   -6688.5606    554.78977   -7243.3504     4309.471   -11552.821    107.45986    -773.1662   -801.41851   -536.11408   -132.38066   -34.138524   -66.748169      46.7237      46.7237      46.7237           90           90           90     102002.7   -703.56626 
  994000       993492   -6682.1118    559.68071   -7241.7925    4285.2044   -11526.997    108.40721   -576.40757   -935.47986   -482.45967    223.71092    184.84434   -38.891381      46.7237      46.7237      46.7237           90           90           90     102002.7   -664.78237 
  995000       994492   -6641.0799    587.30875   -7228.3886    4312.6546   -11541.043    113.75861   -285.88048    -393.5066   -642.63462   -163.20274   -185.36683   -161.62192      46.7237      46.7237      46.7237           90           90           90     102002.7    -440.6739 
  996000       995492   -6680.1656    560.46536    -7240.631    4302.5778   -11543.209    108.55919   -811.53016   -532.54959     -971.787    16.769252   -106.51115   -89.500144      46.7237      46.7237      46.7237           90           90           90     102002.7   -771.95558 
  997000       996492   -6697.7687    548.69193   -7246.4607    4279.3338   -11525.794    106.27874   -812.01852   -590.39932   -295.55941   -59.803083    134.39107    249.39219      46.7237      46.7237      46.7237           90           90           90     102002.7   -565.99242 
  998000       997492    -6661.636     565.0964   -7226.7324     4305.713   -11532.445     109.4562   -291.89274   -588.24129   -857.49801   -189.07799   -217.46914   -11.100479      46.7237      46.7237      46.7237           90           90           90     102002.7   -579.21068 
  999000       998492   -6694.5642    548.88887   -7243.4531     4294.568   -11538.021    106.31688   -513.22349   -686.33332   -438.29294   -84.244694    57.907125   -195.91582      46.7237      46.7237      46.7237           90           90           90     102002.7   -545.94992 
 1000000       999492   -6671.8261    553.89241   -7225.7185    4309.4556   -11535.174    107.28604   -515.99842   -689.89008   -665.45851   -30.152611    144.11573    205.39332      46.7237      46.7237      46.7237           90           90           90     102002.7   -623.78234 
 1000508      1000000   -6657.3372    562.89152   -7220.2287    4304.4441   -11524.673    109.02912   -1196.1979   -454.30417   -932.83836    166.80245    154.28019    195.13711      46.7237      46.7237      46.7237           90           90           90     102002.7   -861.11346 
Loop time of 612.887 on 24 procs for 500000 steps with 1733 atoms

Performance: 70.486 ns/day, 0.340 hours/ns, 815.811 timesteps/s
99.9% CPU use with 24 MPI tasks x no OpenMP threads

MPI task timing breakdown:
Section |  min time  |  avg time  |  max time  |%varavg| %total
---------------------------------------------------------------
Pair    | 206.62     | 303.12     | 386.93     | 332.2 | 49.46
Bond    | 75.184     | 82.37      | 89.469     |  47.2 | 13.44
Neigh   | 1.5813     | 1.5996     | 1.6104     |   0.9 |  0.26
Comm    | 121.96     | 210.5      | 314.02     | 409.2 | 34.35
Output  | 0.36267    | 0.40141    | 0.40321    |   1.3 |  0.07
Modify  | 11.41      | 11.87      | 12.134     |   5.7 |  1.94
Other   |            | 3.023      |            |       |  0.49

Nlocal:    72.2083 ave 89 max 52 min
Histogram: 3 4 0 0 2 4 2 1 3 5
Nghost:    1972.96 ave 2138 max 1888 min
Histogram: 12 4 0 0 0 0 0 0 6 2
Neighs:    7642.38 ave 11909 max 4200 min
Histogram: 4 2 2 3 3 4 2 0 1 3

Total # of neighbors = 183417
Ave neighs/atom = 105.838
Ave special neighs/atom = 6.64743
Neighbor list builds = 3050
Dangerous builds = 0
Total wall time: 0:19:41
