LAMMPS (30 Mar 2018)
Reading data file ...
  orthogonal box = (0 0 0) to (46.7237 46.7237 46.7237)
  2 by 2 by 4 MPI processor grid
  reading atoms ...
  2123 atoms
  scanning bonds ...
  5 = max bonds/atom
  scanning angles ...
  10 = max angles/atom
  scanning dihedrals ...
  32 = max dihedrals/atom
  scanning impropers ...
  3 = max impropers/atom
  reading bonds ...
  2064 bonds
  reading angles ...
  3696 angles
  reading dihedrals ...
  6240 dihedrals
  reading impropers ...
  1008 impropers
Finding 1-2 1-3 1-4 neighbors ...
  special bond factors lj:   0          0          0         
  special bond factors coul: 0          0          0         
  5 = max # of 1-2 neighbors
  8 = max # of 1-3 neighbors
  20 = max # of 1-4 neighbors
  19 = max # of special neighbors
Finding 1-2 1-3 1-4 neighbors ...
  special bond factors lj:   0          0          1         
  special bond factors coul: 1          1          1         
  5 = max # of 1-2 neighbors
  8 = max # of 1-3 neighbors
  19 = max # of special neighbors
WARNING: Using 'neigh_modify every 1 delay 0 check yes' setting during minimization (../min.cpp:168)
Neighbor list info ...
  update every 1 steps, delay 0 steps, check yes
  max neighbors/atom: 2000, page size: 100000
  master list distance cutoff = 16
  ghost atom cutoff = 16
  binsize = 8, bins = 6 6 6
  3 neighbor lists, perpetual/occasional/extra = 3 0 0
  (1) pair buck6d/coul/gauss/dsf, perpetual, skip from (3)
      attributes: half, newton on
      pair build: skip
      stencil: none
      bin: none
  (2) pair lj/cut, perpetual, skip from (3)
      attributes: half, newton on
      pair build: skip
      stencil: none
      bin: none
  (3) neighbor class addition, perpetual
      attributes: half, newton on
      pair build: half/bin/newton
      stencil: half/bin/3d/newton
      bin: standard
Setting up cg style minimization ...
  Unit style    : real
  Current step  : 0
WARNING: Inconsistent image flags (../domain.cpp:786)
Per MPI rank memory allocation (min/avg/max) = 22.92 | 23.38 | 23.82 Mbytes
Step Temp E_pair E_mol TotEng Press 
       0            0   -12629.307    6482.8914   -6146.4154    6029.1999 
     500            0   -12824.313    3724.4057   -9099.9073   -656.11592 
Loop time of 3.23254 on 16 procs for 500 steps with 2123 atoms

99.9% CPU use with 16 MPI tasks x no OpenMP threads

Minimization stats:
  Stopping criterion = max force evaluations
  Energy initial, next-to-last, final = 
        -6146.41535537     -9099.80826263     -9099.90730991
  Force two-norm initial, final = 2574.93 14.5778
  Force max component initial, final = 152.102 2.68335
  Final line search alpha, max atom move = 0.00362014 0.00971411
  Iterations, force evaluations = 500 1000

MPI task timing breakdown:
Section |  min time  |  avg time  |  max time  |%varavg| %total
---------------------------------------------------------------
Pair    | 1.2138     | 1.8929     | 2.5192     |  24.5 | 58.56
Bond    | 0.30276    | 0.36       | 0.40362    |   5.3 | 11.14
Neigh   | 0.026565   | 0.026619   | 0.026664   |   0.0 |  0.82
Comm    | 0.25853    | 0.91186    | 1.616      |  35.7 | 28.21
Output  | 0          | 0          | 0          |   0.0 |  0.00
Modify  | 0          | 0          | 0          |   0.0 |  0.00
Other   |            | 0.04112    |            |       |  1.27

Nlocal:    132.688 ave 152 max 109 min
Histogram: 2 0 1 2 0 4 2 1 2 2
Nghost:    2604 ave 2633 max 2581 min
Histogram: 2 1 3 2 2 1 3 0 1 1
Neighs:    11454.9 ave 16936 max 6600 min
Histogram: 1 3 2 2 1 0 3 2 1 1

Total # of neighbors = 183279
Ave neighs/atom = 86.3302
Ave special neighs/atom = 5.42628
Neighbor list builds = 15
Dangerous builds = 0
Neighbor list info ...
  update every 1 steps, delay 10 steps, check yes
  max neighbors/atom: 2000, page size: 100000
  master list distance cutoff = 16
  ghost atom cutoff = 16
  binsize = 8, bins = 6 6 6
  3 neighbor lists, perpetual/occasional/extra = 3 0 0
  (1) pair buck6d/coul/gauss/dsf, perpetual, skip from (3)
      attributes: half, newton on
      pair build: skip
      stencil: none
      bin: none
  (2) pair lj/cut, perpetual, skip from (3)
      attributes: half, newton on
      pair build: skip
      stencil: none
      bin: none
  (3) neighbor class addition, perpetual
      attributes: half, newton on
      pair build: half/bin/newton
      stencil: half/bin/3d/newton
      bin: standard
Setting up Verlet run ...
  Unit style    : real
  Current step  : 500
  Time step     : 1
WARNING: Inconsistent image flags (../domain.cpp:786)
Per MPI rank memory allocation (min/avg/max) = 22.57 | 22.65 | 22.76 Mbytes
Step Temp PotEng TotEng Press Volume Lx Ly Lz 
     500          130   -9099.9073    -8277.621   -287.61023     102002.7      46.7237      46.7237      46.7237 
    1000    110.90227   -8368.1465   -7666.6587    -564.3816     102002.7      46.7237      46.7237      46.7237 
    2000    140.55132   -8243.6656   -7354.6393    -634.4447     102002.7      46.7237      46.7237      46.7237 
    3000    128.20611   -8212.8259   -7401.8864   -691.94176     102002.7      46.7237      46.7237      46.7237 
    4000    127.52371   -8214.8717   -7408.2487   -715.40506     102002.7      46.7237      46.7237      46.7237 
    5000    131.05506   -8241.0904   -7412.1306   -607.38037     102002.7      46.7237      46.7237      46.7237 
    6000     131.3282   -8202.0631   -7371.3756   -559.88743     102002.7      46.7237      46.7237      46.7237 
    7000    127.78621   -8202.9613   -7394.6779   -728.70089     102002.7      46.7237      46.7237      46.7237 
    8000    126.01341   -8248.2572   -7451.1873   -712.98543     102002.7      46.7237      46.7237      46.7237 
    9000    128.97066   -8235.0686   -7419.2933   -694.47097     102002.7      46.7237      46.7237      46.7237 
   10000    131.20445   -8223.9928   -7394.0881   -707.62107     102002.7      46.7237      46.7237      46.7237 
   11000    131.12618   -8220.4313   -7391.0216   -672.81903     102002.7      46.7237      46.7237      46.7237 
   12000    130.77012   -8240.4787   -7413.3212   -1005.4783     102002.7      46.7237      46.7237      46.7237 
   13000    128.02387   -8233.3235   -7423.5368   -257.13294     102002.7      46.7237      46.7237      46.7237 
   14000    131.80258   -8224.4356   -7390.7476   -790.30939     102002.7      46.7237      46.7237      46.7237 
   15000    126.91663   -8246.7106   -7443.9275   -535.18783     102002.7      46.7237      46.7237      46.7237 
   16000    130.89317   -8228.0642   -7400.1284   -670.45986     102002.7      46.7237      46.7237      46.7237 
   17000     130.0974   -8204.9095   -7382.0071   -658.61017     102002.7      46.7237      46.7237      46.7237 
   18000    127.08107   -8197.5701   -7393.7469   -505.55234     102002.7      46.7237      46.7237      46.7237 
   19000    129.56144   -8219.2388   -7399.7266   -1128.6067     102002.7      46.7237      46.7237      46.7237 
   20000    128.59669   -8244.0811   -7430.6711   -991.14437     102002.7      46.7237      46.7237      46.7237 
   21000    129.06474   -8230.4925    -7414.122   -674.22189     102002.7      46.7237      46.7237      46.7237 
   22000    125.49907    -8202.797   -7408.9804   -937.25584     102002.7      46.7237      46.7237      46.7237 
   23000    129.47082   -8241.9111    -7422.972   -986.18419     102002.7      46.7237      46.7237      46.7237 
   24000    131.42079   -8189.2927   -7358.0196   -925.01468     102002.7      46.7237      46.7237      46.7237 
   25000    126.83786   -8233.1401   -7430.8553    -817.0798     102002.7      46.7237      46.7237      46.7237 
   26000    130.62178   -8219.6463   -7393.4271   -828.81684     102002.7      46.7237      46.7237      46.7237 
   27000    131.80169   -8204.0398   -7370.3573   -908.51271     102002.7      46.7237      46.7237      46.7237 
   28000    128.41944   -8220.0129   -7407.7241   -810.48031     102002.7      46.7237      46.7237      46.7237 
   29000    134.75356   -8212.4536   -7360.0997   -667.82536     102002.7      46.7237      46.7237      46.7237 
   30000    128.47942   -8218.9222    -7406.254   -448.06317     102002.7      46.7237      46.7237      46.7237 
   31000    126.76038   -8233.2204   -7431.4257   -747.08477     102002.7      46.7237      46.7237      46.7237 
   32000    126.97286   -8218.5298    -7415.391   -921.14403     102002.7      46.7237      46.7237      46.7237 
   33000    131.39821   -8224.9907   -7393.8604   -904.24692     102002.7      46.7237      46.7237      46.7237 
   34000    132.62637   -8227.6757   -7388.7769   -589.16697     102002.7      46.7237      46.7237      46.7237 
   35000    128.52426   -8238.2423   -7425.2905   -839.10532     102002.7      46.7237      46.7237      46.7237 
   36000    127.32933   -8209.5414   -7404.1479     -634.765     102002.7      46.7237      46.7237      46.7237 
   37000    133.94134   -8217.8202   -7370.6038   -827.38546     102002.7      46.7237      46.7237      46.7237 
   38000    134.45428   -8222.8688    -7372.408   -384.18729     102002.7      46.7237      46.7237      46.7237 
   39000    126.49339   -8222.3377   -7422.2318   -604.81391     102002.7      46.7237      46.7237      46.7237 
   40000    129.65815   -8240.1302   -7420.0062   -757.60743     102002.7      46.7237      46.7237      46.7237 
   41000    127.05509   -8219.4731   -7415.8142   -688.90602     102002.7      46.7237      46.7237      46.7237 
   42000    133.18488   -8209.7178   -7367.2862   -947.87703     102002.7      46.7237      46.7237      46.7237 
   43000     128.5277   -8223.6004   -7410.6268   -686.99118     102002.7      46.7237      46.7237      46.7237 
   44000    135.27745   -8214.8269   -7359.1593   -710.24572     102002.7      46.7237      46.7237      46.7237 
   45000    130.72342   -8231.8409   -7404.9788   -952.83259     102002.7      46.7237      46.7237      46.7237 
   46000    133.63285   -8256.9104   -7411.6454   -804.95402     102002.7      46.7237      46.7237      46.7237 
   47000    127.58744   -8200.0692    -7393.043   -956.50026     102002.7      46.7237      46.7237      46.7237 
   48000    135.59937   -8223.7018   -7365.9979   -897.02138     102002.7      46.7237      46.7237      46.7237 
   49000    129.72955   -8208.5913   -7388.0157   -717.99644     102002.7      46.7237      46.7237      46.7237 
   50000    129.14158    -8204.242   -7387.3854   -650.63502     102002.7      46.7237      46.7237      46.7237 
   51000    129.10111   -8232.4291   -7415.8285   -619.09186     102002.7      46.7237      46.7237      46.7237 
   52000    128.88675    -8235.876   -7420.6314   -563.76321     102002.7      46.7237      46.7237      46.7237 
   53000    133.40085   -8228.0148   -7384.2172   -722.47185     102002.7      46.7237      46.7237      46.7237 
   54000    128.93769   -8222.9876   -7407.4208   -851.67198     102002.7      46.7237      46.7237      46.7237 
   55000     132.6418   -8200.0358   -7361.0394   -658.63473     102002.7      46.7237      46.7237      46.7237 
   56000    128.95679    -8214.676   -7398.9883   -828.85005     102002.7      46.7237      46.7237      46.7237 
   57000    129.18945   -8233.3783    -7416.219   -679.44172     102002.7      46.7237      46.7237      46.7237 
   58000    131.82658   -8211.5231   -7377.6833   -934.84109     102002.7      46.7237      46.7237      46.7237 
   59000    131.98392   -8259.0724   -7424.2373   -618.55621     102002.7      46.7237      46.7237      46.7237 
   60000    129.33148   -8178.7914   -7360.7337   -865.78292     102002.7      46.7237      46.7237      46.7237 
   61000    131.27709   -8192.4323   -7362.0681   -748.51714     102002.7      46.7237      46.7237      46.7237 
   62000    129.12103   -8217.8063   -7401.0797   -727.29177     102002.7      46.7237      46.7237      46.7237 
   63000    132.14618   -8226.3341   -7390.4726   -498.27771     102002.7      46.7237      46.7237      46.7237 
   64000    132.23353   -8242.6719   -7406.2579   -631.91565     102002.7      46.7237      46.7237      46.7237 
   65000    128.32786   -8200.4561   -7388.7466   -861.87168     102002.7      46.7237      46.7237      46.7237 
   66000    127.26894    -8223.486   -7418.4745   -922.04643     102002.7      46.7237      46.7237      46.7237 
   67000    132.05493   -8227.2601   -7391.9758   -1001.9386     102002.7      46.7237      46.7237      46.7237 
   68000    127.18353   -8206.3501   -7401.8788   -887.21189     102002.7      46.7237      46.7237      46.7237 
   69000    128.97506   -8229.6518   -7413.8485   -868.42708     102002.7      46.7237      46.7237      46.7237 
   70000    132.69165   -8200.4049   -7361.0932   -766.25911     102002.7      46.7237      46.7237      46.7237 
   71000    132.63903   -8203.3897   -7364.4109   -931.02086     102002.7      46.7237      46.7237      46.7237 
   72000    130.26046   -8206.4172   -7382.4835   -815.76252     102002.7      46.7237      46.7237      46.7237 
   73000    128.40267   -8203.7672   -7391.5845   -561.61494     102002.7      46.7237      46.7237      46.7237 
   74000    131.75425   -8175.0202   -7341.6378   -823.33462     102002.7      46.7237      46.7237      46.7237 
   75000    128.35645   -8181.4271   -7369.5368   -949.31234     102002.7      46.7237      46.7237      46.7237 
   76000    132.52131   -8237.5771   -7399.3429   -1078.7758     102002.7      46.7237      46.7237      46.7237 
   77000    128.33411   -8171.9181    -7360.169   -797.35666     102002.7      46.7237      46.7237      46.7237 
   78000    133.58562   -8197.5589   -7352.5926   -1111.0233     102002.7      46.7237      46.7237      46.7237 
   79000     127.8915   -8210.9935   -7402.0441   -907.48331     102002.7      46.7237      46.7237      46.7237 
   80000    131.56166   -8235.1353   -7402.9711    -528.5754     102002.7      46.7237      46.7237      46.7237 
   81000    133.06109   -8203.9219   -7362.2734   -914.38426     102002.7      46.7237      46.7237      46.7237 
   82000    133.71968   -8233.9643     -7388.15   -758.99498     102002.7      46.7237      46.7237      46.7237 
   83000    125.53698   -8197.2412   -7403.1848   -1062.1837     102002.7      46.7237      46.7237      46.7237 
   84000    128.02526   -8243.6326   -7433.8371   -816.54806     102002.7      46.7237      46.7237      46.7237 
   85000    130.74032   -8219.5869   -7392.6179   -922.78984     102002.7      46.7237      46.7237      46.7237 
   86000    132.15218   -8187.5897   -7351.6903   -1091.6123     102002.7      46.7237      46.7237      46.7237 
   87000    124.88434    -8195.274   -7405.3457   -1100.9942     102002.7      46.7237      46.7237      46.7237 
   88000    128.15602    -8207.148   -7396.5254   -943.28489     102002.7      46.7237      46.7237      46.7237 
   89000    127.17364   -8218.1898   -7413.7811   -965.01424     102002.7      46.7237      46.7237      46.7237 
   90000    130.91036   -8191.5092   -7363.4647   -1015.7205     102002.7      46.7237      46.7237      46.7237 
   91000    129.64303   -8177.9628   -7357.9345   -888.18447     102002.7      46.7237      46.7237      46.7237 
   92000    129.74821   -8211.3858   -7390.6922   -555.98184     102002.7      46.7237      46.7237      46.7237 
   93000    127.14724    -8217.787   -7413.5453   -739.14055     102002.7      46.7237      46.7237      46.7237 
   94000    126.38713   -8181.7703   -7382.3365   -802.10205     102002.7      46.7237      46.7237      46.7237 
   95000    129.10018   -8212.9093   -7396.3147   -602.45282     102002.7      46.7237      46.7237      46.7237 
   96000    132.44528   -8195.4552   -7357.7018   -658.43952     102002.7      46.7237      46.7237      46.7237 
   97000     129.1973   -8203.5582   -7386.3492   -573.06237     102002.7      46.7237      46.7237      46.7237 
   98000    124.46663   -8210.3473   -7423.0611   -841.82939     102002.7      46.7237      46.7237      46.7237 
   99000    127.21448   -8218.7131   -7414.0461   -953.94349     102002.7      46.7237      46.7237      46.7237 
  100000    135.06542   -8224.1372   -7369.8108   -803.34439     102002.7      46.7237      46.7237      46.7237 
  101000    127.46668   -8181.2051   -7374.9428   -1051.4649     102002.7      46.7237      46.7237      46.7237 
  102000    131.17895   -8184.9758   -7355.2323   -515.25498     102002.7      46.7237      46.7237      46.7237 
  103000    133.24682   -8199.7224   -7356.8991   -730.51824     102002.7      46.7237      46.7237      46.7237 
  104000    131.35581   -8207.0257   -7376.1635   -806.13511     102002.7      46.7237      46.7237      46.7237 
  105000    133.95267    -8186.969   -7339.6809   -655.31898     102002.7      46.7237      46.7237      46.7237 
  106000    127.54708   -8204.1168    -7397.346   -696.34159     102002.7      46.7237      46.7237      46.7237 
  107000    131.62942   -8190.7936   -7358.2008    -506.2659     102002.7      46.7237      46.7237      46.7237 
  108000    130.08067   -8221.3055    -7398.509   -729.46272     102002.7      46.7237      46.7237      46.7237 
  109000    128.34616   -8179.2926   -7367.4674   -624.68469     102002.7      46.7237      46.7237      46.7237 
  110000      127.159   -8179.6354   -7375.3193   -638.88379     102002.7      46.7237      46.7237      46.7237 
  111000    130.89362   -8150.8447    -7322.906   -610.06631     102002.7      46.7237      46.7237      46.7237 
  112000    130.46554   -8177.6126   -7352.3817   -619.62515     102002.7      46.7237      46.7237      46.7237 
  113000    131.02582   -8197.7461   -7368.9713   -962.44637     102002.7      46.7237      46.7237      46.7237 
  114000    127.96094   -8210.3697   -7400.9811   -508.48304     102002.7      46.7237      46.7237      46.7237 
  115000    129.08604   -8198.4703   -7381.9651   -1021.3437     102002.7      46.7237      46.7237      46.7237 
  116000    128.08014   -8194.4584   -7384.3158    -666.1992     102002.7      46.7237      46.7237      46.7237 
  117000    131.75529    -8187.405   -7354.0161   -521.54172     102002.7      46.7237      46.7237      46.7237 
  118000    132.33674   -8177.7414   -7340.6746   -504.09092     102002.7      46.7237      46.7237      46.7237 
  119000    130.43711   -8158.7779   -7333.7268   -730.44649     102002.7      46.7237      46.7237      46.7237 
  120000    128.18279   -8184.0323   -7373.2404   -797.32581     102002.7      46.7237      46.7237      46.7237 
  121000    131.80559   -8182.9992    -7349.292   -769.32523     102002.7      46.7237      46.7237      46.7237 
  122000    132.68675     -8168.21   -7328.9292   -1134.9218     102002.7      46.7237      46.7237      46.7237 
  123000    132.39914   -8193.5866   -7356.1251    -659.3666     102002.7      46.7237      46.7237      46.7237 
  124000    126.06485   -8189.3613    -7391.966   -1025.9133     102002.7      46.7237      46.7237      46.7237 
  125000    129.60562   -8202.3518   -7382.5601   -923.64598     102002.7      46.7237      46.7237      46.7237 
  126000    130.68186   -8186.2298   -7359.6305   -623.28844     102002.7      46.7237      46.7237      46.7237 
  127000    135.27139   -8189.9861   -7334.3568   -618.64149     102002.7      46.7237      46.7237      46.7237 
  128000    129.18957   -8212.4297   -7395.2697   -630.03322     102002.7      46.7237      46.7237      46.7237 
  129000    127.98547    -8194.022   -7384.4782   -1142.8559     102002.7      46.7237      46.7237      46.7237 
  130000     131.4678   -8155.5912   -7324.0207   -698.64036     102002.7      46.7237      46.7237      46.7237 
  131000    129.17825   -8214.8861   -7397.7977   -931.74522     102002.7      46.7237      46.7237      46.7237 
  132000     130.0306    -8182.132   -7359.6522   -603.31339     102002.7      46.7237      46.7237      46.7237 
  133000    131.69527   -8179.4096   -7346.4002   -806.92388     102002.7      46.7237      46.7237      46.7237 
  134000    131.60834   -8153.4249   -7320.9654   -1002.3951     102002.7      46.7237      46.7237      46.7237 
  135000    131.69338   -8200.1559   -7367.1585   -689.99441     102002.7      46.7237      46.7237      46.7237 
  136000     127.7795   -8170.4935   -7362.2526   -687.54732     102002.7      46.7237      46.7237      46.7237 
  137000    130.82576    -8194.664   -7367.1546   -583.21463     102002.7      46.7237      46.7237      46.7237 
  138000    126.58386   -8152.5871   -7351.9089   -770.60195     102002.7      46.7237      46.7237      46.7237 
  139000    127.94125   -8204.5456   -7395.2815   -977.55066     102002.7      46.7237      46.7237      46.7237 
  140000    131.16753   -8184.6296   -7354.9583   -549.46324     102002.7      46.7237      46.7237      46.7237 
  141000     131.0056   -8179.8556   -7351.2086   -862.09156     102002.7      46.7237      46.7237      46.7237 
  142000    129.94507   -8199.4136   -7377.4748   -1060.4789     102002.7      46.7237      46.7237      46.7237 
  143000    126.03603   -8187.2642   -7390.0512   -669.06795     102002.7      46.7237      46.7237      46.7237 
  144000    129.28595   -8175.8118   -7358.0422   -855.35793     102002.7      46.7237      46.7237      46.7237 
  145000    130.40188   -8181.5969   -7356.7686   -1086.1769     102002.7      46.7237      46.7237      46.7237 
  146000     125.8428   -8200.9538   -7404.9631   -735.07161     102002.7      46.7237      46.7237      46.7237 
  147000    129.73245   -8193.8544   -7373.2605   -754.22405     102002.7      46.7237      46.7237      46.7237 
  148000    129.11596   -8176.4108   -7359.7163   -950.58482     102002.7      46.7237      46.7237      46.7237 
  149000      130.645   -8216.4277   -7390.0616   -654.65921     102002.7      46.7237      46.7237      46.7237 
  150000    135.26113   -8150.0326   -7294.4682   -789.26568     102002.7      46.7237      46.7237      46.7237 
  151000    126.96607   -8194.1289   -7391.0331   -607.07327     102002.7      46.7237      46.7237      46.7237 
  152000    132.05103   -8159.3931   -7324.1335   -730.82076     102002.7      46.7237      46.7237      46.7237 
  153000    129.10787   -8200.8927   -7384.2494   -791.81935     102002.7      46.7237      46.7237      46.7237 
  154000    129.48293   -8228.7388   -7409.7232   -738.44492     102002.7      46.7237      46.7237      46.7237 
  155000    132.08997   -8203.9882   -7368.4823   -769.64848     102002.7      46.7237      46.7237      46.7237 
  156000    124.63116    -8217.412   -7429.0851    -836.9901     102002.7      46.7237      46.7237      46.7237 
  157000    127.52406   -8183.9306   -7377.3054     -513.012     102002.7      46.7237      46.7237      46.7237 
  158000    129.22058    -8176.929   -7359.5728   -389.35438     102002.7      46.7237      46.7237      46.7237 
  159000    130.21419   -8160.6194   -7336.9784   -718.72551     102002.7      46.7237      46.7237      46.7237 
  160000    130.21402    -8195.681   -7372.0409   -680.05659     102002.7      46.7237      46.7237      46.7237 
  161000    133.61409   -8180.8538   -7335.7074   -718.25274     102002.7      46.7237      46.7237      46.7237 
  162000    130.87381   -8188.1842   -7360.3709   -730.30369     102002.7      46.7237      46.7237      46.7237 
  163000    127.35736   -8199.7413   -7394.1705   -874.86822     102002.7      46.7237      46.7237      46.7237 
  164000    129.85402   -8169.2857   -7347.9228   -880.52099     102002.7      46.7237      46.7237      46.7237 
  165000    128.40782   -8173.2677   -7361.0524   -913.19193     102002.7      46.7237      46.7237      46.7237 
  166000    128.54695   -8205.7242   -7392.6288   -922.41458     102002.7      46.7237      46.7237      46.7237 
  167000    129.15507   -8153.5782   -7336.6364   -1121.6616     102002.7      46.7237      46.7237      46.7237 
  168000    126.62634   -8174.9921   -7374.0451   -814.97066     102002.7      46.7237      46.7237      46.7237 
  169000    128.85224   -8204.8192   -7389.7928   -832.24103     102002.7      46.7237      46.7237      46.7237 
  170000    129.77619   -8200.0611   -7379.1905   -910.71715     102002.7      46.7237      46.7237      46.7237 
  171000    131.85124   -8179.9543   -7345.9584   -803.82897     102002.7      46.7237      46.7237      46.7237 
  172000    130.79286   -8196.9741   -7369.6728   -705.60322     102002.7      46.7237      46.7237      46.7237 
  173000    130.01836   -8177.8804   -7355.4779   -556.42943     102002.7      46.7237      46.7237      46.7237 
  174000    129.92124   -8192.8614   -7371.0734   -948.97803     102002.7      46.7237      46.7237      46.7237 
  175000    129.55698    -8185.416   -7365.9319   -902.23924     102002.7      46.7237      46.7237      46.7237 
  176000    129.93769   -8173.3045   -7351.4123   -605.93588     102002.7      46.7237      46.7237      46.7237 
  177000    131.06285   -8196.4039   -7367.3948   -966.92374     102002.7      46.7237      46.7237      46.7237 
  178000    127.45935   -8174.0185   -7367.8025   -724.22226     102002.7      46.7237      46.7237      46.7237 
  179000    127.73267   -8203.0997   -7395.1549   -850.47469     102002.7      46.7237      46.7237      46.7237 
  180000    130.25935   -8193.2261   -7369.2994   -353.70679     102002.7      46.7237      46.7237      46.7237 
  181000    134.52303   -8237.6646   -7386.7689    -762.6592     102002.7      46.7237      46.7237      46.7237 
  182000    125.07707   -8227.0444   -7435.8971   -727.75769     102002.7      46.7237      46.7237      46.7237 
  183000    131.39505   -8205.0694    -7373.959   -270.57193     102002.7      46.7237      46.7237      46.7237 
  184000    135.02227   -8197.3238   -7343.2703   -1071.6529     102002.7      46.7237      46.7237      46.7237 
  185000    130.17958   -8197.0137   -7373.5916   -887.72603     102002.7      46.7237      46.7237      46.7237 
  186000    126.06874   -8215.3128   -7417.8928   -815.35997     102002.7      46.7237      46.7237      46.7237 
  187000    129.19856    -8193.381   -7376.1641   -1161.0942     102002.7      46.7237      46.7237      46.7237 
  188000    129.61417   -8181.4857   -7361.6399   -732.95996     102002.7      46.7237      46.7237      46.7237 
  189000    133.97925   -8193.6301   -7346.1739   -1120.3736     102002.7      46.7237      46.7237      46.7237 
  190000    130.21578   -8189.3085   -7365.6574   -1217.3097     102002.7      46.7237      46.7237      46.7237 
  191000    128.76844   -8192.1349   -7377.6386   -542.53218     102002.7      46.7237      46.7237      46.7237 
  192000    129.86552   -8204.9037    -7383.468   -623.66081     102002.7      46.7237      46.7237      46.7237 
  193000     126.8543   -8217.4579    -7415.069   -858.27341     102002.7      46.7237      46.7237      46.7237 
  194000    130.58513   -8193.1928   -7367.2055   -794.38505     102002.7      46.7237      46.7237      46.7237 
  195000    130.02643   -8196.3741   -7373.9207   -729.80342     102002.7      46.7237      46.7237      46.7237 
  196000    129.07612   -8182.9492   -7366.5068   -609.90542     102002.7      46.7237      46.7237      46.7237 
  197000    126.64366   -8220.9348   -7419.8783    -617.3591     102002.7      46.7237      46.7237      46.7237 
  198000    125.63631   -8186.8059   -7392.1212   -881.45333     102002.7      46.7237      46.7237      46.7237 
  199000     128.7872   -8208.8564   -7394.2415   -463.13851     102002.7      46.7237      46.7237      46.7237 
  200000    125.65519   -8183.7867   -7388.9826   -579.59248     102002.7      46.7237      46.7237      46.7237 
  201000    133.58779   -8196.2274   -7351.2474   -1121.4865     102002.7      46.7237      46.7237      46.7237 
  202000    127.81674   -8187.4925   -7379.0159   -703.89502     102002.7      46.7237      46.7237      46.7237 
  203000      131.831   -8171.9079   -7338.0401   -576.28479     102002.7      46.7237      46.7237      46.7237 
  204000    129.34827   -8223.2041   -7405.0402   -762.34083     102002.7      46.7237      46.7237      46.7237 
  205000    128.39721   -8196.9114   -7384.7632   -856.58496     102002.7      46.7237      46.7237      46.7237 
  206000    127.79117   -8208.2979   -7399.9831    -1098.149     102002.7      46.7237      46.7237      46.7237 
  207000    130.33004   -8181.6374   -7357.2636   -796.69722     102002.7      46.7237      46.7237      46.7237 
  208000    127.76421    -8203.353   -7395.2087   -1077.4573     102002.7      46.7237      46.7237      46.7237 
  209000    130.60158   -8187.9297   -7361.8383   -938.02567     102002.7      46.7237      46.7237      46.7237 
  210000    132.07561   -8200.6532   -7365.2381   -1224.4407     102002.7      46.7237      46.7237      46.7237 
  211000    133.85758   -8215.5837   -7368.8972   -727.31683     102002.7      46.7237      46.7237      46.7237 
  212000    129.86626   -8181.2783    -7359.838   -775.08341     102002.7      46.7237      46.7237      46.7237 
  213000    128.37097   -8198.9742   -7386.9921   -1031.2223     102002.7      46.7237      46.7237      46.7237 
  214000    133.57889   -8201.2532   -7356.3295   -962.23969     102002.7      46.7237      46.7237      46.7237 
  215000    128.58475   -8181.0429   -7367.7085   -629.72918     102002.7      46.7237      46.7237      46.7237 
  216000     131.5537   -8194.1175   -7362.0037   -948.03226     102002.7      46.7237      46.7237      46.7237 
  217000    126.77361    -8229.272   -7427.3935   -611.51508     102002.7      46.7237      46.7237      46.7237 
  218000    127.24761   -8177.3969   -7372.5202   -668.51321     102002.7      46.7237      46.7237      46.7237 
  219000    133.28245   -8208.4451   -7365.3965   -793.76763     102002.7      46.7237      46.7237      46.7237 
  220000    133.83378   -8212.5428   -7366.0068   -437.93536     102002.7      46.7237      46.7237      46.7237 
  221000    126.72978   -8192.0721    -7390.471   -888.66378     102002.7      46.7237      46.7237      46.7237 
  222000    130.10069    -8239.885   -7416.9618   -641.58409     102002.7      46.7237      46.7237      46.7237 
  223000    130.57138   -8177.9132   -7352.0128   -883.35764     102002.7      46.7237      46.7237      46.7237 
  224000    129.97313    -8216.254   -7394.1377   -1081.9824     102002.7      46.7237      46.7237      46.7237 
  225000    130.19261   -8192.5932   -7369.0886   -761.60695     102002.7      46.7237      46.7237      46.7237 
  226000    125.67896   -8172.2151   -7377.2607   -758.29425     102002.7      46.7237      46.7237      46.7237 
  227000    131.27536   -8204.0301   -7373.6768   -563.07316     102002.7      46.7237      46.7237      46.7237 
  228000    133.48181   -8177.6758   -7333.3662   -744.34512     102002.7      46.7237      46.7237      46.7237 
  229000    132.05722   -8182.8918    -7347.593    -719.1581     102002.7      46.7237      46.7237      46.7237 
  230000    132.23617   -8171.0484   -7334.6177   -890.01058     102002.7      46.7237      46.7237      46.7237 
  231000    134.12185    -8201.981   -7353.6229   -579.28907     102002.7      46.7237      46.7237      46.7237 
  232000     130.0375   -8211.4807   -7388.9572   -864.52567     102002.7      46.7237      46.7237      46.7237 
  233000    123.68706   -8189.5596   -7407.2044   -1039.8256     102002.7      46.7237      46.7237      46.7237 
  234000    129.35308   -8193.4771   -7375.2827   -950.38014     102002.7      46.7237      46.7237      46.7237 
  235000    130.44685   -8180.8474   -7355.7346   -860.83763     102002.7      46.7237      46.7237      46.7237 
  236000    133.78123   -8192.3637   -7346.1601    -953.8143     102002.7      46.7237      46.7237      46.7237 
  237000    128.81948   -8210.6022    -7395.783   -647.72126     102002.7      46.7237      46.7237      46.7237 
  238000    128.46732   -8182.3223   -7369.7306   -657.86574     102002.7      46.7237      46.7237      46.7237 
  239000    127.46325   -8201.7145   -7395.4739   -739.34948     102002.7      46.7237      46.7237      46.7237 
  240000    125.77292   -8206.4155   -7410.8667   -953.68049     102002.7      46.7237      46.7237      46.7237 
  241000     129.2897   -8200.3967   -7382.6033   -933.61698     102002.7      46.7237      46.7237      46.7237 
  242000    132.91191    -8192.798   -7352.0931   -972.20017     102002.7      46.7237      46.7237      46.7237 
  243000    131.86562   -8191.5871   -7357.5003   -774.26647     102002.7      46.7237      46.7237      46.7237 
  244000    129.41532   -8215.4129   -7396.8249   -719.84613     102002.7      46.7237      46.7237      46.7237 
  245000    129.59953   -8193.3983   -7373.6451   -949.27687     102002.7      46.7237      46.7237      46.7237 
  246000     130.7599   -8192.4342   -7365.3414   -879.25468     102002.7      46.7237      46.7237      46.7237 
  247000    130.99135   -8227.1303   -7398.5735   -820.21846     102002.7      46.7237      46.7237      46.7237 
  248000    131.54918   -8179.1951   -7347.1098   -928.65457     102002.7      46.7237      46.7237      46.7237 
  249000    128.92597   -8211.5872   -7396.0945   -884.89572     102002.7      46.7237      46.7237      46.7237 
  250000     131.6825   -8193.7092   -7360.7806   -866.52698     102002.7      46.7237      46.7237      46.7237 
  251000    128.46984   -8214.1826    -7401.575   -722.11614     102002.7      46.7237      46.7237      46.7237 
  252000    132.88169   -8187.9326   -7347.4189    -886.2077     102002.7      46.7237      46.7237      46.7237 
  253000    132.64078   -8206.8649    -7367.875   -872.49664     102002.7      46.7237      46.7237      46.7237 
  254000    135.65841   -8212.2366   -7354.1593   -652.86816     102002.7      46.7237      46.7237      46.7237 
  255000    130.46612    -8181.722   -7356.4874   -833.56142     102002.7      46.7237      46.7237      46.7237 
  256000    128.28682   -8202.2926   -7390.8427   -1045.6091     102002.7      46.7237      46.7237      46.7237 
  257000    128.10802   -8207.2715   -7396.9526   -726.71067     102002.7      46.7237      46.7237      46.7237 
  258000    128.50568   -8211.0946   -7398.2603   -624.21825     102002.7      46.7237      46.7237      46.7237 
  259000    127.60448   -8217.6472   -7410.5133   -584.47157     102002.7      46.7237      46.7237      46.7237 
  260000    128.75574   -8195.7111   -7381.2951   -461.98832     102002.7      46.7237      46.7237      46.7237 
  261000    134.70575   -8231.5255   -7379.4741   -517.11322     102002.7      46.7237      46.7237      46.7237 
  262000    129.53098   -8238.7406    -7419.421   -674.19483     102002.7      46.7237      46.7237      46.7237 
  263000    132.40613   -8205.7598   -7368.2541    -558.2862     102002.7      46.7237      46.7237      46.7237 
  264000    128.84556   -8219.0659   -7404.0818   -645.59003     102002.7      46.7237      46.7237      46.7237 
  265000    128.69316   -8183.3914   -7369.3712   -665.26475     102002.7      46.7237      46.7237      46.7237 
  266000     127.3932   -8196.6745    -7390.877   -709.12025     102002.7      46.7237      46.7237      46.7237 
  267000    127.55663   -8183.8142   -7376.9829   -625.63892     102002.7      46.7237      46.7237      46.7237 
  268000     127.7412   -8151.9616   -7343.9629     -844.714     102002.7      46.7237      46.7237      46.7237 
  269000    128.11252   -8175.5471   -7365.1997   -760.82236     102002.7      46.7237      46.7237      46.7237 
  270000    126.62364   -8204.9768    -7404.047   -868.00936     102002.7      46.7237      46.7237      46.7237 
  271000    127.87282   -8205.8983   -7397.0671   -1101.4255     102002.7      46.7237      46.7237      46.7237 
  272000    133.99387   -8153.7252   -7306.1766   -859.29937     102002.7      46.7237      46.7237      46.7237 
  273000    132.75657   -8216.7171   -7376.9948   -969.52938     102002.7      46.7237      46.7237      46.7237 
  274000     129.7491   -8199.1137   -7378.4145   -763.46251     102002.7      46.7237      46.7237      46.7237 
  275000    134.00151   -8209.1747   -7361.5778   -1216.8121     102002.7      46.7237      46.7237      46.7237 
  276000    129.73808    -8180.989   -7360.3595   -931.68994     102002.7      46.7237      46.7237      46.7237 
  277000    130.41765   -8211.6325   -7386.7045   -1214.6094     102002.7      46.7237      46.7237      46.7237 
  278000    127.08019   -8199.2336   -7395.4159   -1167.0234     102002.7      46.7237      46.7237      46.7237 
  279000     125.0504   -8179.6677    -7388.689   -996.17402     102002.7      46.7237      46.7237      46.7237 
  280000    129.31354   -8189.7973    -7371.853   -959.04299     102002.7      46.7237      46.7237      46.7237 
  281000    126.45778   -8203.1534   -7403.2727   -926.65373     102002.7      46.7237      46.7237      46.7237 
  282000    130.16517    -8207.905    -7384.574   -865.43191     102002.7      46.7237      46.7237      46.7237 
  283000    130.84348   -8180.3377   -7352.7162   -1033.3883     102002.7      46.7237      46.7237      46.7237 
  284000     134.4842   -8196.9484   -7346.2983   -818.39491     102002.7      46.7237      46.7237      46.7237 
  285000    127.63729   -8209.3162   -7401.9748   -881.22373     102002.7      46.7237      46.7237      46.7237 
  286000    127.42788   -8196.3469     -7390.33   -908.21386     102002.7      46.7237      46.7237      46.7237 
  287000    131.87073    -8177.961   -7343.8419   -771.89593     102002.7      46.7237      46.7237      46.7237 
  288000     127.7293   -8231.4614    -7423.538     -523.208     102002.7      46.7237      46.7237      46.7237 
  289000    128.32698   -8203.1105   -7391.4066   -993.34084     102002.7      46.7237      46.7237      46.7237 
  290000    128.98275    -8179.171   -7363.3191   -803.23183     102002.7      46.7237      46.7237      46.7237 
  291000    130.90381   -8203.1339   -7375.1309   -687.26261     102002.7      46.7237      46.7237      46.7237 
  292000    127.41923   -8216.9169   -7410.9547   -977.19243     102002.7      46.7237      46.7237      46.7237 
  293000    131.58867   -8212.6452   -7380.3102   -551.65476     102002.7      46.7237      46.7237      46.7237 
  294000    132.82785   -8166.0547   -7325.8816   -538.50485     102002.7      46.7237      46.7237      46.7237 
  295000    131.30665   -8193.7455   -7363.1943   -772.72528     102002.7      46.7237      46.7237      46.7237 
  296000    131.02264   -8216.1099   -7387.3551   -882.00234     102002.7      46.7237      46.7237      46.7237 
  297000    125.49079   -8171.6205   -7377.8562    -1162.195     102002.7      46.7237      46.7237      46.7237 
  298000    132.19997   -8181.9034   -7345.7017    -1052.292     102002.7      46.7237      46.7237      46.7237 
  299000    129.78016   -8199.4242   -7378.5285   -707.52141     102002.7      46.7237      46.7237      46.7237 
  300000    131.39206   -8207.1283   -7376.0369   -868.93831     102002.7      46.7237      46.7237      46.7237 
  301000    127.04861    -8202.696   -7399.0781   -934.02298     102002.7      46.7237      46.7237      46.7237 
  302000    130.13769   -8198.4428   -7375.2856   -739.47413     102002.7      46.7237      46.7237      46.7237 
  303000    126.75727   -8162.4311    -7360.656   -560.99542     102002.7      46.7237      46.7237      46.7237 
  304000    131.57912   -8177.0257    -7344.751   -726.94762     102002.7      46.7237      46.7237      46.7237 
  305000    127.78358    -8204.048   -7395.7813   -854.86917     102002.7      46.7237      46.7237      46.7237 
  306000    131.93344   -8196.9963   -7362.4804   -826.97428     102002.7      46.7237      46.7237      46.7237 
  307000    135.53867   -8182.7128   -7325.3929   -762.08639     102002.7      46.7237      46.7237      46.7237 
  308000    130.54642   -8212.8407   -7387.0982   -773.43494     102002.7      46.7237      46.7237      46.7237 
  309000    127.34902   -8187.7251   -7382.2071   -353.32724     102002.7      46.7237      46.7237      46.7237 
  310000    127.73175   -8200.7179   -7392.7789   -804.26296     102002.7      46.7237      46.7237      46.7237 
  311000    127.97191   -8208.2471   -7398.7891   -952.04724     102002.7      46.7237      46.7237      46.7237 
  312000    132.81781   -8191.2689   -7351.1592   -470.73889     102002.7      46.7237      46.7237      46.7237 
  313000    128.09785   -8195.0745   -7384.8199   -920.99403     102002.7      46.7237      46.7237      46.7237 
  314000     126.7286     -8227.97   -7426.3763   -844.22606     102002.7      46.7237      46.7237      46.7237 
  315000     131.8892   -8223.3938   -7389.1578    -808.8877     102002.7      46.7237      46.7237      46.7237 
  316000    129.68196   -8194.5385   -7374.2639   -827.87591     102002.7      46.7237      46.7237      46.7237 
  317000    129.29759   -8161.0053    -7343.162   -818.73373     102002.7      46.7237      46.7237      46.7237 
  318000    127.27145   -8193.6448   -7388.6174   -1066.1568     102002.7      46.7237      46.7237      46.7237 
  319000    127.06052   -8227.8985   -7424.2053   -711.76817     102002.7      46.7237      46.7237      46.7237 
  320000    129.24656   -8177.5362   -7360.0156   -877.82294     102002.7      46.7237      46.7237      46.7237 
  321000    129.67761   -8196.7162   -7376.4691   -599.08353     102002.7      46.7237      46.7237      46.7237 
  322000    131.76514   -8191.9397   -7358.4884   -1072.2721     102002.7      46.7237      46.7237      46.7237 
  323000    126.50805   -8186.3175   -7386.1188   -770.16505     102002.7      46.7237      46.7237      46.7237 
  324000    129.42167   -8204.3267   -7385.6986   -440.55047     102002.7      46.7237      46.7237      46.7237 
  325000    130.97903   -8182.2564   -7353.7775   -1198.8049     102002.7      46.7237      46.7237      46.7237 
  326000    129.75834   -8192.2463   -7371.4886   -1017.4398     102002.7      46.7237      46.7237      46.7237 
  327000    131.22715   -8194.1639   -7364.1156   -695.48468     102002.7      46.7237      46.7237      46.7237 
  328000    127.91959   -8221.9852   -7412.8581   -803.42846     102002.7      46.7237      46.7237      46.7237 
  329000    129.65893   -8183.2636   -7363.1347   -837.40676     102002.7      46.7237      46.7237      46.7237 
  330000    131.80824   -8153.6373   -7319.9134   -1129.5226     102002.7      46.7237      46.7237      46.7237 
  331000    134.61235   -8186.6763   -7335.2157   -826.58531     102002.7      46.7237      46.7237      46.7237 
  332000    127.70442   -8189.1106   -7381.3445   -939.43353     102002.7      46.7237      46.7237      46.7237 
  333000    129.38948   -8179.1996    -7360.775   -854.40039     102002.7      46.7237      46.7237      46.7237 
  334000    131.69101   -8216.5101   -7383.5277   -1071.9996     102002.7      46.7237      46.7237      46.7237 
  335000    131.33961   -8202.4076   -7371.6479   -692.47009     102002.7      46.7237      46.7237      46.7237 
  336000    134.70405   -8180.8651   -7328.8245   -623.20875     102002.7      46.7237      46.7237      46.7237 
  337000    130.25559   -8185.4125   -7361.5096   -954.19778     102002.7      46.7237      46.7237      46.7237 
  338000    130.56068   -8211.9793   -7386.1465   -673.79548     102002.7      46.7237      46.7237      46.7237 
  339000    128.10677   -8201.8364   -7391.5254   -1139.9995     102002.7      46.7237      46.7237      46.7237 
  340000    125.77969   -8197.2116   -7401.6199   -523.01417     102002.7      46.7237      46.7237      46.7237 
  341000    126.92926   -8160.5523   -7357.6893   -718.79418     102002.7      46.7237      46.7237      46.7237 
  342000    129.04863   -8216.4887   -7400.2201   -816.71831     102002.7      46.7237      46.7237      46.7237 
  343000    130.31781   -8176.5036    -7352.207    -567.2945     102002.7      46.7237      46.7237      46.7237 
  344000    131.26227   -8173.6283   -7343.3578   -815.00009     102002.7      46.7237      46.7237      46.7237 
  345000    129.64231   -8211.9427   -7391.9189   -741.41032     102002.7      46.7237      46.7237      46.7237 
  346000    132.53648    -8216.191   -7377.8608    -705.2737     102002.7      46.7237      46.7237      46.7237 
  347000    127.97806   -8185.0423   -7375.5454   -640.08781     102002.7      46.7237      46.7237      46.7237 
  348000    131.87287   -8155.7022   -7321.5695   -524.88735     102002.7      46.7237      46.7237      46.7237 
  349000    130.67067   -8161.8773   -7335.3488   -832.55279     102002.7      46.7237      46.7237      46.7237 
  350000    128.56547   -8203.4981   -7390.2856   -971.59288     102002.7      46.7237      46.7237      46.7237 
  351000    132.31532   -8184.0702   -7347.1389   -754.55845     102002.7      46.7237      46.7237      46.7237 
  352000    129.69393   -8170.4585   -7350.1082   -729.24835     102002.7      46.7237      46.7237      46.7237 
  353000    127.37139   -8173.2082   -7367.5486   -651.44095     102002.7      46.7237      46.7237      46.7237 
  354000    127.48779   -8201.4558   -7395.0599   -783.80315     102002.7      46.7237      46.7237      46.7237 
  355000    129.34787   -8208.7763   -7390.6149   -965.55712     102002.7      46.7237      46.7237      46.7237 
  356000    129.54364   -8210.0532   -7390.6535    -933.0879     102002.7      46.7237      46.7237      46.7237 
  357000     129.9032    -8154.301    -7332.627   -989.10387     102002.7      46.7237      46.7237      46.7237 
  358000    127.56754     -8196.61   -7389.7098   -744.19761     102002.7      46.7237      46.7237      46.7237 
  359000    133.95646   -8200.4366   -7353.1246   -1183.2787     102002.7      46.7237      46.7237      46.7237 
  360000    129.58848   -8201.5144   -7381.8311   -961.50306     102002.7      46.7237      46.7237      46.7237 
  361000    129.87772   -8185.3161   -7363.8033   -737.29112     102002.7      46.7237      46.7237      46.7237 
  362000    128.24927   -8210.1081   -7398.8957   -939.48469     102002.7      46.7237      46.7237      46.7237 
  363000    134.56613    -8196.583   -7345.4146    -790.5071     102002.7      46.7237      46.7237      46.7237 
  364000    131.33801   -8186.5357   -7355.7862   -602.64116     102002.7      46.7237      46.7237      46.7237 
  365000    128.88157   -8190.1316   -7374.9197   -685.27238     102002.7      46.7237      46.7237      46.7237 
  366000    132.71728   -8188.6165   -7349.1427   -605.17572     102002.7      46.7237      46.7237      46.7237 
  367000    131.91965   -8151.2791   -7316.8505   -698.38885     102002.7      46.7237      46.7237      46.7237 
  368000    130.34668   -8191.5823   -7367.1032   -848.33491     102002.7      46.7237      46.7237      46.7237 
  369000     129.3636   -8144.9431   -7326.6823   -735.46946     102002.7      46.7237      46.7237      46.7237 
  370000    131.83671   -8183.7814   -7349.8774   -890.23245     102002.7      46.7237      46.7237      46.7237 
  371000     130.2175   -8222.3168   -7398.6548   -279.26628     102002.7      46.7237      46.7237      46.7237 
  372000     133.5922   -8209.2148   -7364.2068   -723.25787     102002.7      46.7237      46.7237      46.7237 
  373000    133.28186   -8187.4031   -7344.3581   -935.11902     102002.7      46.7237      46.7237      46.7237 
  374000    131.73062   -8190.6265   -7357.3936   -466.71057     102002.7      46.7237      46.7237      46.7237 
  375000    128.18934   -8199.9948   -7389.1615   -578.94304     102002.7      46.7237      46.7237      46.7237 
  376000    127.68655   -8206.1105   -7398.4575   -733.23849     102002.7      46.7237      46.7237      46.7237 
  377000    127.28689   -8153.0617   -7347.9367   -831.41769     102002.7      46.7237      46.7237      46.7237 
  378000    132.64411   -8207.0202   -7368.0092   -772.28764     102002.7      46.7237      46.7237      46.7237 
  379000     130.9415   -8200.2716   -7372.0301   -644.09306     102002.7      46.7237      46.7237      46.7237 
  380000    127.17351   -8207.5695   -7403.1616    -1099.447     102002.7      46.7237      46.7237      46.7237 
  381000    132.76747   -8179.5748   -7339.7835   -347.35603     102002.7      46.7237      46.7237      46.7237 
  382000    132.18381   -8193.2034   -7357.1039    -1264.491     102002.7      46.7237      46.7237      46.7237 
  383000    125.98529    -8206.047   -7409.1549   -942.35879     102002.7      46.7237      46.7237      46.7237 
  384000    129.85025   -8202.4263   -7381.0873   -904.76419     102002.7      46.7237      46.7237      46.7237 
  385000    133.33925     -8194.49    -7351.082    -889.1684     102002.7      46.7237      46.7237      46.7237 
  386000    133.04197   -8208.9291   -7367.4015   -940.72795     102002.7      46.7237      46.7237      46.7237 
  387000    127.17228   -8194.1692    -7389.769   -913.83183     102002.7      46.7237      46.7237      46.7237 
  388000    132.95138   -8194.0151   -7353.0605   -725.79108     102002.7      46.7237      46.7237      46.7237 
  389000    128.71821   -8188.5441   -7374.3655   -609.97949     102002.7      46.7237      46.7237      46.7237 
  390000    127.23581   -8194.8164   -7390.0144   -1049.9653     102002.7      46.7237      46.7237      46.7237 
  391000    127.78458   -8218.5502   -7410.2772   -611.29434     102002.7      46.7237      46.7237      46.7237 
  392000    127.97538   -8193.9659   -7384.4859   -702.85112     102002.7      46.7237      46.7237      46.7237 
  393000    129.92458   -8205.8381   -7384.0289   -754.15617     102002.7      46.7237      46.7237      46.7237 
  394000    131.66193   -8189.9901   -7357.1917   -474.62252     102002.7      46.7237      46.7237      46.7237 
  395000    132.14403   -8164.7936   -7328.9458   -749.26348     102002.7      46.7237      46.7237      46.7237 
  396000    129.89087   -8195.6069   -7374.0109   -447.59955     102002.7      46.7237      46.7237      46.7237 
  397000     129.1464   -8210.6766   -7393.7896   -780.33787     102002.7      46.7237      46.7237      46.7237 
  398000    128.97346   -8172.8776   -7357.0845   -466.31886     102002.7      46.7237      46.7237      46.7237 
  399000    130.11368   -8200.4996   -7377.4942   -369.83965     102002.7      46.7237      46.7237      46.7237 
  400000    130.12869   -8212.1723   -7389.0721   -766.42851     102002.7      46.7237      46.7237      46.7237 
  401000    131.76989   -8187.5113   -7354.0299   -725.25711     102002.7      46.7237      46.7237      46.7237 
  402000    132.44747   -8203.9014   -7366.1342   -719.94486     102002.7      46.7237      46.7237      46.7237 
  403000    133.49665   -8174.8363   -7330.4328   -686.89714     102002.7      46.7237      46.7237      46.7237 
  404000    130.72383   -8206.2612   -7379.3965    -926.6197     102002.7      46.7237      46.7237      46.7237 
  405000    131.60288   -8195.3391   -7362.9141   -699.10751     102002.7      46.7237      46.7237      46.7237 
  406000    136.12261    -8205.952   -7344.9386   -679.79542     102002.7      46.7237      46.7237      46.7237 
  407000    132.30473   -8212.1533    -7375.289   -647.06117     102002.7      46.7237      46.7237      46.7237 
  408000    126.93789   -8202.6748   -7399.7573   -910.18414     102002.7      46.7237      46.7237      46.7237 
  409000    131.72687   -8227.8066   -7394.5974   -956.54926     102002.7      46.7237      46.7237      46.7237 
  410000    128.85864   -8207.0689    -7392.002   -464.67391     102002.7      46.7237      46.7237      46.7237 
  411000    130.85632   -8196.8068   -7369.1041   -811.53959     102002.7      46.7237      46.7237      46.7237 
  412000    133.36742   -8187.0398   -7343.4537   -450.59382     102002.7      46.7237      46.7237      46.7237 
  413000    130.64183   -8226.2038   -7399.8578   -497.73175     102002.7      46.7237      46.7237      46.7237 
  414000    127.74003   -8207.9706   -7399.9793   -854.26113     102002.7      46.7237      46.7237      46.7237 
  415000    126.67309   -8214.9631   -7413.7205   -378.38711     102002.7      46.7237      46.7237      46.7237 
  416000    132.41396   -8212.4807   -7374.9255   -551.17241     102002.7      46.7237      46.7237      46.7237 
  417000    127.01837   -8223.1096    -7419.683    -502.8099     102002.7      46.7237      46.7237      46.7237 
  418000    127.20519    -8234.725   -7430.1167   -927.87121     102002.7      46.7237      46.7237      46.7237 
  419000    128.99612   -8194.4886   -7378.5521   -825.29515     102002.7      46.7237      46.7237      46.7237 
  420000     128.6839   -8231.0562   -7417.0946   -928.86728     102002.7      46.7237      46.7237      46.7237 
  421000    130.66138   -8206.3147    -7379.845    -805.8041     102002.7      46.7237      46.7237      46.7237 
  422000    128.43825   -8213.3381   -7400.9303   -862.25025     102002.7      46.7237      46.7237      46.7237 
  423000    131.29065   -8172.2256   -7341.7756   -790.13985     102002.7      46.7237      46.7237      46.7237 
  424000     129.1762    -8211.969   -7394.8935   -694.12593     102002.7      46.7237      46.7237      46.7237 
  425000    128.70581   -8230.3398   -7416.2396    -872.1058     102002.7      46.7237      46.7237      46.7237 
  426000    132.13197   -8244.2465   -7408.4749   -920.56468     102002.7      46.7237      46.7237      46.7237 
  427000    131.05017   -8204.0395   -7375.1107   -259.39906     102002.7      46.7237      46.7237      46.7237 
  428000    128.54552   -8184.1877   -7371.1014   -624.95387     102002.7      46.7237      46.7237      46.7237 
  429000    126.99057   -8194.8548   -7391.6041   -677.11794     102002.7      46.7237      46.7237      46.7237 
  430000    124.27618   -8198.0366   -7411.9552   -687.55884     102002.7      46.7237      46.7237      46.7237 
  431000    129.57394   -8206.4701   -7386.8788   -465.52173     102002.7      46.7237      46.7237      46.7237 
  432000    132.01311   -8169.8628   -7334.8431   -689.72563     102002.7      46.7237      46.7237      46.7237 
  433000    131.28582   -8199.1106   -7368.6912   -569.15127     102002.7      46.7237      46.7237      46.7237 
  434000    127.87423   -8199.0097   -7390.1696   -539.13035     102002.7      46.7237      46.7237      46.7237 
  435000    127.87972   -8199.9556   -7391.0808   -624.32089     102002.7      46.7237      46.7237      46.7237 
  436000    131.16371   -8212.3944   -7382.7473   -824.78968     102002.7      46.7237      46.7237      46.7237 
  437000    128.44407    -8209.891   -7397.4464   -563.96324     102002.7      46.7237      46.7237      46.7237 
  438000    131.39175   -8198.5293   -7367.4398   -729.04453     102002.7      46.7237      46.7237      46.7237 
  439000     134.0506   -8209.2384    -7361.331   -463.01666     102002.7      46.7237      46.7237      46.7237 
  440000    127.43875   -8194.9727    -7388.887     -619.687     102002.7      46.7237      46.7237      46.7237 
  441000    132.85278   -8206.6827   -7366.3518   -747.21483     102002.7      46.7237      46.7237      46.7237 
  442000    128.16276   -8212.9903   -7402.3251   -822.44717     102002.7      46.7237      46.7237      46.7237 
  443000    128.49244   -8186.0964   -7373.3458   -940.77479     102002.7      46.7237      46.7237      46.7237 
  444000    130.06177   -8191.3587   -7368.6817   -759.32057     102002.7      46.7237      46.7237      46.7237 
  445000    127.81585    -8193.912   -7385.4411   -786.25068     102002.7      46.7237      46.7237      46.7237 
  446000     122.7242   -8218.9365   -7442.6717   -686.37194     102002.7      46.7237      46.7237      46.7237 
  447000     129.5435   -8191.1282   -7371.7295   -582.34361     102002.7      46.7237      46.7237      46.7237 
  448000    131.14032   -8199.0686   -7369.5695   -577.26851     102002.7      46.7237      46.7237      46.7237 
  449000    128.50855   -8234.3373   -7421.4849   -585.07224     102002.7      46.7237      46.7237      46.7237 
  450000    128.21454   -8202.2006   -7391.2079   -578.60016     102002.7      46.7237      46.7237      46.7237 
  451000    130.79602   -8211.0915   -7383.7702   -607.07737     102002.7      46.7237      46.7237      46.7237 
  452000    129.55858   -8191.6487   -7372.1546   -805.95342     102002.7      46.7237      46.7237      46.7237 
  453000    128.80671   -8178.2242   -7363.4858   -621.12141     102002.7      46.7237      46.7237      46.7237 
  454000    131.63944   -8225.8711    -7393.215   -568.37091     102002.7      46.7237      46.7237      46.7237 
  455000    130.66698   -8202.3839   -7375.8788   -896.13721     102002.7      46.7237      46.7237      46.7237 
  456000    127.83373    -8185.403    -7376.819   -970.26068     102002.7      46.7237      46.7237      46.7237 
  457000    127.07168   -8202.1246   -7398.3607   -603.51276     102002.7      46.7237      46.7237      46.7237 
  458000    131.40949   -8204.4763   -7373.2746   -624.74776     102002.7      46.7237      46.7237      46.7237 
  459000    126.02995   -8226.4576    -7429.283   -901.33247     102002.7      46.7237      46.7237      46.7237 
  460000    126.06368   -8189.8019   -7392.4139   -960.93269     102002.7      46.7237      46.7237      46.7237 
  461000    133.86351   -8210.2302   -7363.5061   -807.81368     102002.7      46.7237      46.7237      46.7237 
  462000    133.74227   -8196.4939   -7350.5367   -775.12842     102002.7      46.7237      46.7237      46.7237 
  463000    130.39541   -8209.0963   -7384.3089    -836.6874     102002.7      46.7237      46.7237      46.7237 
  464000    130.95174   -8236.3801   -7408.0738   -716.96843     102002.7      46.7237      46.7237      46.7237 
  465000    127.64102   -8203.0844   -7395.7193   -694.19879     102002.7      46.7237      46.7237      46.7237 
  466000    129.83978   -8196.4381   -7375.1653   -745.85665     102002.7      46.7237      46.7237      46.7237 
  467000    131.47457   -8234.7364   -7403.1231   -651.89578     102002.7      46.7237      46.7237      46.7237 
  468000    134.51711   -8243.5198   -7392.6615   -727.65751     102002.7      46.7237      46.7237      46.7237 
  469000    130.66026   -8220.6644   -7394.2018    -541.4786     102002.7      46.7237      46.7237      46.7237 
  470000    130.63878    -8197.053   -7370.7262   -732.96366     102002.7      46.7237      46.7237      46.7237 
  471000     128.9663   -8226.3232   -7410.5754   -787.41832     102002.7      46.7237      46.7237      46.7237 
  472000    127.99244   -8214.8475   -7405.2596   -770.53702     102002.7      46.7237      46.7237      46.7237 
  473000    131.48055   -8185.0067   -7353.3555   -1234.8384     102002.7      46.7237      46.7237      46.7237 
  474000    128.27384   -8190.6737   -7379.3058   -957.15827     102002.7      46.7237      46.7237      46.7237 
  475000    132.88086   -8220.0933   -7379.5847   -810.94864     102002.7      46.7237      46.7237      46.7237 
  476000    132.59229    -8195.399   -7356.7157   -962.03268     102002.7      46.7237      46.7237      46.7237 
  477000    132.45488    -8211.736   -7373.9219   -728.83511     102002.7      46.7237      46.7237      46.7237 
  478000    128.30673   -8223.7095   -7412.1336   -550.67235     102002.7      46.7237      46.7237      46.7237 
  479000    129.57297   -8197.9765   -7378.3913   -558.53893     102002.7      46.7237      46.7237      46.7237 
  480000    130.06519   -8216.0439   -7393.3453   -772.69554     102002.7      46.7237      46.7237      46.7237 
  481000    134.08557   -8212.9792   -7364.8506   -689.18372     102002.7      46.7237      46.7237      46.7237 
  482000    130.97248   -8213.4194   -7384.9819   -616.47179     102002.7      46.7237      46.7237      46.7237 
  483000     131.9124   -8205.2468   -7370.8641   -755.61108     102002.7      46.7237      46.7237      46.7237 
  484000    129.33045   -8247.0895   -7429.0384   -656.19041     102002.7      46.7237      46.7237      46.7237 
  485000    126.80305   -8201.0948   -7399.0301   -802.23745     102002.7      46.7237      46.7237      46.7237 
  486000     127.0806   -8231.9716   -7428.1513   -601.92415     102002.7      46.7237      46.7237      46.7237 
  487000    131.20746   -8205.1798   -7375.2561   -846.46538     102002.7      46.7237      46.7237      46.7237 
  488000    132.64684   -8187.0734   -7348.0451   -896.99542     102002.7      46.7237      46.7237      46.7237 
  489000    126.33816   -8214.2827   -7415.1586   -919.92181     102002.7      46.7237      46.7237      46.7237 
  490000    128.93618   -8212.8478   -7397.2905   -699.67919     102002.7      46.7237      46.7237      46.7237 
  491000    131.04857   -8220.6321   -7391.7133   -575.03381     102002.7      46.7237      46.7237      46.7237 
  492000    131.30747   -8244.3265   -7413.7702   -334.19042     102002.7      46.7237      46.7237      46.7237 
  493000    132.86459   -8208.8527   -7368.4471   -528.96023     102002.7      46.7237      46.7237      46.7237 
  494000    126.84496   -8208.0822   -7405.7524   -680.98448     102002.7      46.7237      46.7237      46.7237 
  495000     133.0113   -8195.4752   -7354.1416   -620.73002     102002.7      46.7237      46.7237      46.7237 
  496000    130.46345   -8200.4143   -7375.1966   -766.16631     102002.7      46.7237      46.7237      46.7237 
  497000    128.24053   -8178.6962   -7367.5391    -749.8759     102002.7      46.7237      46.7237      46.7237 
  498000    129.99307   -8199.0366   -7376.7942   -638.73745     102002.7      46.7237      46.7237      46.7237 
  499000    130.10079   -8221.4521   -7398.5283    -632.3888     102002.7      46.7237      46.7237      46.7237 
  500000      128.866     -8247.16   -7432.0466   -966.90809     102002.7      46.7237      46.7237      46.7237 
  500500     128.1425   -8189.6229   -7379.0858   -898.53233     102002.7      46.7237      46.7237      46.7237 
Loop time of 1483.86 on 16 procs for 500000 steps with 2123 atoms

Performance: 29.113 ns/day, 0.824 hours/ns, 336.960 timesteps/s
99.8% CPU use with 16 MPI tasks x no OpenMP threads

MPI task timing breakdown:
Section |  min time  |  avg time  |  max time  |%varavg| %total
---------------------------------------------------------------
Pair    | 516.05     | 792.36     | 1080.2     | 709.4 | 53.40
Bond    | 146.98     | 174.21     | 202.77     | 157.8 | 11.74
Neigh   | 8.965      | 8.9872     | 9.0077     |   0.5 |  0.61
Comm    | 178.22     | 493.45     | 789.94     | 984.3 | 33.25
Output  | 0.020338   | 0.020796   | 0.023716   |   0.5 |  0.00
Modify  | 8.1756     | 9.3281     | 11.196     |  32.7 |  0.63
Other   |            | 5.501      |            |       |  0.37

Nlocal:    132.688 ave 163 max 90 min
Histogram: 1 1 2 0 2 3 1 1 1 4
Nghost:    2700.19 ave 2758 max 2660 min
Histogram: 2 1 4 0 2 4 1 1 0 1
Neighs:    11461.6 ave 17157 max 4977 min
Histogram: 1 3 3 1 0 1 0 0 2 5

Total # of neighbors = 183386
Ave neighs/atom = 86.3806
Ave special neighs/atom = 5.42628
Neighbor list builds = 4921
Dangerous builds = 0
Neighbor list info ...
  update every 1 steps, delay 10 steps, check yes
  max neighbors/atom: 2000, page size: 100000
  master list distance cutoff = 16
  ghost atom cutoff = 16
  binsize = 8, bins = 6 6 6
  3 neighbor lists, perpetual/occasional/extra = 3 0 0
  (1) pair buck6d/coul/gauss/dsf, perpetual, skip from (3)
      attributes: half, newton on
      pair build: skip
      stencil: none
      bin: none
  (2) pair lj/cut, perpetual, skip from (3)
      attributes: half, newton on
      pair build: skip
      stencil: none
      bin: none
  (3) neighbor class addition, perpetual
      attributes: half, newton on
      pair build: half/bin/newton
      stencil: half/bin/3d/newton
      bin: standard
Setting up Verlet run ...
  Unit style    : real
  Current step  : 500500
  Time step     : 1
WARNING: Inconsistent image flags (../domain.cpp:786)
Per MPI rank memory allocation (min/avg/max) = 23.18 | 23.35 | 23.37 Mbytes
Step Time TotEng KinEng PotEng E_mol E_pair Temp Pxx Pyy Pzz Pxy Pxz Pyz Cella Cellb Cellc CellAlpha CellBeta CellGamma Volume Press 
  500500       500000   -7379.0858    810.53704   -8189.6229    4396.6783   -12586.301     128.1425   -911.49989   -718.76473   -1065.3324   -273.87529     25.90187   -165.30315      46.7237      46.7237      46.7237           90           90           90     102002.7   -898.53233 
  501000       500500   -7370.7451    832.95071   -8203.6958    4395.3826   -12599.078      131.686   -1066.5448   -676.50296   -588.22712   -310.16119   -48.035043   -9.6370565      46.7237      46.7237      46.7237           90           90           90     102002.7   -777.09163 
  502000       501500   -7390.5064    821.82981   -8212.3362    4383.7865   -12596.123    129.92784   -1225.8239   -1188.9954   -1273.1627   -124.97054    358.49027   -56.979686      46.7237      46.7237      46.7237           90           90           90     102002.7   -1229.3273 
  503000       502500   -7379.8229    821.45863   -8201.2816    4409.4616   -12610.743    129.86916   -874.12669   -1149.6918   -609.35639   -22.787436    595.48195    -113.4413      46.7237      46.7237      46.7237           90           90           90     102002.7   -877.72497 
  504000       503500   -7391.8094     823.0768   -8214.8862     4383.503   -12598.389    130.12498   -1181.3901   -651.14761    -791.3525    133.06416    271.15238   -9.5323581      46.7237      46.7237      46.7237           90           90           90     102002.7   -874.63006 
  505000       504500   -7364.7428    827.50003   -8192.2428    4386.5124   -12578.755    130.82428   -847.00528    -834.7433   -801.11872   -189.14059    66.060192    -88.67677      46.7237      46.7237      46.7237           90           90           90     102002.7   -827.62243 
  506000       505500   -7348.2065    852.47152    -8200.678    4397.6731   -12598.351    134.77216   -673.28921   -931.57161    -996.8782    -131.0214     53.68691    -37.65364      46.7237      46.7237      46.7237           90           90           90     102002.7   -867.24634 
  507000       506500   -7385.4307    825.86696   -8211.2976     4376.223   -12587.521    130.56609   -385.47402   -717.42746   -178.81613     238.5917    231.00508     107.8338      46.7237      46.7237      46.7237           90           90           90     102002.7    -427.2392 
  508000       507500   -7346.3539     826.9173   -8173.2712    4393.7986    -12567.07    130.73215   -272.33042   -1060.9975   -1463.4767    208.29359   -81.946304    143.30988      46.7237      46.7237      46.7237           90           90           90     102002.7   -932.26822 
  509000       508500   -7338.3238    867.24925    -8205.573    4390.0497   -12595.623    137.10846   -739.31658   -383.53318   -1151.7927    25.871637    30.591963   -14.318142      46.7237      46.7237      46.7237           90           90           90     102002.7   -758.21417 
  510000       509500      -7394.6    800.62456   -8195.2246     4386.583   -12581.808    126.57538   -602.95662   -1349.4049   -731.73974    73.537278    167.30502    174.06795      46.7237      46.7237      46.7237           90           90           90     102002.7   -894.70043 
  511000       510500    -7420.822    799.24175   -8220.0637    4387.3857   -12607.449    126.35676    -552.2323   -636.46782   -942.14835    10.310998    -86.40697     94.06665      46.7237      46.7237      46.7237           90           90           90     102002.7   -710.28282 
  512000       511500   -7364.0692     837.9386   -8202.0078    4361.3662   -12563.374    132.47457    -981.5417   -933.15627   -719.38099    144.46236    96.410384   -166.16027      46.7237      46.7237      46.7237           90           90           90     102002.7   -878.02632 
  513000       512500   -7401.4594    803.45336   -8204.9128    4366.2977    -12571.21     127.0226   -656.75541   -632.43844   -661.31263   -9.2291834    112.11453   -33.643542      46.7237      46.7237      46.7237           90           90           90     102002.7   -650.16883 
  514000       513500   -7382.4183    818.10371   -8200.5221    4388.0928   -12588.615    129.33876    -881.3429   -1241.3251   -593.30513   -168.56294    21.865724   -22.010075      46.7237      46.7237      46.7237           90           90           90     102002.7   -905.32437 
  515000       514500   -7369.6912    824.00379    -8193.695    4401.8024   -12595.497    130.27153   -800.94312   -1176.0328   -2005.5482    28.401444   -20.795278    254.52205      46.7237      46.7237      46.7237           90           90           90     102002.7    -1327.508 
  516000       515500   -7365.3707    847.38091   -8212.7516    4394.9108   -12607.662    133.96736   -939.94498    -679.8898   -1086.6705   -111.14301   -11.627219   -3.3802415      46.7237      46.7237      46.7237           90           90           90     102002.7   -902.16843 
  517000       516500   -7405.3388    822.48437   -8227.8232    4373.3965    -12601.22    130.03132   -624.87408    -1065.241    -515.0476   -64.506051    17.388806    272.54035      46.7237      46.7237      46.7237           90           90           90     102002.7   -735.05421 
  518000       517500   -7409.3101    810.36064   -8219.6708    4382.2916   -12601.962    128.11461   -1126.1406   -1065.7701   -1761.0173   -6.2283838   -95.469663    424.65759      46.7237      46.7237      46.7237           90           90           90     102002.7   -1317.6427 
  519000       518500   -7436.5816    801.35189   -8237.9335    4377.9326   -12615.866    126.69036   -583.17776    -1057.054   -1217.4936   -70.880698    212.20312    29.143989      46.7237      46.7237      46.7237           90           90           90     102002.7   -952.57512 
  520000       519500   -7386.1133    823.34096   -8209.4542    4368.3988   -12577.853    130.16674   -1040.7717   -1168.2577   -1005.5969    43.036883    117.80019   -95.949061      46.7237      46.7237      46.7237           90           90           90     102002.7   -1071.5421 
  521000       520500   -7379.3434    825.43154   -8204.7749    4371.8016   -12576.576    130.49725    -636.6596   -264.03877   -1238.1171    180.16907   -138.88254    -156.2941      46.7237      46.7237      46.7237           90           90           90     102002.7   -712.93848 
  522000       521500   -7380.0391    816.39254   -8196.4316    4406.1045   -12602.536    129.06823   -1009.3605   -712.72174   -560.91868   -22.571891    42.160679   -4.3347044      46.7237      46.7237      46.7237           90           90           90     102002.7   -761.00032 
  523000       522500   -7396.3634    833.78415   -8230.1476    4369.5861   -12599.734    131.81777   -684.47221   -1146.3604   -910.43414    86.650088    223.95575    262.90327      46.7237      46.7237      46.7237           90           90           90     102002.7   -913.75559 
  524000       523500     -7384.05    829.35861   -8213.4086    4362.2967   -12575.705    131.11811   -437.36082   -541.28317   -609.93744    104.07747    74.772282    204.68105      46.7237      46.7237      46.7237           90           90           90     102002.7   -529.52714 
  525000       524500   -7352.9282    853.46798   -8206.3961      4389.22   -12595.616     134.9297   -498.72446    -450.1102   -1421.6387   -215.63849    143.36202    19.375523      46.7237      46.7237      46.7237           90           90           90     102002.7   -790.15777 
  526000       525500   -7381.5436    813.15738    -8194.701    4388.9496   -12583.651    128.55676   -1100.7542   -915.54641   -1137.3905   -66.539507      -37.247   -63.911687      46.7237      46.7237      46.7237           90           90           90     102002.7   -1051.2304 
  527000       526500   -7387.0738    821.38573   -8208.4595    4372.0655   -12580.525    129.85763   -779.50721   -752.73989   -504.69737    142.66326   -12.792626   -372.45532      46.7237      46.7237      46.7237           90           90           90     102002.7   -678.98149 
  528000       527500   -7351.6529    845.36589   -8197.0188    4389.1427   -12586.161    133.64879   -717.88814   -738.04516   -910.98484   -99.853609    92.109646    158.42588      46.7237      46.7237      46.7237           90           90           90     102002.7   -788.97271 
  529000       528500   -7405.9345    807.70201   -8213.6365    4378.1391   -12591.776    127.69429    -640.8044   -544.21037   -818.57484    41.233408   -40.597191    323.56089      46.7237      46.7237      46.7237           90           90           90     102002.7    -667.8632 
  530000       529500   -7368.5534    830.54073   -8199.0942    4397.2003   -12596.294      131.305   -632.70815   -1156.2742   -696.34289   -1.1610483    299.46507   -45.251058      46.7237      46.7237      46.7237           90           90           90     102002.7   -828.44176 
  531000       530500   -7366.9924    807.85179   -8174.8442     4403.689   -12578.533    127.71797    -953.7181   -983.20342   -1192.1646   -149.36907   -278.11399   -221.74946      46.7237      46.7237      46.7237           90           90           90     102002.7   -1043.0287 
  532000       531500   -7352.9983    832.77496   -8185.7732    4409.5123   -12595.286    131.65822   -1384.7455   -765.01153   -535.95799    40.758128   -180.81403    318.78175      46.7237      46.7237      46.7237           90           90           90     102002.7   -895.23833 
  533000       532500   -7366.4988    837.71068   -8204.2094    4365.3753   -12569.585    132.43854   -874.58818   -1268.1763   -657.90971   -154.24007    168.68191   -89.035891      46.7237      46.7237      46.7237           90           90           90     102002.7   -933.55808 
  534000       533500   -7365.2132    835.38351   -8200.5967    4398.6954   -12599.292    132.07062   -514.12841   -831.51617   -469.47646   -47.854337    55.113379   -25.094596      46.7237      46.7237      46.7237           90           90           90     102002.7   -605.04035 
  535000       534500   -7364.9227    814.34926   -8179.2719    4403.9381    -12583.21    128.74519   -906.72721   -1394.1683   -910.20375   -69.560688   -115.14259     122.6561      46.7237      46.7237      46.7237           90           90           90     102002.7   -1070.3664 
  536000       535500   -7375.0759    819.54316   -8194.6191     4407.993   -12602.612    129.56633   -1252.7805   -1068.7368   -699.86277    43.028534   -95.283078   -100.12128      46.7237      46.7237      46.7237           90           90           90     102002.7   -1007.1267 
  537000       536500    -7377.574     820.8721   -8198.4461    4388.3155   -12586.762    129.77643   -733.44574   -417.15309   -57.201104    95.461551   -50.389542    328.08278      46.7237      46.7237      46.7237           90           90           90     102002.7   -402.59998 
  538000       537500   -7398.7589    810.12923   -8208.8881     4359.043   -12567.931    128.07803   -776.16172   -266.96369   -745.58881   -224.55413   -89.190993    269.54797      46.7237      46.7237      46.7237           90           90           90     102002.7   -596.23807 
  539000       538500     -7362.89    832.31706   -8195.2071    4379.8058   -12575.013    131.58583   -601.02417   -796.77081   -221.75615    -80.47571   -29.534105   -173.18984      46.7237      46.7237      46.7237           90           90           90     102002.7   -539.85038 
  540000       539500   -7406.1368    802.32587   -8208.4627    4373.5281   -12581.991    126.84435   -988.58768   -528.35083   -544.04525   -89.468157    221.23785    35.144267      46.7237      46.7237      46.7237           90           90           90     102002.7   -686.99459 
  541000       540500   -7354.1843    822.44003   -8176.6243    4399.0894   -12575.714    130.02431    -326.4763   -867.21794   -1046.3276    141.49034   -118.45996    293.59555      46.7237      46.7237      46.7237           90           90           90     102002.7   -746.67395 
  542000       541500   -7401.7267     785.4358   -8187.1625    4408.9801   -12596.143     124.1741   -417.15816    -548.7665   -448.41425   -162.82758    130.73307    15.404361      46.7237      46.7237      46.7237           90           90           90     102002.7    -471.4463 
  543000       542500   -7389.3894    813.51058   -8202.8999    4399.9166   -12602.817     128.6126    -877.7821    -834.6775   -898.19986   -221.97787   -20.102692   -27.318632      46.7237      46.7237      46.7237           90           90           90     102002.7   -870.21982 
  544000       543500   -7376.4862    812.55247   -8189.0387    4411.5498   -12600.588    128.46113   -872.03938   -1030.3202   -556.75602    57.560037    90.452035    128.75277      46.7237      46.7237      46.7237           90           90           90     102002.7   -819.70521 
  545000       544500   -7374.3748    843.21743   -8217.5922    4367.3204   -12584.913    133.30913    -666.2638   -286.34935   -479.95681    126.83954   -100.34031    233.61273      46.7237      46.7237      46.7237           90           90           90     102002.7   -477.52332 
  546000       545500   -7405.7714    828.35175   -8234.1231    4377.7751   -12611.898    130.95893   -284.44555   -1146.8033    -885.0629    32.765641   -120.34154   -134.55207      46.7237      46.7237      46.7237           90           90           90     102002.7   -772.10393 
  547000       546500   -7398.4395    807.53047     -8205.97    4418.6788   -12624.649    127.66717   -866.82301   -1023.2678   -1027.3844    33.583526    59.637093    77.804415      46.7237      46.7237      46.7237           90           90           90     102002.7   -972.49174 
  548000       547500   -7388.2518    823.04763   -8211.2995    4393.9465   -12605.246    130.12037   -810.76429   -1077.1155   -908.01535    -429.8065   -55.040163    4.9794446      46.7237      46.7237      46.7237           90           90           90     102002.7   -931.96505 
  549000       548500   -7395.8519    813.76188   -8209.6138    4382.5766    -12592.19    128.65233   -723.68418   -492.07523   -756.20764   -455.68931   -93.283155   -146.92904      46.7237      46.7237      46.7237           90           90           90     102002.7   -657.32235 
  550000       549500   -7399.5446    798.86982   -8198.4144     4413.559   -12611.973    126.29796   -975.96432   -302.36153   -773.45028    105.82853    145.10893   -12.800801      46.7237      46.7237      46.7237           90           90           90     102002.7   -683.92538 
  551000       550500   -7394.6538    834.05917   -8228.7129    4386.1963   -12614.909    131.86125   -889.74976   -540.45407   -573.06857    186.88991     0.179731     55.87318      46.7237      46.7237      46.7237           90           90           90     102002.7   -667.75747 
  552000       551500   -7397.7595    802.99462   -8200.7541    4400.4074   -12601.162    126.95007   -1024.1285   -915.14634   -816.93877    180.65421   -101.62314   -27.066292      46.7237      46.7237      46.7237           90           90           90     102002.7   -918.73786 
  553000       552500   -7343.2863    832.98786   -8176.2741    4421.5215   -12597.796    131.69188    -798.1377   -902.41135   -1147.3584   -126.99945   -162.10699    68.489975      46.7237      46.7237      46.7237           90           90           90     102002.7   -949.30248 
  554000       553500   -7368.6707    820.12127   -8188.7919    4423.4409   -12612.233    129.65772    -1255.582   -940.16119   -412.09216    -11.03841   -339.04061    204.97656      46.7237      46.7237      46.7237           90           90           90     102002.7   -869.27845 
  555000       554500   -7383.3052    825.33912   -8208.6443    4371.4129   -12580.057    130.48264   -757.92446   -1087.8928   -1008.7789    3.5043515    214.70961    67.405024      46.7237      46.7237      46.7237           90           90           90     102002.7   -951.53207 
[...]
  936000       935500   -7410.4085    801.84459   -8212.2531    4380.9434   -12593.197    126.76826   -943.36789   -985.93669   -811.97796    68.457849    16.047528    65.547288      46.7237      46.7237      46.7237           90           90           90     102002.7   -913.76085 
  937000       936500   -7358.1741    808.68436   -8166.8585    4401.4294   -12568.288     127.8496   -1091.7026   -966.85357   -619.99377    22.565666   -126.20895   -69.060143      46.7237      46.7237      46.7237           90           90           90     102002.7   -892.84999 
  938000       937500   -7400.5427    774.95716   -8175.4999    4404.8607   -12580.361    122.51747    -496.7006   -1055.0664   -757.88427    56.219879   -302.53253    181.05631      46.7237      46.7237      46.7237           90           90           90     102002.7   -769.88375 
  939000       938500   -7356.9656    825.81532   -8182.7809    4409.9021   -12592.683    130.55793   -742.05372   -1099.6194    -778.9877   -138.55912    31.685844   -32.823593      46.7237      46.7237      46.7237           90           90           90     102002.7    -873.5536 
  940000       939500   -7422.9511     798.1002   -8221.0513    4378.0574   -12599.109    126.17629   -720.30581    -869.8179   -1357.7959   -147.64995    355.31403    123.72628      46.7237      46.7237      46.7237           90           90           90     102002.7   -982.63987 
  941000       940500   -7383.6669    843.24083   -8226.9077    4362.0166   -12588.924    133.31283   -939.28517   -1015.9095   -731.87071   -144.37088    -25.41986    42.644218      46.7237      46.7237      46.7237           90           90           90     102002.7   -895.68848 
  942000       941500    -7360.673     839.7376   -8200.4106    4408.4346   -12608.845    132.75898   -720.10459   -587.52901   -847.11106    155.75275   -190.49186   -39.659737      46.7237      46.7237      46.7237           90           90           90     102002.7   -718.24822 
  943000       942500   -7402.9074    802.42839   -8205.3358    4366.0664   -12571.402    126.86055   -485.21412   -1445.7707   -1025.4078    148.50943    162.97099   -64.983062      46.7237      46.7237      46.7237           90           90           90     102002.7   -985.46421 
  944000       943500   -7387.9466     811.0974    -8199.044    4392.9262    -12591.97    128.23109   -1057.1481   -469.05741   -276.26719   -39.686151    56.641523     108.1813      46.7237      46.7237      46.7237           90           90           90     102002.7   -600.82422 
  945000       944500   -7363.7445    831.62063   -8195.3651    4394.0209   -12589.386    131.47572   -870.62653   -981.38799   -964.13636    439.86129   -28.114326    450.46951      46.7237      46.7237      46.7237           90           90           90     102002.7   -938.71696 
  946000       945500    -7372.082     830.4776   -8202.5596    4388.4401       -12591    131.29502   -785.18305   -817.26535    -754.6957    118.54868    362.04253   -56.917199      46.7237      46.7237      46.7237           90           90           90     102002.7    -785.7147 
  947000       946500   -7350.3015    862.86101   -8213.1625    4402.7898   -12615.952     136.4147   -417.46848   -1376.7565    -820.1667    197.13344    32.108096  -0.52232182      46.7237      46.7237      46.7237           90           90           90     102002.7   -871.46391 
  948000       947500   -7398.3379    825.34846   -8223.6863    4382.9693   -12606.656    130.48412   -635.42377   -839.56681   -534.72853    208.27976   -37.219056    5.4832582      46.7237      46.7237      46.7237           90           90           90     102002.7   -669.90637 
  949000       948500   -7371.9858      817.909   -8189.8948    4399.2642   -12589.159    129.30797   -956.59499   -852.92587   -863.05441    -171.0793    11.703021   -164.89847      46.7237      46.7237      46.7237           90           90           90     102002.7   -890.85842 
  950000       949500   -7414.3728    824.21894   -8238.5918    4366.0335   -12604.625    130.30555   -514.31405   -1151.0694   -234.12498   -50.196476   -89.479108   -30.445475      46.7237      46.7237      46.7237           90           90           90     102002.7   -633.16946 
  951000       950500   -7360.9172    829.86551   -8190.7827    4403.8516   -12594.634    131.19825    -350.8914   -980.42772   -1189.3975   -107.40725   -132.18464   -161.55617      46.7237      46.7237      46.7237           90           90           90     102002.7   -840.23888 
  952000       951500    -7381.694    816.23794    -8197.932    4401.0019   -12598.934    129.04379   -635.94692   -969.60393   -882.92653   -197.67994   -174.11722     10.66781      46.7237      46.7237      46.7237           90           90           90     102002.7   -829.49246 
  953000       952500   -7375.9288    824.66999   -8200.5988    4402.5358   -12603.135    130.37686   -417.54081   -904.90622    -785.6327    -53.69772    25.517994    106.63108      46.7237      46.7237      46.7237           90           90           90     102002.7   -702.69324 
  954000       953500   -7400.2757    821.81502   -8222.0907    4388.9433   -12611.034     129.9255   -1074.7879   -972.77257   -438.06733    111.40955   -192.99125    102.30741      46.7237      46.7237      46.7237           90           90           90     102002.7   -828.54261 
  955000       954500   -7365.5611     841.7181   -8207.2792    4379.5414   -12586.821    133.07209   -902.06032   -532.98407   -1138.7872    298.81015    113.60141   -32.668239      46.7237      46.7237      46.7237           90           90           90     102002.7   -857.94387 
  956000       955500   -7399.6087    802.00096   -8201.6096    4391.4167   -12593.026    126.79298   -918.35786    -1226.132   -1023.1359    99.362228     55.25973    153.84797      46.7237      46.7237      46.7237           90           90           90     102002.7   -1055.8753 
  957000       956500   -7354.1793    844.41066   -8198.5899    4388.2494   -12586.839    133.49777   -940.77388    -838.2151   -687.44678   -9.2123015    68.113287    327.63338      46.7237      46.7237      46.7237           90           90           90     102002.7   -822.14525 
  958000       957500   -7396.0108    817.80211   -8213.8129    4392.1521   -12605.965    129.29107   -350.19504   -1012.6223    -576.8503   -133.47925    -39.25962   -58.281213      46.7237      46.7237      46.7237           90           90           90     102002.7   -646.55587 
  959000       958500   -7407.7097    831.43694   -8239.1466    4353.9685   -12593.115    131.44668   -352.95243   -216.82426   -679.01153   -9.7790081    19.756396   -13.896459      46.7237      46.7237      46.7237           90           90           90     102002.7   -416.26274 
  960000       959500   -7396.9982    806.67326   -8203.6715    4391.5682    -12595.24    127.53165   -312.28754   -919.07782   -745.15402    99.121609   -304.39981    121.78784      46.7237      46.7237      46.7237           90           90           90     102002.7   -658.83979 
  961000       960500   -7388.9677    815.61555   -8204.5833    4365.9105   -12570.494    128.94539   -427.87716    -730.0652   -201.83228   -210.22126   -136.85866    134.91558      46.7237      46.7237      46.7237           90           90           90     102002.7   -453.25821 
  962000       961500     -7415.01    815.38649   -8230.3965    4377.2657   -12607.662    128.90918   -1217.8307   -496.91075   -600.94735   -72.502304    55.357828   -48.971098      46.7237      46.7237      46.7237           90           90           90     102002.7   -771.89628 
  963000       962500   -7390.1617    832.71054   -8222.8722    4357.8211   -12580.693    131.64803   -392.53388   -627.76363   -523.82474    299.54957   -284.19296    27.523221      46.7237      46.7237      46.7237           90           90           90     102002.7   -514.70742 
  964000       963500   -7404.3037      795.065   -8199.3687    4389.1267   -12588.495    125.69643   -891.19622   -978.82514   -1018.3257   -82.524939   -28.045746   -235.50627      46.7237      46.7237      46.7237           90           90           90     102002.7   -962.78235 
  965000       964500   -7400.0087    825.83085   -8225.8396    4369.4223   -12595.262    130.56038   -528.88231   -819.93999   -826.90978   -65.953596    11.481322    -230.6078      46.7237      46.7237      46.7237           90           90           90     102002.7   -725.24403 
  966000       965500   -7437.4212    811.29301   -8248.7142    4362.0926   -12610.807    128.26201   -410.53458   -445.17129   -865.62991   -51.171445   -43.013137   -191.02889      46.7237      46.7237      46.7237           90           90           90     102002.7   -573.77859 
  967000       966500   -7384.8805    791.87906   -8176.7596    4412.8177   -12589.577    125.19275   -1296.6618   -1002.7289   -587.24942    67.133306    325.19123   -116.09932      46.7237      46.7237      46.7237           90           90           90     102002.7   -962.21338 
  968000       967500   -7367.6076    835.80261   -8203.4102     4392.849   -12596.259    132.13688   -637.08956    -567.7918    -980.0416   -33.129587   -27.322531   -1.7007775      46.7237      46.7237      46.7237           90           90           90     102002.7   -728.30765 
  969000       968500   -7358.8923    830.85922   -8189.7516    4392.6283    -12582.38    131.35535    -324.9363   -341.54814   -917.42996    6.4114863   -408.56508   -94.663513      46.7237      46.7237      46.7237           90           90           90     102002.7   -527.97147 
  970000       969500      -7375.5    826.44515   -8201.9452    4374.3659   -12576.311     130.6575   -806.82775   -983.49767   -786.06837    45.149642    2.6482418   -199.12096      46.7237      46.7237      46.7237           90           90           90     102002.7   -858.79793 
  971000       970500   -7399.7054    810.40448   -8210.1099    4377.5933   -12587.703    128.12154   -1067.9529   -668.26455   -754.34762   -21.034755    39.217139    29.201031      46.7237      46.7237      46.7237           90           90           90     102002.7   -830.18835 
  972000       971500    -7338.226    826.90139   -8165.1274    4389.6374   -12554.765    130.72963   -707.43193   -959.07527   -1359.5173   -104.25265    288.98252    395.93271      46.7237      46.7237      46.7237           90           90           90     102002.7   -1008.6748 
  973000       972500   -7361.9419     810.9999   -8172.9418    4403.3163   -12576.258    128.21567   -349.80563   -397.22754   -749.03493    -116.2996    74.912761   -88.517128      46.7237      46.7237      46.7237           90           90           90     102002.7   -498.68936 
  974000       973500   -7355.0958    839.35276   -8194.4485    4394.5572   -12589.006    132.69814   -1149.2104   -871.49475   -488.37353    97.299166    339.64871    239.15029      46.7237      46.7237      46.7237           90           90           90     102002.7   -836.35956 
  975000       974500   -7358.4727    798.25649   -8156.7292    4420.5573   -12577.286    126.20099   -659.04974   -943.10701   -777.33988   -65.694325    -133.4925   -24.277556      46.7237      46.7237      46.7237           90           90           90     102002.7   -793.16554 
  976000       975500   -7391.0947    821.11493   -8212.2097    4411.6685   -12623.878    129.81482   -871.65556   -869.20041   -14.933008    93.421238   -26.202989   -23.706851      46.7237      46.7237      46.7237           90           90           90     102002.7   -585.26299 
  977000       976500   -7379.3805    812.53035   -8191.9109    4409.0623   -12600.973    128.45763   -1107.5265   -967.34518   -1090.5077   -67.359269    182.56848    -51.48031      46.7237      46.7237      46.7237           90           90           90     102002.7   -1055.1265 
  978000       977500   -7355.2372    831.85723   -8187.0944    4421.5179   -12608.612    131.51313   -501.84336   -317.02152    -1162.568    102.06906    168.17584    87.625083      46.7237      46.7237      46.7237           90           90           90     102002.7   -660.47764 
  979000       978500   -7370.2672    842.87272     -8213.14    4383.5523   -12596.692    133.25463   -473.80562   -538.80577   -673.44803    116.06868   -62.500547   -22.024444      46.7237      46.7237      46.7237           90           90           90     102002.7    -562.0198 
  980000       979500   -7366.8796     832.3714    -8199.251    4395.8672   -12595.118    131.59442   -897.21117   -1074.1101    -1091.781    118.39316   -191.97286    16.228916      46.7237      46.7237      46.7237           90           90           90     102002.7   -1021.0341 
  981000       980500   -7379.8312    833.39401   -8213.2252     4401.837   -12615.062    131.75609   -399.33393   -732.77807   -1051.5152   -42.820797   -47.363042   -177.37247      46.7237      46.7237      46.7237           90           90           90     102002.7   -727.87573 
  982000       981500   -7404.9519    806.85024   -8211.8021    4388.7105   -12600.513    127.55963   -286.98402   -784.07554   -408.62361   -43.943958    106.98998   -62.542193      46.7237      46.7237      46.7237           90           90           90     102002.7   -493.22772 
  983000       982500   -7376.6913    817.58643   -8194.2777     4420.229   -12614.507    129.25698   -852.77664   -709.67567   -1070.0205   -216.51762    -9.482306    219.26004      46.7237      46.7237      46.7237           90           90           90     102002.7   -877.49093 
  984000       983500   -7377.5518    823.61176   -8201.1636    4406.4402   -12607.604    130.20956   -637.22943   -376.34713   -810.51802   -462.81354    20.004549    52.664903      46.7237      46.7237      46.7237           90           90           90     102002.7   -608.03153 
  985000       984500   -7380.2837     846.4302   -8226.7139    4365.3176   -12592.032    133.81706   -275.09455    -955.7218   -188.78785    239.84678    148.27059     75.55368      46.7237      46.7237      46.7237           90           90           90     102002.7    -473.2014 
  986000       985500    -7410.265    810.15651   -8220.4215    4374.4376   -12594.859    128.08234   -513.20068   -646.12298   -543.82729   -41.219604    74.093042    149.23004      46.7237      46.7237      46.7237           90           90           90     102002.7   -567.71699 
  987000       986500   -7398.0599    843.67142   -8241.7313    4373.2632   -12614.994     133.3809    -542.1199   -295.67668   -502.74879    135.66375    132.63366    283.89672      46.7237      46.7237      46.7237           90           90           90     102002.7   -446.84846 
  988000       987500   -7358.3198    827.89369   -8186.2135    4409.7501   -12595.964    130.88651   -729.88527   -368.90519   -1123.6933   -85.204326   -121.63363    135.63582      46.7237      46.7237      46.7237           90           90           90     102002.7   -740.82794 
  989000       988500   -7391.5763    816.38866    -8207.965    4388.6342   -12596.599    129.06761   -907.59589   -518.39613   -551.05152    94.929296   -195.09457    112.76372      46.7237      46.7237      46.7237           90           90           90     102002.7   -659.01451 
  990000       989500   -7409.0757    792.07217   -8201.1479    4378.8474   -12579.995    125.22328   -1162.3203    -861.7829   -976.38149    75.405151    127.51118   -67.707751      46.7237      46.7237      46.7237           90           90           90     102002.7   -1000.1616 
  991000       990500    -7391.917    804.59092   -8196.5079    4400.8887   -12597.397    127.20244   -720.64456   -525.65718   -991.05761   -454.35354    130.84818     175.4488      46.7237      46.7237      46.7237           90           90           90     102002.7   -745.78645 
  992000       991500   -7369.1184    841.77465    -8210.893    4386.4038   -12597.297    133.08103   -717.43175   -1290.3566   -287.75237    95.625331    192.19591    36.686123      46.7237      46.7237      46.7237           90           90           90     102002.7   -765.18024 
  993000       992500   -7404.8949    809.40162   -8214.2965    4378.1338    -12592.43    127.96299    -1094.541   -734.67819   -594.26811     191.5434    113.84941    -163.2743      46.7237      46.7237      46.7237           90           90           90     102002.7    -807.8291 
  994000       993500   -7403.4794    816.64902   -8220.1284    4371.0867   -12591.215    129.10878   -439.67103   -761.57656   -655.03508   -167.92049    127.03472   -215.44706      46.7237      46.7237      46.7237           90           90           90     102002.7   -618.76089 
  995000       994500   -7373.5506      822.674   -8196.2246    4410.2101   -12606.435     130.0613   -993.79978   -954.96559   -1309.2258    222.02642   -184.63902   -215.19994      46.7237      46.7237      46.7237           90           90           90     102002.7   -1085.9971 
  996000       995500    -7381.839    807.62215   -8189.4612    4390.8425   -12580.304    127.68167    -933.4274   -1099.4166   -888.91738    14.564354   -130.98773    102.81791      46.7237      46.7237      46.7237           90           90           90     102002.7   -973.92045 
  997000       996500   -7380.5616    828.24775   -8208.8094    4410.6909     -12619.5    130.94249   -504.24316   -714.22877   -466.79915   -50.534808    225.75899    100.87761      46.7237      46.7237      46.7237           90           90           90     102002.7   -561.75703 
  998000       997500   -7385.2793    830.26052   -8215.5398    4386.9957   -12602.535     131.2607   -686.31027   -1074.0256   -1556.0062    167.89229   -237.59228     100.4378      46.7237      46.7237      46.7237           90           90           90     102002.7   -1105.4474 
  999000       998500   -7371.8345    808.20999   -8180.0445    4401.7114   -12581.756     127.7746    -1118.859   -964.33119   -640.94921    298.76197    78.387085   -217.37149      46.7237      46.7237      46.7237           90           90           90     102002.7   -908.04645 
 1000000       999500   -7354.6618     838.0481   -8192.7099    4426.8783   -12619.588    132.49188   -601.42963   -1168.5094   -1799.3378   -111.05045    169.38515    75.542037      46.7237      46.7237      46.7237           90           90           90     102002.7   -1189.7589 
 1000500      1000000   -7391.6424    827.76647   -8219.4088     4382.582   -12601.991     130.8664   -694.54073   -759.10717   -586.16896   -318.81124    -108.3589    12.949783      46.7237      46.7237      46.7237           90           90           90     102002.7   -679.93895 
Loop time of 1595.27 on 16 procs for 500000 steps with 2123 atoms

Performance: 27.080 ns/day, 0.886 hours/ns, 313.426 timesteps/s
99.9% CPU use with 16 MPI tasks x no OpenMP threads

MPI task timing breakdown:
Section |  min time  |  avg time  |  max time  |%varavg| %total
---------------------------------------------------------------
Pair    | 707.49     | 928.2      | 1124.4     | 406.0 | 58.18
Bond    | 167.82     | 183.27     | 198.88     |  81.9 | 11.49
Neigh   | 8.498      | 8.5221     | 8.5496     |   0.5 |  0.53
Comm    | 266.45     | 446.64     | 653.86     | 539.7 | 28.00
Output  | 0.10536    | 0.11122    | 0.1117     |   0.5 |  0.01
Modify  | 22.023     | 22.972     | 24.149     |  13.5 |  1.44
Other   |            | 5.553      |            |       |  0.35

Nlocal:    132.688 ave 150 max 112 min
Histogram: 1 3 1 0 0 3 3 1 1 3
Nghost:    2697.06 ave 2723 max 2684 min
Histogram: 4 2 2 2 1 2 2 0 0 1
Neighs:    11460.2 ave 15133 max 7652 min
Histogram: 1 1 2 5 0 1 2 0 0 4

Total # of neighbors = 183363
Ave neighs/atom = 86.3698
Ave special neighs/atom = 5.42628
Neighbor list builds = 4838
Dangerous builds = 0
Total wall time: 0:51:22
