LAMMPS (30 Mar 2018)
Reading data file ...
  orthogonal box = (0 0 0) to (46.7237 46.7237 46.7237)
  2 by 3 by 4 MPI processor grid
  reading atoms ...
  1906 atoms
  scanning bonds ...
  5 = max bonds/atom
  scanning angles ...
  10 = max angles/atom
  scanning dihedrals ...
  32 = max dihedrals/atom
  scanning impropers ...
  3 = max impropers/atom
  reading bonds ...
  2064 bonds
  reading angles ...
  3696 angles
  reading dihedrals ...
  6240 dihedrals
  reading impropers ...
  1008 impropers
Finding 1-2 1-3 1-4 neighbors ...
  special bond factors lj:   0          0          0         
  special bond factors coul: 0          0          0         
  5 = max # of 1-2 neighbors
  8 = max # of 1-3 neighbors
  20 = max # of 1-4 neighbors
  19 = max # of special neighbors
Finding 1-2 1-3 1-4 neighbors ...
  special bond factors lj:   0          0          1         
  special bond factors coul: 1          1          1         
  5 = max # of 1-2 neighbors
  8 = max # of 1-3 neighbors
  19 = max # of special neighbors
WARNING: Using 'neigh_modify every 1 delay 0 check yes' setting during minimization (../min.cpp:168)
Neighbor list info ...
  update every 1 steps, delay 0 steps, check yes
  max neighbors/atom: 2000, page size: 100000
  master list distance cutoff = 16
  ghost atom cutoff = 16
  binsize = 8, bins = 6 6 6
  3 neighbor lists, perpetual/occasional/extra = 3 0 0
  (1) pair buck6d/coul/gauss/dsf, perpetual, skip from (3)
      attributes: half, newton on
      pair build: skip
      stencil: none
      bin: none
  (2) pair lj/cut, perpetual, skip from (3)
      attributes: half, newton on
      pair build: skip
      stencil: none
      bin: none
  (3) neighbor class addition, perpetual
      attributes: half, newton on
      pair build: half/bin/newton
      stencil: half/bin/3d/newton
      bin: standard
Setting up cg style minimization ...
  Unit style    : real
  Current step  : 0
WARNING: Inconsistent image flags (../domain.cpp:786)
Per MPI rank memory allocation (min/avg/max) = 22.88 | 23.29 | 24.43 Mbytes
Step Temp E_pair E_mol TotEng Press 
       0            0   -12050.189    6482.8914   -5567.2971    6070.1037 
     502            0   -12124.162    3733.5871   -8390.5751   -662.60479 
Loop time of 1.25325 on 24 procs for 502 steps with 1906 atoms

99.8% CPU use with 24 MPI tasks x no OpenMP threads

Minimization stats:
  Stopping criterion = max force evaluations
  Energy initial, next-to-last, final = 
        -5567.29707955     -8390.54485976     -8390.57510096
  Force two-norm initial, final = 2576.22 7.85461
  Force max component initial, final = 151.989 1.25177
  Final line search alpha, max atom move = 0.00437317 0.00547422
  Iterations, force evaluations = 502 1001

MPI task timing breakdown:
Section |  min time  |  avg time  |  max time  |%varavg| %total
---------------------------------------------------------------
Pair    | 0.47152    | 0.65511    | 0.86526    |  12.4 | 52.27
Bond    | 0.1154     | 0.157      | 0.20378    |   5.4 | 12.53
Neigh   | 0.0078661  | 0.0081631  | 0.0084639  |   0.3 |  0.65
Comm    | 0.18602    | 0.41108    | 0.58344    |  15.9 | 32.80
Output  | 0          | 0          | 0          |   0.0 |  0.00
Modify  | 0          | 0          | 0          |   0.0 |  0.00
Other   |            | 0.0219     |            |       |  1.75

Nlocal:    79.4167 ave 93 max 71 min
Histogram: 1 5 3 5 2 3 3 1 0 1
Nghost:    2133.62 ave 2300 max 2045 min
Histogram: 16 0 0 0 0 0 0 0 0 8
Neighs:    7629.21 ave 10396 max 5292 min
Histogram: 2 3 4 2 2 3 3 2 1 2

Total # of neighbors = 183101
Ave neighs/atom = 96.0656
Ave special neighs/atom = 6.04407
Neighbor list builds = 12
Dangerous builds = 0
Neighbor list info ...
  update every 1 steps, delay 10 steps, check yes
  max neighbors/atom: 2000, page size: 100000
  master list distance cutoff = 16
  ghost atom cutoff = 16
  binsize = 8, bins = 6 6 6
  3 neighbor lists, perpetual/occasional/extra = 3 0 0
  (1) pair buck6d/coul/gauss/dsf, perpetual, skip from (3)
      attributes: half, newton on
      pair build: skip
      stencil: none
      bin: none
  (2) pair lj/cut, perpetual, skip from (3)
      attributes: half, newton on
      pair build: skip
      stencil: none
      bin: none
  (3) neighbor class addition, perpetual
      attributes: half, newton on
      pair build: half/bin/newton
      stencil: half/bin/3d/newton
      bin: standard
Setting up Verlet run ...
  Unit style    : real
  Current step  : 502
  Time step     : 1
WARNING: Inconsistent image flags (../domain.cpp:786)
Per MPI rank memory allocation (min/avg/max) = 22.53 | 22.68 | 23.31 Mbytes
Step Temp PotEng TotEng Press Volume Lx Ly Lz 
     502          110   -8390.5751   -7765.9464   -382.67886     102002.7      46.7237      46.7237      46.7237 
    1000    95.188009   -7832.8177    -7292.298   -740.71597     102002.7      46.7237      46.7237      46.7237 
    2000    117.17875   -7741.7985   -7076.4057   -878.00691     102002.7      46.7237      46.7237      46.7237 
    3000    104.61526   -7713.3358    -7119.284   -1071.8725     102002.7      46.7237      46.7237      46.7237 
    4000    109.64816   -7750.5022   -7127.8713    -613.2737     102002.7      46.7237      46.7237      46.7237 
    5000    113.13352   -7737.8203   -7095.3981   -1084.9194     102002.7      46.7237      46.7237      46.7237 
    6000    112.81763   -7757.2213   -7116.5928    -684.5321     102002.7      46.7237      46.7237      46.7237 
    7000    109.56303   -7726.1281   -7103.9807   -434.84288     102002.7      46.7237      46.7237      46.7237 
    8000    109.99936   -7723.3572   -7098.7321    -652.2048     102002.7      46.7237      46.7237      46.7237 
    9000    109.19508    -7727.726    -7107.668   -683.56691     102002.7      46.7237      46.7237      46.7237 
   10000    109.50865   -7726.3021   -7104.4635   -677.12787     102002.7      46.7237      46.7237      46.7237 
   11000    107.72923   -7731.3198   -7119.5855   -878.61382     102002.7      46.7237      46.7237      46.7237 
   12000    112.33249   -7732.5504   -7094.6767   -622.59918     102002.7      46.7237      46.7237      46.7237 
   13000    110.49108   -7741.0133    -7113.596   -935.24456     102002.7      46.7237      46.7237      46.7237 
   14000    109.14235   -7736.3532   -7116.5946   -769.03067     102002.7      46.7237      46.7237      46.7237 
   15000    110.05577   -7738.1891   -7113.2437   -829.14749     102002.7      46.7237      46.7237      46.7237 
   16000    110.58566   -7737.7175   -7109.7631   -852.23321     102002.7      46.7237      46.7237      46.7237 
   17000    111.14992   -7714.8168   -7083.6583   -997.05295     102002.7      46.7237      46.7237      46.7237 
   18000    111.39144   -7725.4568   -7092.9269   -1041.2674     102002.7      46.7237      46.7237      46.7237 
   19000     114.9814    -7749.193   -7096.2777   -1105.9755     102002.7      46.7237      46.7237      46.7237 
   20000    109.57316   -7710.1039    -7087.899   -920.18775     102002.7      46.7237      46.7237      46.7237 
   21000    107.06675   -7728.6317   -7120.6593   -603.11174     102002.7      46.7237      46.7237      46.7237 
   22000    113.11208   -7741.3386    -7099.038   -954.26837     102002.7      46.7237      46.7237      46.7237 
   23000    109.38667   -7738.6871   -7117.5412    -962.8824     102002.7      46.7237      46.7237      46.7237 
   24000      109.188   -7737.8287   -7117.8109   -1053.2973     102002.7      46.7237      46.7237      46.7237 
   25000    110.66801   -7764.9267   -7136.5047   -854.81803     102002.7      46.7237      46.7237      46.7237 
   26000    110.64817   -7727.8423    -7099.533   -915.30698     102002.7      46.7237      46.7237      46.7237 
   27000    110.43307   -7714.8876   -7087.7997   -783.33075     102002.7      46.7237      46.7237      46.7237 
   28000    107.38611   -7731.3195   -7121.5336   -727.79194     102002.7      46.7237      46.7237      46.7237 
   29000     104.7081   -7734.2643   -7139.6854   -994.02073     102002.7      46.7237      46.7237      46.7237 
   30000    112.42829   -7736.1048   -7097.6871   -955.70619     102002.7      46.7237      46.7237      46.7237 
   31000    111.84141   -7726.6924   -7091.6073   -874.19914     102002.7      46.7237      46.7237      46.7237 
   32000    109.53526   -7728.9653   -7106.9756   -848.23375     102002.7      46.7237      46.7237      46.7237 
   33000    109.97338   -7724.5834   -7100.1058   -999.41626     102002.7      46.7237      46.7237      46.7237 
   34000    107.19032   -7747.6988   -7139.0246   -957.41814     102002.7      46.7237      46.7237      46.7237 
   35000    108.27689   -7744.1562   -7129.3121   -910.73531     102002.7      46.7237      46.7237      46.7237 
   36000    108.88555   -7735.7238   -7117.4234   -944.95701     102002.7      46.7237      46.7237      46.7237 
   37000     110.0421   -7732.1784   -7107.3106   -1088.2988     102002.7      46.7237      46.7237      46.7237 
   38000    110.13499   -7729.6514   -7104.2562   -598.94225     102002.7      46.7237      46.7237      46.7237 
   39000    108.34153   -7728.7083   -7113.4971   -715.27874     102002.7      46.7237      46.7237      46.7237 
   40000    106.31748   -7715.8685   -7112.1507   -747.41887     102002.7      46.7237      46.7237      46.7237 
   41000      106.531   -7744.1852    -7139.255   -823.58989     102002.7      46.7237      46.7237      46.7237 
   42000    108.11588   -7727.2895   -7113.3596   -538.41025     102002.7      46.7237      46.7237      46.7237 
   43000    105.79807   -7728.1603   -7127.3919   -868.61268     102002.7      46.7237      46.7237      46.7237 
   44000    108.64361   -7733.2612   -7116.3346   -866.26166     102002.7      46.7237      46.7237      46.7237 
   45000    111.31567   -7728.0664   -7095.9667   -888.07285     102002.7      46.7237      46.7237      46.7237 
   46000    109.51756   -7726.5826   -7104.6934   -939.21989     102002.7      46.7237      46.7237      46.7237 
   47000     108.8791   -7737.2008    -7118.937   -947.80104     102002.7      46.7237      46.7237      46.7237 
   48000    109.61275   -7739.1168   -7116.6871   -741.36494     102002.7      46.7237      46.7237      46.7237 
   49000    108.96232     -7728.57   -7109.8337   -685.14046     102002.7      46.7237      46.7237      46.7237 
   50000    110.80561   -7709.6177   -7080.4143   -1038.4544     102002.7      46.7237      46.7237      46.7237 
   51000    109.04941   -7734.7245   -7115.4937   -1052.9806     102002.7      46.7237      46.7237      46.7237 
   52000    108.67488   -7750.7536   -7133.6495    -888.2131     102002.7      46.7237      46.7237      46.7237 
   53000    108.43375    -7722.996   -7107.2611   -804.54849     102002.7      46.7237      46.7237      46.7237 
   54000    107.73211   -7729.4911   -7117.7405    -870.8617     102002.7      46.7237      46.7237      46.7237 
   55000    108.98092   -7742.9969    -7124.155   -688.78822     102002.7      46.7237      46.7237      46.7237 
   56000    113.35073   -7717.8722   -7074.2165   -972.73762     102002.7      46.7237      46.7237      46.7237 
   57000    108.18254   -7735.9544   -7121.6461   -1022.5834     102002.7      46.7237      46.7237      46.7237 
   58000    113.93758    -7746.323   -7099.3349   -509.17724     102002.7      46.7237      46.7237      46.7237 
   59000    108.94928   -7725.4716   -7106.8093   -1056.6777     102002.7      46.7237      46.7237      46.7237 
   60000     111.2222    -7722.907   -7091.3381   -833.34111     102002.7      46.7237      46.7237      46.7237 
   61000    112.80257   -7743.0904   -7102.5475   -820.37253     102002.7      46.7237      46.7237      46.7237 
   62000    108.81281   -7739.0137   -7121.1264   -642.82187     102002.7      46.7237      46.7237      46.7237 
   63000     109.7577   -7734.8352   -7111.5823   -557.03519     102002.7      46.7237      46.7237      46.7237 
   64000    111.97091   -7739.4898   -7103.6694   -631.17731     102002.7      46.7237      46.7237      46.7237 
   65000    108.71962   -7735.8794   -7118.5212   -634.31318     102002.7      46.7237      46.7237      46.7237 
   66000    109.79455   -7741.0416   -7117.5794   -920.24714     102002.7      46.7237      46.7237      46.7237 
   67000    107.79193   -7745.3554    -7133.265   -707.22616     102002.7      46.7237      46.7237      46.7237 
   68000     111.5548   -7738.9133   -7105.4557   -472.14931     102002.7      46.7237      46.7237      46.7237 
   69000    109.46051   -7731.7105   -7110.1453   -610.44591     102002.7      46.7237      46.7237      46.7237 
   70000    105.16264   -7733.7408   -7136.5807   -623.74498     102002.7      46.7237      46.7237      46.7237 
   71000    107.85862   -7751.4108   -7138.9418   -806.24547     102002.7      46.7237      46.7237      46.7237 
   72000    111.35452   -7756.2923    -7123.972   -468.79464     102002.7      46.7237      46.7237      46.7237 
   73000    112.61301   -7741.7738   -7102.3072   -610.15797     102002.7      46.7237      46.7237      46.7237 
   74000    110.83508   -7727.7402   -7098.3695   -645.33135     102002.7      46.7237      46.7237      46.7237 
   75000    112.49189   -7720.9675   -7082.1886   -453.96574     102002.7      46.7237      46.7237      46.7237 
   76000    109.33567   -7735.9481   -7115.0917   -590.42529     102002.7      46.7237      46.7237      46.7237 
   77000    110.82767   -7749.9465   -7120.6179   -478.62282     102002.7      46.7237      46.7237      46.7237 
   78000    108.59284   -7701.2319   -7084.5936   -652.42982     102002.7      46.7237      46.7237      46.7237 
   79000    109.34515   -7734.8302     -7113.92    -611.2604     102002.7      46.7237      46.7237      46.7237 
   80000    111.07736   -7716.5035    -7085.757   -796.48509     102002.7      46.7237      46.7237      46.7237 
   81000    109.57092   -7746.4332    -7124.241   -658.40072     102002.7      46.7237      46.7237      46.7237 
   82000     110.2701   -7753.3679   -7127.2054   -656.18267     102002.7      46.7237      46.7237      46.7237 
   83000    109.15038    -7718.818   -7099.0137   -763.13501     102002.7      46.7237      46.7237      46.7237 
   84000     109.4516   -7755.5122   -7133.9975    -519.1481     102002.7      46.7237      46.7237      46.7237 
   85000    111.95477   -7732.4192   -7096.6903   -734.48062     102002.7      46.7237      46.7237      46.7237 
   86000     111.6975   -7736.7029    -7102.435   -627.01504     102002.7      46.7237      46.7237      46.7237 
   87000    109.01234   -7748.4547   -7129.4343   -845.57059     102002.7      46.7237      46.7237      46.7237 
   88000    110.65451   -7730.5577   -7102.2124   -764.51693     102002.7      46.7237      46.7237      46.7237 
   89000    107.39276   -7720.4617    -7110.638   -826.17549     102002.7      46.7237      46.7237      46.7237 
   90000    106.77377   -7748.8654   -7142.5566   -734.88214     102002.7      46.7237      46.7237      46.7237 
   91000    108.52737   -7731.9408   -7115.6743   -873.01895     102002.7      46.7237      46.7237      46.7237 
   92000     110.2145   -7720.8201   -7094.9733    -1095.775     102002.7      46.7237      46.7237      46.7237 
   93000    111.81062   -7752.1575   -7117.2472    -771.3024     102002.7      46.7237      46.7237      46.7237 
   94000    110.36296   -7725.8456   -7099.1558   -932.09381     102002.7      46.7237      46.7237      46.7237 
   95000    112.67809   -7736.7946   -7096.9584   -793.81721     102002.7      46.7237      46.7237      46.7237 
   96000    112.27027   -7742.5612   -7105.0409   -1011.7836     102002.7      46.7237      46.7237      46.7237 
   97000    110.85259    -7749.983   -7120.5128   -905.15308     102002.7      46.7237      46.7237      46.7237 
   98000    107.56732    -7739.644   -7128.8291   -833.74023     102002.7      46.7237      46.7237      46.7237 
   99000    109.95725   -7717.5534   -7093.1674   -929.25899     102002.7      46.7237      46.7237      46.7237 
  100000    109.55767   -7721.1228   -7099.0058   -715.70093     102002.7      46.7237      46.7237      46.7237 
  101000    107.96709    -7742.948   -7129.8631   -1059.9482     102002.7      46.7237      46.7237      46.7237 
  102000    112.80458   -7749.1515   -7108.5971   -621.33701     102002.7      46.7237      46.7237      46.7237 
  103000    112.60205        -7724   -7084.5956   -786.84593     102002.7      46.7237      46.7237      46.7237 
  104000    112.56519   -7738.5063   -7099.3113   -724.29867     102002.7      46.7237      46.7237      46.7237 
  105000    111.25693   -7732.2965   -7100.5304   -765.15838     102002.7      46.7237      46.7237      46.7237 
  106000    111.24293   -7721.8167     -7090.13   -973.54449     102002.7      46.7237      46.7237      46.7237 
  107000    108.10742   -7736.4459   -7122.5641   -910.52319     102002.7      46.7237      46.7237      46.7237 
  108000    106.97262   -7727.5832   -7120.1452   -1130.0761     102002.7      46.7237      46.7237      46.7237 
  109000    109.82752   -7733.7053    -7110.056   -1232.9398     102002.7      46.7237      46.7237      46.7237 
  110000    112.82818    -7744.035   -7103.3466   -979.98814     102002.7      46.7237      46.7237      46.7237 
  111000    109.98456   -7739.0214   -7114.4803   -881.74721     102002.7      46.7237      46.7237      46.7237 
  112000    111.56174   -7733.9116   -7100.4146    -726.6116     102002.7      46.7237      46.7237      46.7237 
  113000    112.17532   -7722.2029   -7085.2217   -686.35544     102002.7      46.7237      46.7237      46.7237 
  114000    109.71627   -7727.1144   -7104.0968   -1114.0427     102002.7      46.7237      46.7237      46.7237 
  115000    107.55923   -7739.3384   -7128.5694   -778.49512     102002.7      46.7237      46.7237      46.7237 
  116000     110.0023   -7737.1201   -7112.4783   -1093.4602     102002.7      46.7237      46.7237      46.7237 
  117000    109.49685   -7735.1599   -7113.3882   -818.63659     102002.7      46.7237      46.7237      46.7237 
  118000    110.98123   -7751.7149   -7121.5143   -1114.0793     102002.7      46.7237      46.7237      46.7237 
  119000    108.17854   -7737.6382   -7123.3525   -834.30889     102002.7      46.7237      46.7237      46.7237 
  120000    110.20577   -7717.3754   -7091.5782    -932.8437     102002.7      46.7237      46.7237      46.7237 
  121000    111.08993   -7734.7097   -7103.8918    -818.4573     102002.7      46.7237      46.7237      46.7237 
  122000    107.03315   -7731.7372   -7123.9555   -830.85269     102002.7      46.7237      46.7237      46.7237 
  123000    111.54529   -7738.1589   -7104.7554   -927.80924     102002.7      46.7237      46.7237      46.7237 
  124000    110.00356   -7719.6208   -7094.9718   -860.58464     102002.7      46.7237      46.7237      46.7237 
  125000    109.71386   -7750.5159    -7127.512   -935.98736     102002.7      46.7237      46.7237      46.7237 
  126000    109.57933   -7742.5546   -7120.3145   -915.92003     102002.7      46.7237      46.7237      46.7237 
  127000    107.45695     -7747.84   -7137.6519   -625.84163     102002.7      46.7237      46.7237      46.7237 
  128000    111.17678   -7746.1868   -7114.8758   -739.37409     102002.7      46.7237      46.7237      46.7237 
  129000    114.81244   -7730.3862   -7078.4302   -534.04652     102002.7      46.7237      46.7237      46.7237 
  130000    110.92219   -7736.1747   -7106.3094   -857.38761     102002.7      46.7237      46.7237      46.7237 
  131000     105.8618   -7722.6595   -7121.5293   -742.46305     102002.7      46.7237      46.7237      46.7237 
  132000    114.14229   -7728.6413   -7080.4908   -888.59651     102002.7      46.7237      46.7237      46.7237 
  133000    105.65596   -7750.9978   -7151.0364   -989.88231     102002.7      46.7237      46.7237      46.7237 
  134000    110.24606   -7730.0249   -7103.9988    -1023.197     102002.7      46.7237      46.7237      46.7237 
  135000    109.45584   -7734.1931   -7112.6543   -782.87683     102002.7      46.7237      46.7237      46.7237 
  136000    110.55963   -7737.3482   -7109.5416   -723.62803     102002.7      46.7237      46.7237      46.7237 
  137000     115.7741   -7732.4786    -7075.062   -678.20715     102002.7      46.7237      46.7237      46.7237 
  138000    109.08829   -7728.1114   -7108.6598   -734.80641     102002.7      46.7237      46.7237      46.7237 
  139000    110.21311   -7728.0658    -7102.227   -894.19889     102002.7      46.7237      46.7237      46.7237 
  140000    108.93026   -7730.9564    -7112.402   -732.08608     102002.7      46.7237      46.7237      46.7237 
  141000    110.92435   -7754.3242   -7124.4466   -637.72617     102002.7      46.7237      46.7237      46.7237 
  142000     108.2909   -7715.3303   -7100.4066   -696.34935     102002.7      46.7237      46.7237      46.7237 
  143000    110.10007   -7721.3301   -7096.1331   -488.09991     102002.7      46.7237      46.7237      46.7237 
  144000    107.40521    -7727.496   -7117.6016   -856.21475     102002.7      46.7237      46.7237      46.7237 
  145000    109.02166   -7729.2763    -7110.203   -846.69781     102002.7      46.7237      46.7237      46.7237 
  146000    110.13951   -7725.5643   -7100.1433   -492.92128     102002.7      46.7237      46.7237      46.7237 
  147000    111.12332   -7714.2215   -7083.2141     -945.622     102002.7      46.7237      46.7237      46.7237 
  148000     108.8091   -7722.6493    -7104.783   -837.31667     102002.7      46.7237      46.7237      46.7237 
  149000    110.29638   -7731.4341   -7105.1224    -543.0014     102002.7      46.7237      46.7237      46.7237 
  150000    108.83134   -7736.2934   -7118.3008   -673.50151     102002.7      46.7237      46.7237      46.7237 
  151000    109.37318   -7738.2873   -7117.2179   -603.35982     102002.7      46.7237      46.7237      46.7237 
  152000    111.69782    -7705.748   -7071.4783   -715.33281     102002.7      46.7237      46.7237      46.7237 
  153000      108.323   -7719.9085   -7104.8025   -663.34235     102002.7      46.7237      46.7237      46.7237 
  154000    111.38116   -7720.6936   -7088.2221   -919.00351     102002.7      46.7237      46.7237      46.7237 
  155000    109.69451   -7719.5229   -7096.6289   -582.51846     102002.7      46.7237      46.7237      46.7237 
  156000    108.89768   -7738.9599   -7120.5906    -735.0249     102002.7      46.7237      46.7237      46.7237 
  157000    108.01602   -7720.2766   -7106.9138   -879.59947     102002.7      46.7237      46.7237      46.7237 
  158000    112.46139    -7739.644   -7101.0384   -711.18139     102002.7      46.7237      46.7237      46.7237 
  159000    110.46864   -7702.1028   -7074.8129   -853.45082     102002.7      46.7237      46.7237      46.7237 
  160000    108.91524   -7730.9664   -7112.4974   -554.79005     102002.7      46.7237      46.7237      46.7237 
  161000    110.72536   -7731.7278   -7102.9802    -960.8283     102002.7      46.7237      46.7237      46.7237 
  162000    107.79632   -7732.3579   -7120.2427   -591.75316     102002.7      46.7237      46.7237      46.7237 
  163000    107.80583   -7731.0712    -7118.902   -565.87472     102002.7      46.7237      46.7237      46.7237 
  164000    109.52707   -7720.7633     -7098.82   -756.35509     102002.7      46.7237      46.7237      46.7237 
  165000      109.244   -7729.8969   -7109.5611   -716.32829     102002.7      46.7237      46.7237      46.7237 
  166000       108.84   -7742.7675   -7124.7258   -983.40466     102002.7      46.7237      46.7237      46.7237 
  167000    109.05146   -7737.1026   -7117.8601   -826.51875     102002.7      46.7237      46.7237      46.7237 
  168000    107.09825   -7729.7639   -7121.6126   -677.97043     102002.7      46.7237      46.7237      46.7237 
  169000    109.04831    -7741.569   -7122.3443   -603.56229     102002.7      46.7237      46.7237      46.7237 
  170000     108.2943   -7736.9231   -7121.9801   -952.99063     102002.7      46.7237      46.7237      46.7237 
  171000    110.31183   -7742.0389   -7115.6394    -698.7492     102002.7      46.7237      46.7237      46.7237 
  172000    112.35112   -7741.8227   -7103.8433   -951.52438     102002.7      46.7237      46.7237      46.7237 
  173000    111.87469   -7753.1112   -7117.8372   -847.51541     102002.7      46.7237      46.7237      46.7237 
  174000    109.92511   -7741.5828   -7117.3793   -541.54925     102002.7      46.7237      46.7237      46.7237 
  175000     111.7269   -7730.3378   -7095.9029    -577.5111     102002.7      46.7237      46.7237      46.7237 
  176000    111.08287   -7720.4841   -7089.7063   -807.65028     102002.7      46.7237      46.7237      46.7237 
  177000    109.75763   -7737.3728   -7114.1204   -587.50581     102002.7      46.7237      46.7237      46.7237 
  178000    108.80561   -7742.3355    -7124.489   -1045.3684     102002.7      46.7237      46.7237      46.7237 
  179000    110.62737   -7746.4937   -7118.3024    -864.7818     102002.7      46.7237      46.7237      46.7237 
  180000    114.23479   -7719.9856   -7071.3098   -577.84083     102002.7      46.7237      46.7237      46.7237 
  181000    107.00569    -7722.897   -7115.2713   -850.75337     102002.7      46.7237      46.7237      46.7237 
  182000    108.43821   -7716.6414   -7100.8812   -861.55234     102002.7      46.7237      46.7237      46.7237 
  183000    108.71361   -7728.9983   -7111.6743   -841.65506     102002.7      46.7237      46.7237      46.7237 
  184000    111.96092   -7743.7367    -7107.973   -797.00428     102002.7      46.7237      46.7237      46.7237 
  185000    111.12101    -7738.053   -7107.0586   -785.44493     102002.7      46.7237      46.7237      46.7237 
  186000    112.06769   -7732.2935   -7095.9235   -943.11337     102002.7      46.7237      46.7237      46.7237 
  187000    112.72024   -7740.6458   -7100.5703   -710.48521     102002.7      46.7237      46.7237      46.7237 
  188000    111.38627   -7734.3814   -7101.8808   -749.03626     102002.7      46.7237      46.7237      46.7237 
  189000     109.0452   -7757.0827   -7137.8757   -967.05327     102002.7      46.7237      46.7237      46.7237 
  190000    109.86313    -7730.119   -7106.2675   -791.33341     102002.7      46.7237      46.7237      46.7237 
  191000    110.05108   -7733.8224   -7108.9036   -951.69285     102002.7      46.7237      46.7237      46.7237 
  192000    107.82554   -7739.7225   -7127.4413   -714.73436     102002.7      46.7237      46.7237      46.7237 
  193000    109.78802   -7720.4546   -7097.0295   -769.31209     102002.7      46.7237      46.7237      46.7237 
  194000    111.49873   -7716.7311   -7083.5919   -723.09457     102002.7      46.7237      46.7237      46.7237 
  195000    110.98729   -7726.3896   -7096.1546   -484.63588     102002.7      46.7237      46.7237      46.7237 
  196000    107.58767   -7722.1355    -7111.205    -785.9149     102002.7      46.7237      46.7237      46.7237 
  197000    109.34404   -7713.0372   -7092.1333   -933.00263     102002.7      46.7237      46.7237      46.7237 
  198000    113.51062   -7733.9951   -7089.4315   -694.40035     102002.7      46.7237      46.7237      46.7237 
  199000    110.36364   -7740.9355   -7114.2418   -716.53437     102002.7      46.7237      46.7237      46.7237 
  200000    108.14627   -7720.8941   -7106.7917   -786.72816     102002.7      46.7237      46.7237      46.7237 
  201000    111.41064   -7721.8872   -7089.2482   -860.16156     102002.7      46.7237      46.7237      46.7237 
  202000    109.37764   -7727.1749   -7106.0802   -607.80949     102002.7      46.7237      46.7237      46.7237 
  203000    109.90722   -7750.8919   -7126.7901   -711.82365     102002.7      46.7237      46.7237      46.7237 
  204000    111.34143   -7731.2278   -7098.9818   -935.09632     102002.7      46.7237      46.7237      46.7237 
  205000    111.98054    -7737.291   -7101.4158   -739.22961     102002.7      46.7237      46.7237      46.7237 
  206000    105.97975   -7705.7391   -7103.9391   -788.71705     102002.7      46.7237      46.7237      46.7237 
  207000    110.15952   -7726.2937   -7100.7591   -685.06521     102002.7      46.7237      46.7237      46.7237 
  208000    111.30103   -7723.3391   -7091.3225   -525.67977     102002.7      46.7237      46.7237      46.7237 
  209000    111.02514   -7732.1317   -7101.6818   -893.81707     102002.7      46.7237      46.7237      46.7237 
  210000    109.71017   -7720.2695   -7097.2865   -901.65466     102002.7      46.7237      46.7237      46.7237 
  211000     110.4323   -7741.6973   -7114.6137   -823.20429     102002.7      46.7237      46.7237      46.7237 
  212000    107.72486   -7741.6025   -7129.8929   -1042.3981     102002.7      46.7237      46.7237      46.7237 
  213000    108.41689   -7725.3805   -7109.7414    -814.2876     102002.7      46.7237      46.7237      46.7237 
  214000    111.03754   -7744.1143    -7113.594   -641.17291     102002.7      46.7237      46.7237      46.7237 
  215000    112.56673   -7742.3173   -7103.1135   -754.78871     102002.7      46.7237      46.7237      46.7237 
  216000    112.86326   -7737.6235   -7096.7359   -577.37399     102002.7      46.7237      46.7237      46.7237 
  217000     108.7479   -7732.1314   -7114.6126    -917.1614     102002.7      46.7237      46.7237      46.7237 
  218000    108.59163   -7733.5182   -7116.8868   -801.68178     102002.7      46.7237      46.7237      46.7237 
  219000    111.77634   -7709.3123   -7074.5967   -945.15135     102002.7      46.7237      46.7237      46.7237 
  220000    108.69839   -7721.2678   -7104.0301   -966.57305     102002.7      46.7237      46.7237      46.7237 
  221000    107.32968   -7742.1892   -7132.7237    -669.1997     102002.7      46.7237      46.7237      46.7237 
  222000    111.76533    -7734.973     -7100.32   -565.13444     102002.7      46.7237      46.7237      46.7237 
  223000    106.26409   -7736.4714   -7133.0568   -452.94292     102002.7      46.7237      46.7237      46.7237 
  224000    111.56974   -7735.0054    -7101.463   -526.18164     102002.7      46.7237      46.7237      46.7237 
  225000    108.15239   -7729.2916   -7115.1544   -605.81772     102002.7      46.7237      46.7237      46.7237 
  226000    110.03179   -7727.5339   -7102.7246     -639.482     102002.7      46.7237      46.7237      46.7237 
  227000    107.28245     -7721.92   -7112.7227   -647.12077     102002.7      46.7237      46.7237      46.7237 
  228000     108.7429    -7743.031   -7125.5406   -776.54313     102002.7      46.7237      46.7237      46.7237 
  229000    110.12732   -7731.1926   -7105.8409   -900.65044     102002.7      46.7237      46.7237      46.7237 
  230000    111.59962   -7734.5757   -7100.8636   -612.90394     102002.7      46.7237      46.7237      46.7237 
  231000    106.95763   -7718.0876   -7110.7348   -823.53852     102002.7      46.7237      46.7237      46.7237 
  232000    113.33877    -7745.349   -7101.7612   -787.49422     102002.7      46.7237      46.7237      46.7237 
  233000    109.32154   -7739.8952    -7119.119   -786.80275     102002.7      46.7237      46.7237      46.7237 
  234000    106.24358   -7716.1469   -7112.8488   -1123.6267     102002.7      46.7237      46.7237      46.7237 
  235000    115.62369   -7714.7928   -7058.2303   -646.69519     102002.7      46.7237      46.7237      46.7237 
  236000     111.4636     -7736.55   -7103.6103   -1152.3611     102002.7      46.7237      46.7237      46.7237 
  237000    109.85585   -7724.2457   -7100.4356   -547.09185     102002.7      46.7237      46.7237      46.7237 
  238000    109.61813   -7704.6309   -7082.1705   -755.26258     102002.7      46.7237      46.7237      46.7237 
  239000    109.87382   -7753.4255   -7129.5132   -688.77613     102002.7      46.7237      46.7237      46.7237 
  240000    111.52052    -7722.074   -7088.8111   -1054.0405     102002.7      46.7237      46.7237      46.7237 
  241000    106.85126   -7729.6162   -7122.8674   -993.11807     102002.7      46.7237      46.7237      46.7237 
  242000    110.81687   -7732.6204   -7103.3531   -444.13956     102002.7      46.7237      46.7237      46.7237 
  243000    114.58059   -7749.1247   -7098.4853   -877.31642     102002.7      46.7237      46.7237      46.7237 
  244000    108.42024   -7726.6728   -7111.0146    -780.1834     102002.7      46.7237      46.7237      46.7237 
  245000    109.93194    -7750.755   -7126.5127   -1000.4675     102002.7      46.7237      46.7237      46.7237 
  246000    112.21079   -7752.4176    -7115.235   -878.11515     102002.7      46.7237      46.7237      46.7237 
  247000    112.80823   -7727.7127   -7087.1376   -593.84644     102002.7      46.7237      46.7237      46.7237 
  248000    107.34688   -7724.0203   -7114.4571     -1136.74     102002.7      46.7237      46.7237      46.7237 
  249000    110.30013   -7730.3224   -7103.9894   -1019.7057     102002.7      46.7237      46.7237      46.7237 
  250000      111.134   -7753.9279   -7122.8598   -1003.2781     102002.7      46.7237      46.7237      46.7237 
  251000      108.226   -7754.7259   -7140.1707   -923.11124     102002.7      46.7237      46.7237      46.7237 
  252000    106.53047   -7726.3083   -7121.3811   -790.51458     102002.7      46.7237      46.7237      46.7237 
  253000    112.02644    -7722.036   -7085.9002   -844.50878     102002.7      46.7237      46.7237      46.7237 
  254000    111.98276   -7724.5935   -7088.7058   -941.08267     102002.7      46.7237      46.7237      46.7237 
  255000     106.8668    -7750.227     -7143.39   -938.96034     102002.7      46.7237      46.7237      46.7237 
  256000    108.05749   -7706.7654   -7093.1671    -725.6946     102002.7      46.7237      46.7237      46.7237 
  257000    107.19041   -7729.1432   -7120.4686   -1257.3516     102002.7      46.7237      46.7237      46.7237 
  258000    109.89374   -7714.9557   -7090.9304   -889.25086     102002.7      46.7237      46.7237      46.7237 
  259000    112.30928   -7712.2268   -7074.4849   -1027.7248     102002.7      46.7237      46.7237      46.7237 
  260000     111.5341   -7727.9929   -7094.6528   -493.81146     102002.7      46.7237      46.7237      46.7237 
  261000    108.16837   -7748.1304   -7133.9025   -619.12025     102002.7      46.7237      46.7237      46.7237 
  262000    113.69308   -7729.1056   -7083.5059   -955.18974     102002.7      46.7237      46.7237      46.7237 
  263000     111.9905   -7734.5312   -7098.5995   -795.09733     102002.7      46.7237      46.7237      46.7237 
  264000    108.41135   -7732.8994   -7117.2917   -929.54131     102002.7      46.7237      46.7237      46.7237 
  265000    107.73513   -7749.6735   -7137.9057   -753.84177     102002.7      46.7237      46.7237      46.7237 
  266000    108.36783    -7735.473   -7120.1125   -901.35534     102002.7      46.7237      46.7237      46.7237 
  267000    111.35448   -7692.2069   -7059.8868   -969.95434     102002.7      46.7237      46.7237      46.7237 
  268000    111.55882   -7718.7927   -7085.3123   -889.55207     102002.7      46.7237      46.7237      46.7237 
  269000    108.99641   -7715.8784   -7096.9485   -860.74729     102002.7      46.7237      46.7237      46.7237 
  270000    106.38079    -7709.531   -7105.4537    -1002.701     102002.7      46.7237      46.7237      46.7237 
  271000    111.06986   -7722.9342   -7092.2304   -704.29653     102002.7      46.7237      46.7237      46.7237 
  272000    108.89445   -7733.7282   -7115.3773   -990.12627     102002.7      46.7237      46.7237      46.7237 
  273000    107.44539   -7730.7431   -7120.6206   -1182.2311     102002.7      46.7237      46.7237      46.7237 
  274000    111.58617   -7722.0503   -7088.4146   -786.84936     102002.7      46.7237      46.7237      46.7237 
  275000    112.59332    -7722.657   -7083.3022   -912.60495     102002.7      46.7237      46.7237      46.7237 
  276000    107.34815   -7742.1872   -7132.6168   -561.71261     102002.7      46.7237      46.7237      46.7237 
  277000    108.89693   -7721.2476   -7102.8825   -660.65677     102002.7      46.7237      46.7237      46.7237 
  278000     106.2795   -7722.3313   -7118.8292   -781.25944     102002.7      46.7237      46.7237      46.7237 
  279000    111.15388   -7746.3909   -7115.2099   -866.01593     102002.7      46.7237      46.7237      46.7237 
  280000    108.24622   -7713.0272   -7098.3571   -708.24856     102002.7      46.7237      46.7237      46.7237 
  281000    110.88589   -7725.7669   -7096.1077   -909.15523     102002.7      46.7237      46.7237      46.7237 
  282000     111.2912    -7716.312   -7084.3512   -951.45133     102002.7      46.7237      46.7237      46.7237 
  283000    109.78643   -7724.9847   -7101.5688   -734.53085     102002.7      46.7237      46.7237      46.7237 
  284000    107.37248   -7729.8329   -7120.1244   -772.65116     102002.7      46.7237      46.7237      46.7237 
  285000     110.7358   -7722.8312   -7094.0243   -892.78895     102002.7      46.7237      46.7237      46.7237 
  286000    111.61658    -7700.835   -7067.0265   -864.91532     102002.7      46.7237      46.7237      46.7237 
  287000    109.83662   -7737.7305   -7114.0294   -764.85517     102002.7      46.7237      46.7237      46.7237 
  288000    108.25241    -7727.917   -7113.2119   -607.39897     102002.7      46.7237      46.7237      46.7237 
  289000    105.77125   -7744.5546   -7143.9386   -788.96959     102002.7      46.7237      46.7237      46.7237 
  290000    110.05838   -7729.6456   -7104.6853   -1005.5195     102002.7      46.7237      46.7237      46.7237 
  291000    112.40508   -7722.8528   -7084.5669   -598.81604     102002.7      46.7237      46.7237      46.7237 
  292000    107.35194   -7712.8418   -7103.2499       -821.5     102002.7      46.7237      46.7237      46.7237 
  293000    109.53433   -7747.3896   -7125.4051   -918.94809     102002.7      46.7237      46.7237      46.7237 
  294000    108.99138   -7730.7527   -7111.8513   -856.65857     102002.7      46.7237      46.7237      46.7237 
  295000    111.24261   -7709.5857   -7077.9009   -846.31478     102002.7      46.7237      46.7237      46.7237 
  296000    110.74777   -7727.9531   -7099.0781   -694.63922     102002.7      46.7237      46.7237      46.7237 
  297000    106.78952   -7732.6623    -7126.264   -751.33339     102002.7      46.7237      46.7237      46.7237 
  298000    109.07535   -7724.2337   -7104.8556   -788.39506     102002.7      46.7237      46.7237      46.7237 
  299000    106.98377   -7713.5438   -7106.0425   -784.62074     102002.7      46.7237      46.7237      46.7237 
  300000    108.18353   -7729.5733   -7115.2593   -719.21557     102002.7      46.7237      46.7237      46.7237 
  301000    108.89596   -7750.1363   -7131.7768   -858.59998     102002.7      46.7237      46.7237      46.7237 
  302000    109.99716   -7726.9167   -7102.3041   -886.28925     102002.7      46.7237      46.7237      46.7237 
  303000    108.30848   -7732.9451   -7117.9216   -584.90883     102002.7      46.7237      46.7237      46.7237 
  304000    109.31556   -7721.1654   -7100.4232   -815.66441     102002.7      46.7237      46.7237      46.7237 
  305000     111.4915   -7736.2158   -7103.1177   -650.19627     102002.7      46.7237      46.7237      46.7237 
  306000    109.12817   -7715.8022   -7096.1241   -877.77824     102002.7      46.7237      46.7237      46.7237 
  307000    112.36818   -7714.4186   -7076.3423   -892.35278     102002.7      46.7237      46.7237      46.7237 
  308000     111.9109   -7731.3826   -7095.9029   -900.15985     102002.7      46.7237      46.7237      46.7237 
  309000    110.51057   -7728.6666   -7101.1386   -1004.5788     102002.7      46.7237      46.7237      46.7237 
  310000    108.70188   -7731.8594    -7114.602    -725.3894     102002.7      46.7237      46.7237      46.7237 
  311000    111.01432   -7720.7809   -7090.3924   -709.05718     102002.7      46.7237      46.7237      46.7237 
  312000    109.94836    -7745.657   -7121.3215   -957.61837     102002.7      46.7237      46.7237      46.7237 
  313000    108.78005   -7727.3461   -7109.6447   -902.63056     102002.7      46.7237      46.7237      46.7237 
  314000    110.99522   -7689.7288   -7059.4487   -885.41554     102002.7      46.7237      46.7237      46.7237 
  315000    109.68734   -7735.9339   -7113.0806   -967.47175     102002.7      46.7237      46.7237      46.7237 
  316000     112.3634   -7716.1119   -7078.0627   -792.54263     102002.7      46.7237      46.7237      46.7237 
  317000    107.80048   -7725.5687   -7113.4298   -654.30292     102002.7      46.7237      46.7237      46.7237 
  318000    114.52451   -7710.8729    -7060.552    -1003.157     102002.7      46.7237      46.7237      46.7237 
  319000    112.58318   -7747.9412    -7108.644   -647.76757     102002.7      46.7237      46.7237      46.7237 
  320000    110.66237   -7728.6427   -7100.2527    -749.8023     102002.7      46.7237      46.7237      46.7237 
  321000    105.46084   -7743.7371   -7144.8837   -1055.6228     102002.7      46.7237      46.7237      46.7237 
  322000      111.159   -7727.9705   -7096.7604   -956.42185     102002.7      46.7237      46.7237      46.7237 
  323000    110.24852   -7708.5222   -7082.4822   -1242.3657     102002.7      46.7237      46.7237      46.7237 
  324000    107.41207   -7735.5612   -7125.6279   -645.65882     102002.7      46.7237      46.7237      46.7237 
  325000    108.07155   -7711.6745   -7097.9964   -753.62665     102002.7      46.7237      46.7237      46.7237 
  326000    113.69188   -7714.6118    -7069.019   -587.39568     102002.7      46.7237      46.7237      46.7237 
  327000    109.49874   -7723.7722   -7101.9899   -698.31428     102002.7      46.7237      46.7237      46.7237 
  328000    105.82738   -7745.3762   -7144.4415   -659.83223     102002.7      46.7237      46.7237      46.7237 
  329000    110.01813   -7735.0832   -7110.3515   -674.23966     102002.7      46.7237      46.7237      46.7237 
  330000    110.55472   -7749.8562   -7122.0776   -896.92116     102002.7      46.7237      46.7237      46.7237 
  331000    111.59141    -7722.854   -7089.1885   -776.72193     102002.7      46.7237      46.7237      46.7237 
  332000    111.25672   -7726.9841   -7095.2191   -757.89836     102002.7      46.7237      46.7237      46.7237 
  333000    107.07238   -7729.1592   -7121.1548   -991.71929     102002.7      46.7237      46.7237      46.7237 
  334000    109.01891   -7714.2391   -7095.1815   -772.85752     102002.7      46.7237      46.7237      46.7237 
  335000    109.96531    -7732.995   -7108.5632   -714.19103     102002.7      46.7237      46.7237      46.7237 
  336000    112.92869   -7720.9715   -7079.7123   -965.98037     102002.7      46.7237      46.7237      46.7237 
  337000    106.04677   -7718.8338   -7116.6533   -884.70982     102002.7      46.7237      46.7237      46.7237 
  338000    109.38804   -7713.9197   -7092.7659   -1203.3315     102002.7      46.7237      46.7237      46.7237 
  339000    109.84991   -7734.7352   -7110.9587   -713.19826     102002.7      46.7237      46.7237      46.7237 
  340000    108.76555   -7753.1002   -7135.4812   -661.56552     102002.7      46.7237      46.7237      46.7237 
  341000    108.38121    -7716.413   -7100.9764   -636.05725     102002.7      46.7237      46.7237      46.7237 
  342000    111.90488   -7739.2213   -7103.7758   -532.15194     102002.7      46.7237      46.7237      46.7237 
  343000     107.3955    -7740.653   -7130.8137   -698.22568     102002.7      46.7237      46.7237      46.7237 
  344000    112.23118   -7742.6303   -7105.3319    -681.8173     102002.7      46.7237      46.7237      46.7237 
  345000    110.91543   -7718.9375   -7089.1106   -862.22983     102002.7      46.7237      46.7237      46.7237 
  346000    109.09688   -7716.8144   -7097.3139    -861.1201     102002.7      46.7237      46.7237      46.7237 
  347000    109.69833   -7724.1183   -7101.2026   -856.70494     102002.7      46.7237      46.7237      46.7237 
  348000    112.45233   -7724.6141     -7086.06   -714.93662     102002.7      46.7237      46.7237      46.7237 
  349000    110.77203    -7741.641   -7112.6283   -729.54098     102002.7      46.7237      46.7237      46.7237 
  350000     110.0687   -7724.2211   -7099.2023   -900.89592     102002.7      46.7237      46.7237      46.7237 
  351000    112.58987   -7731.9318   -7092.5966   -804.43592     102002.7      46.7237      46.7237      46.7237 
  352000    110.72898   -7718.9097   -7090.1415   -812.75626     102002.7      46.7237      46.7237      46.7237 
  353000    104.19491   -7744.8652   -7153.2004    -885.0126     102002.7      46.7237      46.7237      46.7237 
  354000    111.69207   -7745.4598   -7111.2227   -860.20032     102002.7      46.7237      46.7237      46.7237 
  355000    109.11361   -7752.6508   -7133.0554   -771.05063     102002.7      46.7237      46.7237      46.7237 
  356000    109.30828   -7718.6746   -7097.9737   -834.22162     102002.7      46.7237      46.7237      46.7237 
  357000    107.31961   -7715.7034   -7106.2951   -1135.9592     102002.7      46.7237      46.7237      46.7237 
  358000    110.64109   -7747.2841    -7119.015   -1026.1519     102002.7      46.7237      46.7237      46.7237 
  359000    108.81832   -7727.1416   -7109.2229   -791.92842     102002.7      46.7237      46.7237      46.7237 
  360000    110.83049   -7733.8861   -7104.5415    -991.4803     102002.7      46.7237      46.7237      46.7237 
  361000    109.41245   -7725.2941   -7104.0017   -1049.0412     102002.7      46.7237      46.7237      46.7237 
  362000    110.73333   -7736.1362   -7107.3433   -694.41599     102002.7      46.7237      46.7237      46.7237 
  363000    107.89612   -7739.2657   -7126.5838   -1049.5353     102002.7      46.7237      46.7237      46.7237 
  364000    108.89687   -7718.0775   -7099.7128    -1060.355     102002.7      46.7237      46.7237      46.7237 
  365000    110.80661   -7727.6079   -7098.3989   -1005.6054     102002.7      46.7237      46.7237      46.7237 
  366000     111.2826   -7723.5415   -7091.6295   -815.77194     102002.7      46.7237      46.7237      46.7237 
  367000    110.91252    -7744.642   -7114.8316   -900.16558     102002.7      46.7237      46.7237      46.7237 
  368000    108.72656   -7728.1267   -7110.7291    -941.4463     102002.7      46.7237      46.7237      46.7237 
  369000    108.08037   -7728.7056   -7114.9774   -441.70896     102002.7      46.7237      46.7237      46.7237 
  370000      113.479    -7721.638   -7077.2539    -1059.557     102002.7      46.7237      46.7237      46.7237 
  371000    108.79466   -7720.5618   -7102.7775   -581.69754     102002.7      46.7237      46.7237      46.7237 
  372000    110.58867   -7731.6352   -7103.6638   -911.91676     102002.7      46.7237      46.7237      46.7237 
  373000    109.06539   -7709.6518   -7090.3301   -640.75536     102002.7      46.7237      46.7237      46.7237 
  374000    110.46333    -7732.677   -7105.4173    -495.0121     102002.7      46.7237      46.7237      46.7237 
  375000    109.23638   -7731.5129   -7111.2203   -821.95463     102002.7      46.7237      46.7237      46.7237 
  376000    110.78161   -7722.7426   -7093.6756   -699.50726     102002.7      46.7237      46.7237      46.7237 
  377000    112.85514   -7733.9283   -7093.0868   -870.24087     102002.7      46.7237      46.7237      46.7237 
  378000    111.26144   -7724.5781   -7092.7864   -883.10745     102002.7      46.7237      46.7237      46.7237 
  379000    107.62179    -7728.056   -7116.9318   -897.29045     102002.7      46.7237      46.7237      46.7237 
  380000    110.56497   -7733.7819    -7105.945   -515.87206     102002.7      46.7237      46.7237      46.7237 
  381000     109.8831   -7731.1817   -7107.2167   -892.06317     102002.7      46.7237      46.7237      46.7237 
  382000    110.52107   -7726.5065   -7098.9188   -897.40106     102002.7      46.7237      46.7237      46.7237 
  383000     116.5834   -7719.9433   -7057.9311    -601.3738     102002.7      46.7237      46.7237      46.7237 
  384000    112.28225   -7741.5101   -7103.9217   -831.68401     102002.7      46.7237      46.7237      46.7237 
  385000    109.23124   -7738.5981   -7118.3347   -795.36886     102002.7      46.7237      46.7237      46.7237 
  386000    108.54036   -7700.4205   -7084.0802   -869.89368     102002.7      46.7237      46.7237      46.7237 
  387000    108.24038   -7731.5715   -7116.9346   -797.03044     102002.7      46.7237      46.7237      46.7237 
  388000    111.59809   -7705.2519   -7071.5485   -793.06112     102002.7      46.7237      46.7237      46.7237 
  389000    108.99845   -7716.9856   -7098.0441   -725.44267     102002.7      46.7237      46.7237      46.7237 
  390000    112.44007   -7709.7042   -7071.2196   -852.69681     102002.7      46.7237      46.7237      46.7237 
  391000    109.93556   -7704.0411   -7079.7782   -793.30982     102002.7      46.7237      46.7237      46.7237 
  392000    111.74215   -7746.3494   -7111.8279   -644.69456     102002.7      46.7237      46.7237      46.7237 
  393000    111.57863   -7701.2851   -7067.6922     -780.992     102002.7      46.7237      46.7237      46.7237 
  394000    109.27504   -7712.4913   -7091.9792   -765.16218     102002.7      46.7237      46.7237      46.7237 
  395000    110.03958    -7737.132   -7112.2785   -898.77508     102002.7      46.7237      46.7237      46.7237 
  396000    108.05972   -7737.4672   -7123.8562    -619.0631     102002.7      46.7237      46.7237      46.7237 
  397000    108.94927   -7723.9505   -7105.2882   -690.75276     102002.7      46.7237      46.7237      46.7237 
  398000    107.10593   -7720.9371   -7112.7422   -723.45469     102002.7      46.7237      46.7237      46.7237 
  399000    105.33884   -7746.7379   -7148.5772   -765.05017     102002.7      46.7237      46.7237      46.7237 
  400000    108.26243   -7723.5724   -7108.8104   -714.80399     102002.7      46.7237      46.7237      46.7237 
  401000    113.17854   -7726.4028   -7083.7249   -629.27958     102002.7      46.7237      46.7237      46.7237 
  402000    109.85787   -7740.3807    -7116.559   -577.40825     102002.7      46.7237      46.7237      46.7237 
  403000    108.94383     -7749.73   -7131.0987   -758.34072     102002.7      46.7237      46.7237      46.7237 
  404000    107.10154    -7720.957    -7112.787   -745.78418     102002.7      46.7237      46.7237      46.7237 
  405000    111.70759   -7739.5363   -7105.2111   -681.15929     102002.7      46.7237      46.7237      46.7237 
  406000    108.02126   -7750.5719   -7137.1793   -600.53944     102002.7      46.7237      46.7237      46.7237 
  407000    109.59756   -7730.5998   -7108.2563   -541.00587     102002.7      46.7237      46.7237      46.7237 
  408000    110.18896   -7725.4021   -7099.7003   -835.35245     102002.7      46.7237      46.7237      46.7237 
  409000    113.53754   -7726.0894   -7081.3729   -846.31708     102002.7      46.7237      46.7237      46.7237 
  410000    109.47644   -7717.6554   -7095.9996   -902.16084     102002.7      46.7237      46.7237      46.7237 
  411000    113.11751   -7715.0469   -7072.7155   -983.24982     102002.7      46.7237      46.7237      46.7237 
  412000    107.67494   -7718.3241   -7106.8981   -593.66172     102002.7      46.7237      46.7237      46.7237 
  413000    106.67065   -7736.7959   -7131.0727   -963.90603     102002.7      46.7237      46.7237      46.7237 
  414000     106.4012   -7716.9671    -7112.774   -904.06364     102002.7      46.7237      46.7237      46.7237 
  415000    110.92816   -7739.9383    -7110.039   -777.37471     102002.7      46.7237      46.7237      46.7237 
  416000    111.29682    -7726.215   -7094.2223   -849.30584     102002.7      46.7237      46.7237      46.7237 
  417000    110.73796   -7735.7381   -7106.9189   -819.84703     102002.7      46.7237      46.7237      46.7237 
  418000    113.67221   -7740.1471    -7094.666   -771.19028     102002.7      46.7237      46.7237      46.7237 
  419000    109.67824    -7712.778   -7089.9763   -788.14482     102002.7      46.7237      46.7237      46.7237 
  420000    106.68526   -7731.2233   -7125.4171   -811.43057     102002.7      46.7237      46.7237      46.7237 
  421000    109.47035   -7734.5131   -7112.8919   -721.77623     102002.7      46.7237      46.7237      46.7237 
  422000    110.60135    -7738.029   -7109.9856   -552.82052     102002.7      46.7237      46.7237      46.7237 
  423000    111.53833   -7737.6064   -7104.2424   -470.13402     102002.7      46.7237      46.7237      46.7237 
  424000     108.7937    -7716.748   -7098.9691   -691.72317     102002.7      46.7237      46.7237      46.7237 
  425000    110.61759    -7736.212   -7108.0763   -723.23956     102002.7      46.7237      46.7237      46.7237 
  426000    111.50168    -7728.292   -7095.1361   -641.19432     102002.7      46.7237      46.7237      46.7237 
  427000     108.0204   -7713.9927   -7100.6051   -957.10421     102002.7      46.7237      46.7237      46.7237 
  428000    111.84942   -7732.7475    -7097.617    -583.0601     102002.7      46.7237      46.7237      46.7237 
  429000    113.08585   -7731.0226    -7088.871   -533.23886     102002.7      46.7237      46.7237      46.7237 
  430000    109.88338   -7738.9513   -7114.9847   -762.76244     102002.7      46.7237      46.7237      46.7237 
  431000    107.47582   -7719.4196   -7109.1243   -436.20921     102002.7      46.7237      46.7237      46.7237 
  432000    106.85607    -7736.385   -7129.6089   -710.24977     102002.7      46.7237      46.7237      46.7237 
  433000    112.42971   -7732.4833   -7094.0576   -682.01159     102002.7      46.7237      46.7237      46.7237 
  434000    111.56546   -7751.0535   -7117.5354   -784.29183     102002.7      46.7237      46.7237      46.7237 
  435000     111.6407   -7741.7569   -7107.8115   -737.55981     102002.7      46.7237      46.7237      46.7237 
  436000    108.80947   -7737.1382   -7119.2699   -843.10308     102002.7      46.7237      46.7237      46.7237 
  437000    109.96578   -7730.0899   -7105.6555    -955.5381     102002.7      46.7237      46.7237      46.7237 
  438000    109.46476   -7723.9051   -7102.3156   -801.42923     102002.7      46.7237      46.7237      46.7237 
  439000    109.95668    -7741.403   -7117.0203   -598.34887     102002.7      46.7237      46.7237      46.7237 
  440000    111.82608   -7708.0572   -7073.0592   -855.49353     102002.7      46.7237      46.7237      46.7237 
  441000    110.67369    -7735.332   -7106.8777   -723.97314     102002.7      46.7237      46.7237      46.7237 
  442000    112.32156   -7728.5458   -7090.7342   -1104.6325     102002.7      46.7237      46.7237      46.7237 
  443000    110.53166   -7733.9612   -7106.3135   -965.93437     102002.7      46.7237      46.7237      46.7237 
  444000    104.63364   -7734.1676   -7140.0114    -1005.784     102002.7      46.7237      46.7237      46.7237 
  445000    109.44125    -7733.263   -7111.8071   -927.06688     102002.7      46.7237      46.7237      46.7237 
  446000    110.31076   -7741.8527   -7115.4594   -531.58277     102002.7      46.7237      46.7237      46.7237 
  447000    109.53992   -7737.5786   -7115.5624   -1050.8503     102002.7      46.7237      46.7237      46.7237 
  448000    110.02941   -7710.8318    -7086.036   -1012.0286     102002.7      46.7237      46.7237      46.7237 
  449000    109.04846   -7731.9195    -7112.694   -702.28039     102002.7      46.7237      46.7237      46.7237 
  450000    112.00338   -7723.8618   -7087.8569   -1001.3325     102002.7      46.7237      46.7237      46.7237 
  451000    110.23607   -7740.5657   -7114.5964   -720.82691     102002.7      46.7237      46.7237      46.7237 
  452000    105.50734   -7744.0148   -7144.8974   -955.00274     102002.7      46.7237      46.7237      46.7237 
  453000    110.07115   -7725.8374   -7100.8046   -916.60946     102002.7      46.7237      46.7237      46.7237 
  454000    110.08045   -7736.8901   -7111.8046   -900.49617     102002.7      46.7237      46.7237      46.7237 
  455000    108.55172   -7730.8644   -7114.4596   -827.02292     102002.7      46.7237      46.7237      46.7237 
  456000    110.00296   -7725.3177   -7100.6721   -770.96565     102002.7      46.7237      46.7237      46.7237 
  457000    113.27658   -7733.4088   -7090.1741    -760.6716     102002.7      46.7237      46.7237      46.7237 
  458000    112.57808   -7737.5925   -7098.3242   -751.07828     102002.7      46.7237      46.7237      46.7237 
  459000    104.54998   -7734.4841    -7140.803    -829.8186     102002.7      46.7237      46.7237      46.7237 
  460000    114.66611   -7734.3825   -7083.2574   -443.15926     102002.7      46.7237      46.7237      46.7237 
  461000    109.49468   -7740.4839   -7118.7246   -950.39549     102002.7      46.7237      46.7237      46.7237 
  462000    107.20028   -7732.2315   -7123.5008   -670.22746     102002.7      46.7237      46.7237      46.7237 
  463000    114.09238   -7727.8813   -7080.0142   -699.41811     102002.7      46.7237      46.7237      46.7237 
  464000    110.65625    -7747.127   -7118.7718   -575.12635     102002.7      46.7237      46.7237      46.7237 
  465000    109.22976   -7727.3732   -7107.1182   -829.88484     102002.7      46.7237      46.7237      46.7237 
  466000    106.05296   -7750.8429   -7148.6272   -699.66691     102002.7      46.7237      46.7237      46.7237 
  467000    109.00747   -7718.5856   -7099.5929   -634.73864     102002.7      46.7237      46.7237      46.7237 
  468000    109.03246   -7718.8719   -7099.7373    -799.8094     102002.7      46.7237      46.7237      46.7237 
  469000    109.48018   -7723.4917   -7101.8148   -619.29729     102002.7      46.7237      46.7237      46.7237 
  470000    113.55006   -7717.6457   -7072.8581   -831.55585     102002.7      46.7237      46.7237      46.7237 
  471000    108.96449   -7730.4861   -7111.7374   -632.46002     102002.7      46.7237      46.7237      46.7237 
  472000    110.66456   -7720.0987   -7091.6963   -732.55894     102002.7      46.7237      46.7237      46.7237 
  473000    111.45312   -7737.6226   -7104.7424   -793.00718     102002.7      46.7237      46.7237      46.7237 
  474000    109.94748   -7749.8377   -7125.5072   -848.53445     102002.7      46.7237      46.7237      46.7237 
  475000    105.57872   -7749.2923   -7149.7695   -795.72181     102002.7      46.7237      46.7237      46.7237 
  476000    111.72882    -7738.474   -7104.0282   -533.56584     102002.7      46.7237      46.7237      46.7237 
  477000    108.43555   -7739.9118   -7124.1667   -824.17887     102002.7      46.7237      46.7237      46.7237 
  478000    112.06788   -7708.9511     -7072.58   -711.57193     102002.7      46.7237      46.7237      46.7237 
  479000    108.42574   -7726.6075   -7110.9181   -586.51307     102002.7      46.7237      46.7237      46.7237 
  480000    107.53142   -7712.3667   -7101.7556   -837.71008     102002.7      46.7237      46.7237      46.7237 
  481000    109.25442   -7740.5851   -7120.1901   -887.26036     102002.7      46.7237      46.7237      46.7237 
  482000    109.68098   -7727.0028   -7104.1856   -914.03805     102002.7      46.7237      46.7237      46.7237 
  483000    108.37086   -7760.2964   -7144.9186   -1122.3922     102002.7      46.7237      46.7237      46.7237 
  484000    107.96736   -7730.2719   -7117.1854   -828.83544     102002.7      46.7237      46.7237      46.7237 
  485000    109.78468   -7741.2551    -7117.849   -703.65685     102002.7      46.7237      46.7237      46.7237 
  486000    110.44893   -7737.7204   -7110.5424   -960.72482     102002.7      46.7237      46.7237      46.7237 
  487000    111.62803   -7738.0904    -7104.217   -900.01934     102002.7      46.7237      46.7237      46.7237 
  488000    106.45411   -7734.2808   -7129.7872   -806.48009     102002.7      46.7237      46.7237      46.7237 
  489000    111.45919   -7729.9496   -7097.0349   -626.59663     102002.7      46.7237      46.7237      46.7237 
  490000    107.50396   -7742.1665   -7131.7114   -514.14728     102002.7      46.7237      46.7237      46.7237 
  491000    108.15846    -7732.578   -7118.4063   -773.11445     102002.7      46.7237      46.7237      46.7237 
  492000    111.90968   -7735.3221   -7099.8493   -817.60412     102002.7      46.7237      46.7237      46.7237 
  493000    109.57444   -7727.4751   -7105.2629   -556.73083     102002.7      46.7237      46.7237      46.7237 
  494000    109.00437   -7731.3496   -7112.3745   -649.86462     102002.7      46.7237      46.7237      46.7237 
  495000    111.11932   -7732.3482   -7101.3635   -1061.6134     102002.7      46.7237      46.7237      46.7237 
  496000    106.69764   -7716.6994   -7110.8229   -953.61326     102002.7      46.7237      46.7237      46.7237 
  497000     107.6159   -7727.3396   -7116.2488   -638.27276     102002.7      46.7237      46.7237      46.7237 
  498000    111.32525   -7725.0052   -7092.8511   -920.14168     102002.7      46.7237      46.7237      46.7237 
  499000    108.31652   -7759.2631   -7144.1939   -696.18206     102002.7      46.7237      46.7237      46.7237 
  500000    109.32338   -7722.0447   -7101.2581   -1002.6197     102002.7      46.7237      46.7237      46.7237 
  500502    111.57556   -7722.2807   -7088.7052   -643.42798     102002.7      46.7237      46.7237      46.7237 
Loop time of 622.315 on 24 procs for 500000 steps with 1906 atoms

Performance: 69.418 ns/day, 0.346 hours/ns, 803.451 timesteps/s
99.8% CPU use with 24 MPI tasks x no OpenMP threads

MPI task timing breakdown:
Section |  min time  |  avg time  |  max time  |%varavg| %total
---------------------------------------------------------------
Pair    | 172.59     | 293.62     | 405.06     | 409.5 | 47.18
Bond    | 63.168     | 78.274     | 94.306     | 102.9 | 12.58
Neigh   | 2.8467     | 2.8777     | 2.9039     |   1.1 |  0.46
Comm    | 121.53     | 240.04     | 375.84     | 500.3 | 38.57
Output  | 0.35162    | 0.35194    | 0.35539    |   0.1 |  0.06
Modify  | 3.4962     | 4.0449     | 4.4307     |  12.6 |  0.65
Other   |            | 3.1        |            |       |  0.50

Nlocal:    79.4167 ave 113 max 37 min
Histogram: 2 1 2 0 4 3 3 6 2 1
Nghost:    2162 ave 2335 max 2052 min
Histogram: 8 5 3 0 0 0 0 0 5 3
Neighs:    7632.92 ave 12919 max 1858 min
Histogram: 2 3 3 3 1 0 2 1 7 2

Total # of neighbors = 183190
Ave neighs/atom = 96.1123
Ave special neighs/atom = 6.04407
Neighbor list builds = 4182
Dangerous builds = 0
Neighbor list info ...
  update every 1 steps, delay 10 steps, check yes
  max neighbors/atom: 2000, page size: 100000
  master list distance cutoff = 16
  ghost atom cutoff = 16
  binsize = 8, bins = 6 6 6
  3 neighbor lists, perpetual/occasional/extra = 3 0 0
  (1) pair buck6d/coul/gauss/dsf, perpetual, skip from (3)
      attributes: half, newton on
      pair build: skip
      stencil: none
      bin: none
  (2) pair lj/cut, perpetual, skip from (3)
      attributes: half, newton on
      pair build: skip
      stencil: none
      bin: none
  (3) neighbor class addition, perpetual
      attributes: half, newton on
      pair build: half/bin/newton
      stencil: half/bin/3d/newton
      bin: standard
Setting up Verlet run ...
  Unit style    : real
  Current step  : 500502
  Time step     : 1
WARNING: Inconsistent image flags (../domain.cpp:786)
Per MPI rank memory allocation (min/avg/max) = 24.14 | 24.5 | 24.58 Mbytes
Step Time TotEng KinEng PotEng E_mol E_pair Temp Pxx Pyy Pzz Pxy Pxz Pyz Cella Cellb Cellc CellAlpha CellBeta CellGamma Volume Press 
  500502       500000   -7088.7052    633.57548   -7722.2807    4290.7269   -12013.008    111.57556   -583.99251   -439.82398   -906.46745   -89.369418    84.110116    118.84059      46.7237      46.7237      46.7237           90           90           90     102002.7   -643.42798 
  501000       500498   -7095.7397    627.72525    -7723.465    4291.9895   -12015.454    110.54531   -433.53382   -428.14566   -803.49929    240.36154   -50.546254    60.870557      46.7237      46.7237      46.7237           90           90           90     102002.7   -555.05959 
  502000       501498   -7106.3512    618.68208   -7725.0333    4311.6388   -12036.672    108.95277   -1340.2619   -892.64615   -736.81193   -173.38857    -133.6929     132.7217      46.7237      46.7237      46.7237           90           90           90     102002.7   -989.90667 
  503000       502498   -7080.7439    643.25952   -7724.0034     4319.352   -12043.355    113.28096   -776.69593   -1450.7579   -929.46904    249.40861   -18.623894   -196.99344      46.7237      46.7237      46.7237           90           90           90     102002.7   -1052.3076 
  504000       503498    -7104.572    632.05975   -7736.6318    4304.7332   -12041.365    111.30863   -1267.8336   -1023.7733   -920.05545    158.20751   -97.104364   -196.32533      46.7237      46.7237      46.7237           90           90           90     102002.7   -1070.5541 
  505000       504498   -7119.9109    614.42188   -7734.3328    4313.6579   -12047.991    108.20252   -1630.1148   -812.10348   -861.19889   -137.13052   -5.3307529    52.617498      46.7237      46.7237      46.7237           90           90           90     102002.7    -1101.139 
  506000       505498   -7147.0355     591.0237   -7738.0592    4301.7776   -12039.837      104.082   -842.77454   -1497.3609   -702.45151   -28.833424   -85.288636   -15.750634      46.7237      46.7237      46.7237           90           90           90     102002.7   -1014.1957 
  507000       506498   -7097.4074     646.7604   -7744.1678    4298.9373   -12043.105    113.89749   -607.49529   -1030.7871   -575.65015    66.220149    135.21586   -152.71328      46.7237      46.7237      46.7237           90           90           90     102002.7   -737.97753 
  508000       507498   -7127.5137    602.63606   -7730.1498    4331.8352   -12061.985    106.12699   -1338.6509   -597.70929     -742.366    7.2118904   -108.68766   -115.92641      46.7237      46.7237      46.7237           90           90           90     102002.7   -892.90873 
  509000       508498   -7074.3792    657.36019   -7731.7394    4300.1685   -12031.908    115.76416   -807.90181   -982.34786   -459.35655    271.45125    112.25199   -121.90942      46.7237      46.7237      46.7237           90           90           90     102002.7   -749.86874 
  510000       509498   -7088.9429    640.88619   -7729.8291    4303.1913    -12033.02    112.86301   -346.11318   -906.39038   -1183.8316   -111.06452   -136.84071   -166.18402      46.7237      46.7237      46.7237           90           90           90     102002.7   -812.11173 
  511000       510498   -7124.0815     621.5174   -7745.5989    4288.8013     -12034.4    109.45208   -1271.5528   -765.06567    -375.6445   -7.7253754    64.649681    -166.2627      46.7237      46.7237      46.7237           90           90           90     102002.7   -804.08767 
  512000       511498   -7081.6998    650.44548   -7732.1453    4305.4738   -12037.619    114.54645    -653.9993   -403.27925   -621.14826    149.02314   -94.915437   -158.63001      46.7237      46.7237      46.7237           90           90           90     102002.7   -559.47561 
  513000       512498    -7119.485    617.16107   -7736.6461    4303.3305   -12039.977    108.68491   -560.63968   -453.54574   -295.97258   -59.388406   -23.086834   -144.07219      46.7237      46.7237      46.7237           90           90           90     102002.7   -436.71933 
  514000       513498   -7108.5791     630.1142   -7738.6933         4311   -12049.693    110.96601   -693.23161   -970.88031    -801.8587    125.77705    116.63117   -75.372889      46.7237      46.7237      46.7237           90           90           90     102002.7   -821.99021 
  515000       514498   -7061.2596    647.27109   -7708.5306    4324.5259   -12033.057    113.98742   -764.23934   -495.87782   -694.76296   -192.90218    14.228834   -355.32745      46.7237      46.7237      46.7237           90           90           90     102002.7   -651.62671 
  516000       515498   -7104.2601    628.70899   -7732.9691    4334.1879   -12067.157    110.71855   -698.37293   -1099.7826   -980.49518    91.877341    61.105736   -149.84401      46.7237      46.7237      46.7237           90           90           90     102002.7    -926.2169 
  517000       516498   -7124.2233    621.22096   -7745.4443    4289.2864   -12034.731    109.39987   -1090.0322   -446.81965   -1191.3936    10.270647    367.85088    149.61395      46.7237      46.7237      46.7237           90           90           90     102002.7   -909.41517 
  518000       517498   -7105.5848     621.2099   -7726.7947     4318.706   -12045.501    109.39793   -725.17521   -735.58593   -1077.9356   -152.10949   -22.311296    199.99742      46.7237      46.7237      46.7237           90           90           90     102002.7   -846.23224 
  519000       518498    -7083.198    652.30315   -7735.5012    4288.7596   -12024.261    114.87359   -688.01073   -543.79392   -1144.2356    51.025495   -424.67807   -18.486723      46.7237      46.7237      46.7237           90           90           90     102002.7   -792.01342 
  520000       519498   -7124.2593    626.61267    -7750.872    4290.1651   -12041.037    110.34938   -533.80433   -572.47019   -578.57734    257.67473   -115.26871    98.609916      46.7237      46.7237      46.7237           90           90           90     102002.7   -561.61729 
  521000       520498   -7107.2036    610.86353   -7718.0672    4309.3114   -12027.379    107.57588    -562.6898   -1246.4904   -1372.8215   -247.54354   -272.64691   -2.0654568      46.7237      46.7237      46.7237           90           90           90     102002.7   -1060.6672 
  522000       521498   -7115.7335    633.13993   -7748.8734     4280.389   -12029.262    111.49886   -1090.9967    -791.4354   -1047.2118    64.628586   -277.35599   -75.727323      46.7237      46.7237      46.7237           90           90           90     102002.7   -976.54795 
  523000       522498   -7092.3084    634.68835   -7726.9968     4308.348   -12035.345    111.77154   -863.87531   -1271.5288   -617.00545    189.55449   -108.58829    32.464045      46.7237      46.7237      46.7237           90           90           90     102002.7   -917.46984 
  524000       523498   -7096.6496    623.15366   -7719.8032    4319.1487   -12038.952    109.74023   -1176.1963   -912.06955   -1228.9444   -184.32962    71.271259   -10.671543      46.7237      46.7237      46.7237           90           90           90     102002.7   -1105.7368 
  525000       524498   -7080.5394    637.43292   -7717.9723    4313.1652   -12031.138    112.25487   -924.89069   -461.21629   -1095.5046    91.961576    170.39474   -85.851368      46.7237      46.7237      46.7237           90           90           90     102002.7   -827.20388 
  526000       525498   -7119.8926    627.97819   -7747.8708    4300.3163   -12048.187    110.58985   -1041.4443   -785.89208   -588.31104   -123.72847   -50.981823   -97.987935      46.7237      46.7237      46.7237           90           90           90     102002.7   -805.21582 
  527000       526498   -7123.0367    622.42678   -7745.4634    4293.9217   -12039.385    109.61222   -1450.9889   -864.75204   -837.12974    52.288158    52.699437    15.318201      46.7237      46.7237      46.7237           90           90           90     102002.7   -1050.9569 
  528000       527498   -7119.3468    621.00114   -7740.3479    4307.2875   -12047.635    109.36116   -1128.4833   -987.20253   -946.15555   -50.067068   -17.665586    44.935593      46.7237      46.7237      46.7237           90           90           90     102002.7   -1020.6138 
  529000       528498   -7086.7357    632.60515   -7719.3409    4316.5602   -12035.901    111.40468   -756.53623    -758.4471   -536.35434      251.886   -101.74664    63.716229      46.7237      46.7237      46.7237           90           90           90     102002.7   -683.77922 
  530000       529498   -7080.6875    649.27986   -7729.9673    4305.3611   -12035.328    114.34117    -983.0226   -823.66784   -949.26703    -43.67872   -269.09858    -152.2783      46.7237      46.7237      46.7237           90           90           90     102002.7   -918.65249 
  531000       530498   -7121.0987    605.87688   -7726.9756    4315.1918   -12042.167    106.69771   -699.62478   -796.07051   -1166.8635   -63.111191   -61.041078   -149.06323      46.7237      46.7237      46.7237           90           90           90     102002.7    -887.5196 
  532000       531498   -7063.8649    653.55841   -7717.4233     4327.673   -12045.096    115.09465    -1002.188   -651.22759   -1068.2655   -49.778868     21.33095   -62.580436      46.7237      46.7237      46.7237           90           90           90     102002.7   -907.22702 
  533000       532498   -7132.9385    624.53562   -7757.4742    4281.4906   -12038.965     109.9836   -730.94002   -983.16249   -578.85665      110.755    71.884613    37.667938      46.7237      46.7237      46.7237           90           90           90     102002.7   -764.31972 
  534000       533498   -7113.6898    620.94632   -7734.6361     4291.471   -12026.107    109.35151   -703.81757    -817.3697   -700.43802   -136.57462   -26.994718    199.12744      46.7237      46.7237      46.7237           90           90           90     102002.7   -740.54176 
  535000       534498   -7075.2768    644.65545   -7719.9323    4311.3243   -12031.257    113.52679   -715.19771   -778.11832   -857.42978    218.95689    143.94518    217.47357      46.7237      46.7237      46.7237           90           90           90     102002.7   -783.58194 
  536000       535498   -7097.5977    614.16386   -7711.7616    4321.0669   -12032.829    108.15708   -1414.0661   -662.22683   -882.33212    111.87567    89.361674   -387.70882      46.7237      46.7237      46.7237           90           90           90     102002.7   -986.20836 
  537000       536498    -7081.007    648.13998    -7729.147    4315.4044   -12044.551    114.14044   -427.10779   -1025.8783   -599.58589    16.600233   -124.87702   -23.660059      46.7237      46.7237      46.7237           90           90           90     102002.7   -684.19065 
  538000       537498   -7091.6809    626.11664   -7717.7975    4327.8345   -12045.632    110.26202   -1338.2336    -1033.334    -1001.047    127.43798   -22.663772   -28.430264      46.7237      46.7237      46.7237           90           90           90     102002.7   -1124.2049 
  539000       538498   -7124.6182    618.33194   -7742.9502    4300.0021   -12042.952     108.8911   -1135.8943   -862.86044   -792.81707   -20.916222   -109.13654   -318.74216      46.7237      46.7237      46.7237           90           90           90     102002.7   -930.52394 
  540000       539498   -7119.9136    635.24724   -7755.1608    4275.8469   -12031.008    111.86997   -761.53615   -579.22408   -644.92711    73.987776    73.917711    353.99384      46.7237      46.7237      46.7237           90           90           90     102002.7   -661.89578 
  541000       540498   -7099.0996    618.97829   -7718.0778    4321.7105   -12039.788    109.00493   -638.97059   -880.91316   -1122.8378    123.35462    76.811482    288.00597      46.7237      46.7237      46.7237           90           90           90     102002.7   -880.90719 
  542000       541498   -7094.6663    629.53197   -7724.1983    4299.4392   -12023.637    110.86348   -564.11918   -906.33115   -364.33364    -168.8197    84.899969   -73.459563      46.7237      46.7237      46.7237           90           90           90     102002.7   -611.59466 
  543000       542498    -7111.076    623.51671   -7734.5927    4281.8646   -12016.457    109.80416   -895.87254   -949.59424   -475.84055   -36.877946    162.18009    -16.35873      46.7237      46.7237      46.7237           90           90           90     102002.7   -773.76911 
  544000       543498   -7105.0824    630.23401   -7735.3164    4293.8607   -12029.177    110.98711   -994.67203   -538.31975   -994.37261   -273.57869   -134.28789    235.99282      46.7237      46.7237      46.7237           90           90           90     102002.7    -842.4548 
  545000       544498   -7101.2672    630.17478    -7731.442    4288.0172   -12019.459    110.97668   -830.31848   -894.27587   -772.95132    4.0833656    114.11128    178.48409      46.7237      46.7237      46.7237           90           90           90     102002.7   -832.51522 
  546000       545498   -7111.6443     625.4363   -7737.0806    4277.0229   -12014.104    110.14221   -732.65036   -1214.1114   -356.58456   -29.723477   -159.50971   -27.402304      46.7237      46.7237      46.7237           90           90           90     102002.7   -767.78211 
  547000       546498   -7102.0975    622.95363   -7725.0512    4294.1033   -12019.154      109.705   -819.84446   -595.80666   -806.38136    75.990508   -253.41747   -3.9131432      46.7237      46.7237      46.7237           90           90           90     102002.7   -740.67749 
  548000       547498   -7129.5615    620.12137   -7749.6828    4279.1873    -12028.87    109.20623   -525.65685   -613.89246   -859.09692   -123.78264   -51.509397    110.04523      46.7237      46.7237      46.7237           90           90           90     102002.7   -666.21541 
  549000       548498   -7104.6282    634.71699   -7739.3452     4300.022   -12039.367    111.77659   -714.85347   -809.80929   -298.28084   -41.924407     -194.424   -4.3048552      46.7237      46.7237      46.7237           90           90           90     102002.7   -607.64787 
  550000       549498    -7091.369    648.31031   -7739.6793    4308.0379   -12047.717    114.17043    -1027.008   -1060.2581   -536.63075    2.4819666    212.78137   -56.189745      46.7237      46.7237      46.7237           90           90           90     102002.7   -874.63225 
  551000       550498   -7115.8271    623.12571   -7738.9528    4298.8704   -12037.823    109.73531   -727.85129   -769.62468   -449.74961   0.62977747    20.283932   -147.09767      46.7237      46.7237      46.7237           90           90           90     102002.7   -649.07519 
  552000       551498   -7115.7909    617.67381   -7733.4647    4287.4361   -12020.901     108.7752    -923.5117   -592.25164    -903.2919   -209.49726    217.95142   -161.65341      46.7237      46.7237      46.7237           90           90           90     102002.7   -806.35174 
  553000       552498   -7084.7038    632.93962   -7717.6434    4310.1293   -12027.773    111.46358     -1064.04   -923.63627    -676.4374    -242.4844   -147.67936   -10.483492      46.7237      46.7237      46.7237           90           90           90     102002.7   -888.03789 
  554000       553498   -7108.0379    612.24262   -7720.2805    4311.1135   -12031.394    107.81875   -488.35022   -759.42894   -752.79044   -236.97149   -37.954449    86.193215      46.7237      46.7237      46.7237           90           90           90     102002.7   -666.85654 
  555000       554498   -7094.9837    641.47326   -7736.4569    4310.7631    -12047.22     112.9664   -755.78225   -927.48105   -694.46457    -211.9177   -52.288882    75.832255      46.7237      46.7237      46.7237           90           90           90     102002.7   -792.57596 
[...]
  936000       935498   -7101.3949    621.78318   -7723.1781    4311.0395   -12034.218    109.49888   -705.37109   -323.66673   -649.92196     178.1909    140.17692    -24.37171      46.7237      46.7237      46.7237           90           90           90     102002.7   -559.65326 
  937000       936498   -7106.5581     632.0969    -7738.655    4304.6621   -12043.317    111.31518   -921.20039   -1155.4284   -432.41527    148.55651   -322.41059   -47.879437      46.7237      46.7237      46.7237           90           90           90     102002.7   -836.34802 
  938000       937498   -7150.8391     617.4141   -7768.2532    4261.7677   -12030.021    108.72947   -413.80989    -1056.217   -812.10256   -66.987579    40.103422   -25.720392      46.7237      46.7237      46.7237           90           90           90     102002.7    -760.7098 
  939000       938498   -7103.7351    621.60954   -7725.3446    4291.9699   -12017.314     109.4683   -704.07372   -323.01644    -971.2612    54.029356   -208.10006   -289.75515      46.7237      46.7237      46.7237           90           90           90     102002.7   -666.11712 
  940000       939498   -7086.3668    626.25376   -7712.6205    4325.7486   -12038.369    110.28617    -1057.373   -1358.6294   -1140.2623   -287.87857   -7.5158356   -98.303344      46.7237      46.7237      46.7237           90           90           90     102002.7   -1185.4216 
  941000       940498   -7091.0056    652.93413   -7743.9397    4291.1456   -12035.085    114.98471   -717.52914   -792.05884   -491.06443   -39.892693   -43.729488   -181.80142      46.7237      46.7237      46.7237           90           90           90     102002.7   -666.88414 
  942000       941498   -7105.6222    630.11028   -7735.7325    4317.2806   -12053.013    110.96532   -947.81151   -775.17671   -1064.3277     169.0546   -109.62592   -123.59076      46.7237      46.7237      46.7237           90           90           90     102002.7   -929.10531 
  943000       942498   -7119.7024    634.46923   -7754.1716    4297.6817   -12051.853    111.73295   -790.94473   -752.00342   -984.05503    47.533684   -9.8749653   -97.307346      46.7237      46.7237      46.7237           90           90           90     102002.7    -842.3344 
  944000       943498   -7089.0848    653.11596   -7742.2007    4292.0263   -12034.227    115.01673    -584.2272   -622.47212   -472.44424    18.969789    56.187337   -73.713061      46.7237      46.7237      46.7237           90           90           90     102002.7   -559.71452 
  945000       944498   -7118.2692    618.02996   -7736.2991    4284.2654   -12020.565    108.83792   -995.96266   -837.64098   -735.94318    25.138167   -60.109872   -48.576803      46.7237      46.7237      46.7237           90           90           90     102002.7    -856.5156 
  946000       945498   -7115.6775    619.32143   -7734.9989    4296.7129   -12031.712    109.06536   -747.52748   -466.23966   -556.16852   -18.274911   -71.881556    32.550195      46.7237      46.7237      46.7237           90           90           90     102002.7   -589.97855 
  947000       946498   -7121.5852    626.02002   -7747.6052    4298.1361   -12045.741    110.24501    -1077.082   -1087.7993   -572.17948    51.287075   -15.214185   -156.15142      46.7237      46.7237      46.7237           90           90           90     102002.7   -912.35358 
  948000       947498   -7115.0189    637.32027   -7752.3392    4286.2383   -12038.577    112.23504   -493.43929   -926.01462   -295.47342    250.75742    111.50371   -36.105787      46.7237      46.7237      46.7237           90           90           90     102002.7   -571.64244 
  949000       948498   -7126.0773    615.15141   -7741.2287    4304.9832   -12046.212      108.331    -563.2021   -907.41018     -520.924     99.70799    -180.4657    190.75901      46.7237      46.7237      46.7237           90           90           90     102002.7   -663.84543 
  950000       949498   -7110.9757    620.16478   -7731.1405    4307.4994    -12038.64    109.21388   -272.33948   -938.15388   -211.81098    130.68317   -192.28964    108.30844      46.7237      46.7237      46.7237           90           90           90     102002.7   -474.10145 
  951000       950498   -7081.8529    633.81819   -7715.6711    4302.4056   -12018.077     111.6183   -738.52905   -859.28812    -506.8067    85.798488   -25.180061    207.53762      46.7237      46.7237      46.7237           90           90           90     102002.7   -701.54129 
  952000       951498   -7090.1712    616.64844   -7706.8196    4326.9126   -12033.732    108.59463   -744.45207   -454.87777   -781.71497    75.808121    14.640034   -166.24884      46.7237      46.7237      46.7237           90           90           90     102002.7   -660.34827 
  953000       952498   -7130.1639    604.98153   -7735.1454    4312.3224   -12047.468    106.54003   -999.75924   -1020.6362   -514.24508    185.89405   -231.68826   -149.69656      46.7237      46.7237      46.7237           90           90           90     102002.7   -844.88017 
  954000       953498   -7100.7166    629.37851   -7730.0951     4297.163   -12027.258    110.83646   -548.34877   -1162.3683   -844.41026   -164.92794    77.393947     71.61809      46.7237      46.7237      46.7237           90           90           90     102002.7   -851.70912 
  955000       954498   -7084.3009     628.7987   -7713.0996    4318.2726   -12031.372    110.73435   -766.06574   -947.43865   -671.21141    135.68007    15.834178    122.34161      46.7237      46.7237      46.7237           90           90           90     102002.7   -794.90527 
  956000       955498   -7110.0235    605.01301   -7715.0365    4318.6311   -12033.668    106.54558   -1336.7894   -1080.8257   -1195.7405    4.9098319   -251.85037    133.79888      46.7237      46.7237      46.7237           90           90           90     102002.7   -1204.4519 
  957000       956498   -7106.2128    621.63206   -7727.8448     4306.505    -12034.35    109.47227   -700.56939   -599.35849   -421.97737   -49.865966    163.60638   -86.973121      46.7237      46.7237      46.7237           90           90           90     102002.7   -573.96842 
  958000       957498   -7141.1985    608.14816   -7749.3467    4283.1017   -12032.448    107.09769   -929.54774   -571.67565   -753.42094    232.08115    210.28949    3.2338154      46.7237      46.7237      46.7237           90           90           90     102002.7   -751.54811 
  959000       958498   -7085.4606    636.90684   -7722.3674    4313.7559   -12036.123    112.16223   -1170.5667   -681.40065   -784.87886    140.04676    77.459544   -8.2543955      46.7237      46.7237      46.7237           90           90           90     102002.7   -878.94874 
  960000       959498   -7117.7336    616.27428   -7734.0079    4299.4041   -12033.412    108.52874   -622.65662   -993.47831   -820.31534    61.652573    51.551534    123.01369      46.7237      46.7237      46.7237           90           90           90     102002.7   -812.15009 
  961000       960498   -7094.6831    636.49298   -7731.1761    4311.5073   -12042.683    112.08935    -998.0277   -836.82817   -747.21658    76.627955    6.9808822   -66.053118      46.7237      46.7237      46.7237           90           90           90     102002.7   -860.69082 
  962000       961498   -7125.4084    614.24769   -7739.6561    4305.0152   -12044.671    108.17185   -864.75772   -1108.1844   -899.38914    8.1891078    138.17987    142.43505      46.7237      46.7237      46.7237           90           90           90     102002.7   -957.44374 
  963000       962498   -7134.3107    596.44713   -7730.7578    4294.1219    -12024.88    105.03709   -592.07826   -1096.1805   -714.25504   -98.228305    135.46076      68.3179      46.7237      46.7237      46.7237           90           90           90     102002.7   -800.83795 
  964000       963498   -7121.5238    615.80235   -7737.3262    4289.5395   -12026.866    108.44563   -373.24646   -803.32772    -771.5045   -6.0840726    143.51049    337.87399      46.7237      46.7237      46.7237           90           90           90     102002.7   -649.35956 
  965000       964498   -7111.0316    630.75226   -7741.7839      4304.59   -12046.374    111.07838   -1323.5918   -1361.1448   -497.65752    26.386292   -126.20063   -47.065583      46.7237      46.7237      46.7237           90           90           90     102002.7    -1060.798 
  966000       965498   -7138.2727    603.70889   -7741.9816    4295.7985    -12037.78    106.31592   -725.82192   -667.85476   -1091.2171    67.697952   -63.166073   -44.691824      46.7237      46.7237      46.7237           90           90           90     102002.7   -828.29792 
  967000       966498   -7120.7913    610.55807   -7731.3494    4300.0263   -12031.376    107.52209   -865.23799   -1022.4607   -946.62849   -21.514081    118.47474    225.67162      46.7237      46.7237      46.7237           90           90           90     102002.7   -944.77574 
  968000       967498   -7088.8754    626.39397   -7715.2693    4319.1953   -12034.465    110.31086   -1177.2836   -981.40542   -914.12401   -49.441479    190.89702    28.402818      46.7237      46.7237      46.7237           90           90           90     102002.7    -1024.271 
  969000       968498   -7097.4147    623.26435    -7720.679    4323.2669   -12043.946    109.75972   -964.97203   -1040.7161   -1302.0068    50.565554   -92.776206    -60.35138      46.7237      46.7237      46.7237           90           90           90     102002.7    -1102.565 
  970000       969498    -7110.924    615.00147   -7725.9254    4292.7411   -12018.667    108.30459   -547.51465   -952.82294    6.8911501    292.60461    134.24913   -99.305368      46.7237      46.7237      46.7237           90           90           90     102002.7   -497.81548 
  971000       970498    -7075.019     640.4105   -7715.4295    4329.5841   -12045.014    112.77924   -828.49701   -1011.8574   -843.68806    234.07349    285.97176   -427.16239      46.7237      46.7237      46.7237           90           90           90     102002.7   -894.68082 
  972000       971498   -7088.1597    635.07779   -7723.2375    4291.0383   -12014.276    111.84012   -519.93257   -699.95705   -650.91203    176.25183    19.326928   -36.054994      46.7237      46.7237      46.7237           90           90           90     102002.7   -623.60055 
  973000       972498   -7108.2996    624.44917   -7732.7488     4321.894   -12054.643    109.96838   -874.02101   -1131.2143   -197.13424    117.11573   -27.193377    175.24816      46.7237      46.7237      46.7237           90           90           90     102002.7    -734.1232 
  974000       973498   -7130.8602    616.05794   -7746.9181    4297.7445   -12044.663    108.49064   -708.39623   -566.42341   -1049.5356   -47.320846   -266.86053   -22.645103      46.7237      46.7237      46.7237           90           90           90     102002.7   -774.78508 
  975000       974498   -7115.6853    613.51108   -7729.1964    4291.0755   -12020.272    108.04213   -930.62954   -829.80203   -540.38837    85.447913   -32.059397    13.673642      46.7237      46.7237      46.7237           90           90           90     102002.7   -766.93998 
  976000       975498   -7124.7174    622.99855   -7747.7159    4302.6592   -12050.375    109.71292   -947.31344   -1180.7935   -1070.1576   -262.11251   -73.817778    131.92657      46.7237      46.7237      46.7237           90           90           90     102002.7   -1066.0882 
  977000       976498    -7097.445    622.56897    -7720.014    4305.4863     -12025.5    109.63726   -628.21042   -660.17592   -739.85245    -53.93506   -137.11579   -203.54917      46.7237      46.7237      46.7237           90           90           90     102002.7    -676.0796 
  978000       977498   -7086.6388    629.21004   -7715.8488    4324.0677   -12039.916    110.80679   -951.16399   -877.99937   -961.92147    -375.6376   -272.12464    235.23202      46.7237      46.7237      46.7237           90           90           90     102002.7   -930.36161 
  979000       978498   -7127.0889    606.91443   -7734.0033    4310.2431   -12044.246    106.88043   -983.08452   -1611.3276   -882.90219   -39.430668   -12.069286   -35.843955      46.7237      46.7237      46.7237           90           90           90     102002.7   -1159.1048 
  980000       979498   -7116.0504    627.79755   -7743.8479    4304.9127   -12048.761    110.55804   -855.39311    -494.1638   -1084.6156   -37.264311    194.89743    -1.290084      46.7237      46.7237      46.7237           90           90           90     102002.7   -811.39082 
  981000       980498   -7120.3142    614.36699   -7734.6812    4305.6767   -12040.358    108.19286   -696.26886   -687.18787    -970.0233    145.85306    88.048605    147.75525      46.7237      46.7237      46.7237           90           90           90     102002.7   -784.49335 
  982000       981498   -7116.9842    612.18731   -7729.1715    4290.3318   -12019.503    107.80901   -683.09046   -708.80124   -525.47668   -41.826424   -10.633591   -83.297553      46.7237      46.7237      46.7237           90           90           90     102002.7   -639.12279 
  983000       982498   -7085.0907    640.23353   -7725.3242    4305.9186   -12031.243    112.74807   -372.08722   -288.64855   -1079.1033   -43.466519    22.058095   -100.77036      46.7237      46.7237      46.7237           90           90           90     102002.7   -579.94637 
  984000       983498   -7093.7927    636.86397   -7730.6566    4292.2106   -12022.867    112.15468   -234.98231   -569.09381   -756.68455   -176.56288     52.18566    125.99101      46.7237      46.7237      46.7237           90           90           90     102002.7   -520.25356 
  985000       984498   -7122.0173    617.26352   -7739.2808    4290.6738   -12029.955    108.70295   -636.44157   -816.38612   -79.380207    22.550935    127.96969    16.063156      46.7237      46.7237      46.7237           90           90           90     102002.7   -510.73596 
  986000       985498   -7134.4748    614.54535   -7749.0202    4287.1249   -12036.145    108.22427   -888.36115   -525.89677   -661.47187   -133.82493    30.414673   -53.063087      46.7237      46.7237      46.7237           90           90           90     102002.7   -691.90993 
  987000       986498    -7088.307    642.24052   -7730.5475    4298.4271   -12028.975    113.10151   -467.88548   -487.69905   -283.02885   -126.98364   -396.69588   -3.6351551      46.7237      46.7237      46.7237           90           90           90     102002.7   -412.87113 
  988000       987498   -7079.6278    626.95116    -7706.579    4303.7792   -12010.358    110.40899   -268.11192   -577.52054    -325.5206   -82.052085     11.12117    80.249618      46.7237      46.7237      46.7237           90           90           90     102002.7   -390.38435 
  989000       988498   -7111.9914    618.40244   -7730.3938    4293.5138   -12023.908    108.90352   -541.91595   -687.53027   -858.02296    -193.0015   -73.138021    77.354769      46.7237      46.7237      46.7237           90           90           90     102002.7   -695.82306 
  990000       989498   -7106.9171    611.63273   -7718.5499    4342.8334   -12061.383    107.71134   -641.26715   -1159.9919   -1102.4488   -5.1466733    91.505464    41.664935      46.7237      46.7237      46.7237           90           90           90     102002.7   -967.90262 
  991000       990498   -7106.0534    626.31546   -7732.3688    4324.0029   -12056.372    110.29704   -859.25244    -1079.105   -485.83155     249.5186    214.14529     109.6482      46.7237      46.7237      46.7237           90           90           90     102002.7   -808.06298 
  992000       991498   -7085.7431    624.42259   -7710.1657    4309.0866   -12019.252     109.9637   -305.18848   -749.90092   -453.97395    35.743946   -34.206899     41.55239      46.7237      46.7237      46.7237           90           90           90     102002.7   -503.02111 
  993000       992498   -7099.7702    617.99493   -7717.7651    4299.8117   -12017.577    108.83175   -390.14438   -984.11103   -911.24081   -6.2995834    137.12358    79.013359      46.7237      46.7237      46.7237           90           90           90     102002.7   -761.83207 
  994000       993498    -7081.976    630.57331   -7712.5493    4315.3211    -12027.87    111.04686   -1266.4771   -841.26395   -45.345051    84.410368    94.763744    100.15541      46.7237      46.7237      46.7237           90           90           90     102002.7   -717.69538 
  995000       994498   -7106.9581    627.84748   -7734.8056    4319.3305   -12054.136    110.56683   -785.37874   -956.27939   -918.36389   -91.410473    37.980958    24.898618      46.7237      46.7237      46.7237           90           90           90     102002.7   -886.67401 
  996000       995498   -7134.2102    600.39428   -7734.6045    4300.4824   -12035.087     105.7322   -784.49701   -612.68092   -1314.0261    -157.2238    20.654903   -107.97852      46.7237      46.7237      46.7237           90           90           90     102002.7   -903.73467 
  997000       996498   -7110.3505    623.88119   -7734.2317    4289.4357   -12023.667    109.86835   -1004.5082    -915.4894   -612.16367   -79.741915   -288.23236    141.44937      46.7237      46.7237      46.7237           90           90           90     102002.7   -844.05376 
  998000       997498   -7130.6734    628.21481   -7758.8882    4273.8106   -12032.699    110.63152   -794.50152   -1124.6049   -949.10397     185.3086    58.014476   -22.664787      46.7237      46.7237      46.7237           90           90           90     102002.7   -956.07011 
  999000       998498   -7079.0632    647.27924   -7726.3424    4317.8251   -12044.168    113.98886   -979.82122   -1004.6638   -453.24977   -56.706828    47.788783   -144.82853      46.7237      46.7237      46.7237           90           90           90     102002.7   -812.57825 
 1000000       999498   -7108.5868    614.55566   -7723.1425    4298.1066   -12021.249    108.22608   -1080.1456   -382.14417   -270.17611    151.55614    80.912554    109.20907      46.7237      46.7237      46.7237           90           90           90     102002.7   -577.48863 
 1000502      1000000   -7102.8748    616.40419    -7719.279    4317.9069   -12037.186    108.55162   -915.19085   -555.53162   -1204.0706   -29.849987   -4.8056136    57.815171      46.7237      46.7237      46.7237           90           90           90     102002.7    -891.5977 
Loop time of 727.96 on 24 procs for 500000 steps with 1906 atoms

Performance: 59.344 ns/day, 0.404 hours/ns, 686.851 timesteps/s
99.7% CPU use with 24 MPI tasks x no OpenMP threads

MPI task timing breakdown:
Section |  min time  |  avg time  |  max time  |%varavg| %total
---------------------------------------------------------------
Pair    | 156.59     | 327.87     | 502.86     | 540.8 | 45.04
Bond    | 51.454     | 82.328     | 121.41     | 198.3 | 11.31
Neigh   | 3.0477     | 3.0744     | 3.0965     |   1.0 |  0.42
Comm    | 101.83     | 298.91     | 500.57     | 659.7 | 41.06
Output  | 0.35682    | 0.39748    | 0.3994     |   1.3 |  0.05
Modify  | 11.549     | 12.151     | 12.673     |  10.1 |  1.67
Other   |            | 3.223      |            |       |  0.44

Nlocal:    79.4167 ave 115 max 57 min
Histogram: 1 5 5 4 2 3 2 1 0 1
Nghost:    2151.38 ave 2266 max 2066 min
Histogram: 2 5 9 0 0 0 0 0 2 6
Neighs:    7635.83 ave 11647 max 3247 min
Histogram: 2 1 2 3 4 2 1 5 2 2

Total # of neighbors = 183260
Ave neighs/atom = 96.149
Ave special neighs/atom = 6.04407
Neighbor list builds = 4239
Dangerous builds = 0
Total wall time: 0:22:32
