LAMMPS (30 Mar 2018)
Reading data file ...
  orthogonal box = (0 0 0) to (46.7237 46.7237 46.7237)
  2 by 3 by 4 MPI processor grid
  reading atoms ...
  1871 atoms
  scanning bonds ...
  5 = max bonds/atom
  scanning angles ...
  10 = max angles/atom
  scanning dihedrals ...
  32 = max dihedrals/atom
  scanning impropers ...
  3 = max impropers/atom
  reading bonds ...
  2064 bonds
  reading angles ...
  3696 angles
  reading dihedrals ...
  6240 dihedrals
  reading impropers ...
  1008 impropers
Finding 1-2 1-3 1-4 neighbors ...
  special bond factors lj:   0          0          0         
  special bond factors coul: 0          0          0         
  5 = max # of 1-2 neighbors
  8 = max # of 1-3 neighbors
  20 = max # of 1-4 neighbors
  19 = max # of special neighbors
Finding 1-2 1-3 1-4 neighbors ...
  special bond factors lj:   0          0          1         
  special bond factors coul: 1          1          1         
  5 = max # of 1-2 neighbors
  8 = max # of 1-3 neighbors
  19 = max # of special neighbors
WARNING: Using 'neigh_modify every 1 delay 0 check yes' setting during minimization (../min.cpp:168)
Neighbor list info ...
  update every 1 steps, delay 0 steps, check yes
  max neighbors/atom: 2000, page size: 100000
  master list distance cutoff = 16
  ghost atom cutoff = 16
  binsize = 8, bins = 6 6 6
  3 neighbor lists, perpetual/occasional/extra = 3 0 0
  (1) pair buck6d/coul/gauss/dsf, perpetual, skip from (3)
      attributes: half, newton on
      pair build: skip
      stencil: none
      bin: none
  (2) pair lj/cut, perpetual, skip from (3)
      attributes: half, newton on
      pair build: skip
      stencil: none
      bin: none
  (3) neighbor class addition, perpetual
      attributes: half, newton on
      pair build: half/bin/newton
      stencil: half/bin/3d/newton
      bin: standard
Setting up cg style minimization ...
  Unit style    : real
  Current step  : 0
WARNING: Inconsistent image flags (../domain.cpp:786)
Per MPI rank memory allocation (min/avg/max) = 22.88 | 23.28 | 24.43 Mbytes
Step Temp E_pair E_mol TotEng Press 
       0            0   -11943.379    6482.8914   -5460.4874    6135.9799 
     501            0    -11994.01    3726.8993   -8267.1111   -598.07894 
Loop time of 1.32687 on 24 procs for 501 steps with 1871 atoms

99.7% CPU use with 24 MPI tasks x no OpenMP threads

Minimization stats:
  Stopping criterion = max force evaluations
  Energy initial, next-to-last, final = 
        -5460.48738844      -8267.0796086     -8267.11110508
  Force two-norm initial, final = 2576.29 8.15739
  Force max component initial, final = 152 1.34613
  Final line search alpha, max atom move = 0.00792608 0.0106695
  Iterations, force evaluations = 501 1001

MPI task timing breakdown:
Section |  min time  |  avg time  |  max time  |%varavg| %total
---------------------------------------------------------------
Pair    | 0.42865    | 0.64284    | 0.86375    |  14.2 | 48.45
Bond    | 0.12076    | 0.15727    | 0.22367    |   6.4 | 11.85
Neigh   | 0.0089808  | 0.0097838  | 0.010602   |   0.5 |  0.74
Comm    | 0.21242    | 0.46718    | 0.70844    |  17.9 | 35.21
Output  | 0          | 0          | 0          |   0.0 |  0.00
Modify  | 0          | 0          | 0          |   0.0 |  0.00
Other   |            | 0.0498     |            |       |  3.75

Nlocal:    77.9583 ave 103 max 63 min
Histogram: 3 1 3 6 7 2 0 0 1 1
Nghost:    2099 ave 2263 max 1999 min
Histogram: 12 4 0 0 0 0 0 0 0 8
Neighs:    7633.38 ave 11805 max 4848 min
Histogram: 5 1 6 1 2 3 2 2 1 1

Total # of neighbors = 183201
Ave neighs/atom = 97.9161
Ave special neighs/atom = 6.15714
Neighbor list builds = 14
Dangerous builds = 0
Neighbor list info ...
  update every 1 steps, delay 10 steps, check yes
  max neighbors/atom: 2000, page size: 100000
  master list distance cutoff = 16
  ghost atom cutoff = 16
  binsize = 8, bins = 6 6 6
  3 neighbor lists, perpetual/occasional/extra = 3 0 0
  (1) pair buck6d/coul/gauss/dsf, perpetual, skip from (3)
      attributes: half, newton on
      pair build: skip
      stencil: none
      bin: none
  (2) pair lj/cut, perpetual, skip from (3)
      attributes: half, newton on
      pair build: skip
      stencil: none
      bin: none
  (3) neighbor class addition, perpetual
      attributes: half, newton on
      pair build: half/bin/newton
      stencil: half/bin/3d/newton
      bin: standard
Setting up Verlet run ...
  Unit style    : real
  Current step  : 501
  Time step     : 1
WARNING: Inconsistent image flags (../domain.cpp:786)
Per MPI rank memory allocation (min/avg/max) = 22.52 | 22.71 | 23.3 Mbytes
Step Temp PotEng TotEng Press Volume Lx Ly Lz 
     501          110   -8267.1111   -7653.9585     -323.296     102002.7      46.7237      46.7237      46.7237 
    1000    93.035021   -7703.5607   -7184.9728   -595.77829     102002.7      46.7237      46.7237      46.7237 
    2000    117.42014   -7644.7578   -6990.2445    -683.6682     102002.7      46.7237      46.7237      46.7237 
    3000    107.47237   -7626.5352   -7027.4719   -1090.2411     102002.7      46.7237      46.7237      46.7237 
    4000    108.96811   -7629.0425   -7021.6418    -722.3954     102002.7      46.7237      46.7237      46.7237 
    5000    110.14376   -7623.4057   -7009.4518   -1174.1084     102002.7      46.7237      46.7237      46.7237 
    6000    107.84885   -7622.1763   -7021.0144   -633.13444     102002.7      46.7237      46.7237      46.7237 
    7000    108.53987   -7652.6674   -7047.6537   -849.87506     102002.7      46.7237      46.7237      46.7237 
    8000    113.04189   -7627.2893   -6997.1808   -831.12804     102002.7      46.7237      46.7237      46.7237 
    9000    109.46597   -7626.2535   -7016.0776   -536.39215     102002.7      46.7237      46.7237      46.7237 
   10000    112.61385   -7621.0569   -6993.3344   -818.03245     102002.7      46.7237      46.7237      46.7237 
   11000    112.04222   -7622.1931   -6997.6569   -715.06418     102002.7      46.7237      46.7237      46.7237 
   12000    106.16548     -7602.68   -7010.9014   -800.00985     102002.7      46.7237      46.7237      46.7237 
   13000    109.90298   -7625.0238    -7012.412   -721.55284     102002.7      46.7237      46.7237      46.7237 
   14000     112.9258   -7625.6349   -6996.1735   -769.87572     102002.7      46.7237      46.7237      46.7237 
   15000    109.70647   -7599.8248   -6988.3084   -822.36642     102002.7      46.7237      46.7237      46.7237 
   16000    109.96242   -7643.8769   -7030.9337   -776.51561     102002.7      46.7237      46.7237      46.7237 
   17000    115.31656   -7628.0931   -6985.3054   -959.21445     102002.7      46.7237      46.7237      46.7237 
   18000    109.39611   -7635.6534    -7025.867    -706.7031     102002.7      46.7237      46.7237      46.7237 
   19000    113.59331    -7629.858   -6996.6758   -688.95656     102002.7      46.7237      46.7237      46.7237 
   20000    110.39075   -7629.0678   -7013.7371   -773.66218     102002.7      46.7237      46.7237      46.7237 
   21000    110.39626   -7627.0988   -7011.7374   -560.84604     102002.7      46.7237      46.7237      46.7237 
   22000    107.63102   -7637.2769   -7037.3293   -922.35541     102002.7      46.7237      46.7237      46.7237 
   23000    107.76074    -7626.448   -7025.7772   -546.76786     102002.7      46.7237      46.7237      46.7237 
   24000    108.52989   -7625.0929   -7020.1349   -703.45518     102002.7      46.7237      46.7237      46.7237 
   25000    107.05791   -7614.7493   -7017.9962   -721.70851     102002.7      46.7237      46.7237      46.7237 
   26000    108.14797   -7620.2176   -7017.3884   -610.18154     102002.7      46.7237      46.7237      46.7237 
   27000    110.47489   -7638.5938    -7022.794    -629.6705     102002.7      46.7237      46.7237      46.7237 
   28000    110.78518   -7621.7058   -7004.1765   -796.96974     102002.7      46.7237      46.7237      46.7237 
   29000    110.83469   -7615.0471   -6997.2418   -1020.3491     102002.7      46.7237      46.7237      46.7237 
   30000    111.45903   -7633.8944   -7012.6089    -719.5731     102002.7      46.7237      46.7237      46.7237 
   31000    110.99972   -7638.6964   -7019.9712   -753.56666     102002.7      46.7237      46.7237      46.7237 
   32000     112.7333   -7611.4461   -6983.0578   -888.75959     102002.7      46.7237      46.7237      46.7237 
   33000    113.92434   -7646.7537   -7011.7263   -516.12717     102002.7      46.7237      46.7237      46.7237 
   34000    104.85369   -7641.5345   -7057.0679   -455.07817     102002.7      46.7237      46.7237      46.7237 
   35000    109.77213   -7629.3083   -7017.4258   -432.29374     102002.7      46.7237      46.7237      46.7237 
   36000    110.06159   -7611.6161   -6998.1202   -757.41325     102002.7      46.7237      46.7237      46.7237 
   37000    105.65735   -7611.3842    -7022.438   -679.40592     102002.7      46.7237      46.7237      46.7237 
   38000    108.49059   -7620.5181   -7015.7791   -746.56882     102002.7      46.7237      46.7237      46.7237 
   39000    108.66509   -7613.5002   -7007.7885   -905.65154     102002.7      46.7237      46.7237      46.7237 
   40000    112.47065   -7617.3814   -6990.4571   -951.58417     102002.7      46.7237      46.7237      46.7237 
   41000    108.81714   -7649.3786   -7042.8194   -638.53678     102002.7      46.7237      46.7237      46.7237 
   42000    110.04459    -7623.839   -7010.4378   -1018.9028     102002.7      46.7237      46.7237      46.7237 
   43000    107.54735   -7615.9784   -7016.4971   -645.16016     102002.7      46.7237      46.7237      46.7237 
   44000    108.80308   -7640.8869   -7034.4061   -658.29423     102002.7      46.7237      46.7237      46.7237 
   45000    114.44568    -7614.201   -6976.2676   -795.75341     102002.7      46.7237      46.7237      46.7237 
   46000    108.47749   -7616.2341   -7011.5681   -686.99989     102002.7      46.7237      46.7237      46.7237 
   47000    112.09008    -7645.424    -7020.621   -690.71165     102002.7      46.7237      46.7237      46.7237 
   48000     107.7952    -7634.606   -7033.7432   -841.40525     102002.7      46.7237      46.7237      46.7237 
   49000    109.90573   -7630.4955   -7017.8683   -642.10769     102002.7      46.7237      46.7237      46.7237 
   50000    113.08634   -7615.3224   -6984.9661   -755.15693     102002.7      46.7237      46.7237      46.7237 
   51000    111.01731   -7637.5746   -7018.7514   -824.21917     102002.7      46.7237      46.7237      46.7237 
   52000    110.46944   -7638.9781   -7023.2088   -791.68295     102002.7      46.7237      46.7237      46.7237 
   53000    107.19413    -7630.925   -7033.4127   -643.31388     102002.7      46.7237      46.7237      46.7237 
   54000    107.18419   -7629.3843   -7031.9273   -1035.3433     102002.7      46.7237      46.7237      46.7237 
   55000    112.70753   -7632.2033   -7003.9587   -727.35278     102002.7      46.7237      46.7237      46.7237 
   56000    110.63268   -7626.7783    -7010.099   -638.07083     102002.7      46.7237      46.7237      46.7237 
   57000    110.21334   -7634.6584   -7020.3165   -700.38844     102002.7      46.7237      46.7237      46.7237 
   58000    109.32236   -7650.8346   -7041.4592   -563.76618     102002.7      46.7237      46.7237      46.7237 
   59000    110.11705   -7623.0271    -7009.222   -864.27539     102002.7      46.7237      46.7237      46.7237 
   60000    106.54659   -7640.7519    -7046.849   -509.68579     102002.7      46.7237      46.7237      46.7237 
   61000    109.87985   -7619.6258   -7007.1429    -905.9143     102002.7      46.7237      46.7237      46.7237 
   62000    107.25621   -7633.6419   -7035.7834   -936.36552     102002.7      46.7237      46.7237      46.7237 
   63000    113.59377   -7635.8226   -7002.6379   -580.96731     102002.7      46.7237      46.7237      46.7237 
   64000    109.54087   -7633.7921   -7023.1987   -650.11976     102002.7      46.7237      46.7237      46.7237 
   65000    109.92533   -7622.2018   -7009.4654   -434.77129     102002.7      46.7237      46.7237      46.7237 
   66000    111.52521   -7630.5256   -7008.8713   -659.77567     102002.7      46.7237      46.7237      46.7237 
   67000    110.69568   -7632.2622   -7015.2318   -669.57292     102002.7      46.7237      46.7237      46.7237 
   68000    108.97587   -7630.1461   -7022.7021   -376.57007     102002.7      46.7237      46.7237      46.7237 
   69000    110.38452   -7639.5979    -7024.302   -701.09636     102002.7      46.7237      46.7237      46.7237 
   70000    109.05513   -7651.2953   -7043.4094    -815.5895     102002.7      46.7237      46.7237      46.7237 
   71000    110.91916   -7640.3876   -7022.1115   -889.36779     102002.7      46.7237      46.7237      46.7237 
   72000    114.13677   -7624.7011   -6988.4897   -634.53976     102002.7      46.7237      46.7237      46.7237 
   73000    111.46968   -7622.4266   -7001.0818   -673.28988     102002.7      46.7237      46.7237      46.7237 
   74000    107.16148   -7635.5429   -7038.2125   -548.95314     102002.7      46.7237      46.7237      46.7237 
   75000    112.42993   -7631.3075   -7004.6102   -853.01322     102002.7      46.7237      46.7237      46.7237 
   76000    113.13661   -7609.3291   -6978.6927   -607.90422     102002.7      46.7237      46.7237      46.7237 
   77000    109.62866   -7636.8472   -7025.7644   -747.13718     102002.7      46.7237      46.7237      46.7237 
   78000    111.99622   -7604.3665   -6980.0867   -818.31332     102002.7      46.7237      46.7237      46.7237 
   79000    111.41513    -7624.528   -7003.4873   -506.22658     102002.7      46.7237      46.7237      46.7237 
   80000    108.11097   -7631.7733   -7029.1504   -713.03093     102002.7      46.7237      46.7237      46.7237 
   81000    107.83677   -7622.3896   -7021.2951   -783.88664     102002.7      46.7237      46.7237      46.7237 
   82000    111.72083   -7625.5848   -7002.8401   -819.29658     102002.7      46.7237      46.7237      46.7237 
   83000     107.6799   -7634.4521    -7034.232   -552.93751     102002.7      46.7237      46.7237      46.7237 
   84000    110.32008   -7628.3905   -7013.4537   -660.95367     102002.7      46.7237      46.7237      46.7237 
   85000    110.49211   -7623.9798    -7008.084   -602.75491     102002.7      46.7237      46.7237      46.7237 
   86000    109.60988   -7628.4133   -7017.4352   -554.40808     102002.7      46.7237      46.7237      46.7237 
   87000       108.95   -7648.2971   -7040.9973   -504.64987     102002.7      46.7237      46.7237      46.7237 
   88000    108.36029   -7617.3728   -7013.3601   -657.02106     102002.7      46.7237      46.7237      46.7237 
   89000    111.38045   -7644.3109   -7023.4635   -832.62766     102002.7      46.7237      46.7237      46.7237 
   90000     111.0976   -7643.8372   -7024.5664   -968.03182     102002.7      46.7237      46.7237      46.7237 
   91000    112.50667   -7618.7343   -6991.6092   -710.97475     102002.7      46.7237      46.7237      46.7237 
   92000    104.57061   -7617.2601   -7034.3715   -1036.0244     102002.7      46.7237      46.7237      46.7237 
   93000    107.81502   -7623.1772   -7022.2039   -950.22946     102002.7      46.7237      46.7237      46.7237 
   94000    109.39653   -7641.1346   -7031.3458    -851.2653     102002.7      46.7237      46.7237      46.7237 
   95000    109.38107   -7639.2549   -7029.5523   -731.79973     102002.7      46.7237      46.7237      46.7237 
   96000    110.58789   -7618.6124   -7002.1828   -901.43238     102002.7      46.7237      46.7237      46.7237 
   97000     108.6422   -7639.5078   -7033.9237   -817.91063     102002.7      46.7237      46.7237      46.7237 
   98000    110.44622   -7618.3003   -7002.6604   -575.99339     102002.7      46.7237      46.7237      46.7237 
   99000     109.2894   -7633.4108   -7024.2192   -531.17726     102002.7      46.7237      46.7237      46.7237 
  100000    111.26241   -7643.3772   -7023.1878   -769.03217     102002.7      46.7237      46.7237      46.7237 
  101000    109.99789   -7622.6467   -7009.5058   -712.45184     102002.7      46.7237      46.7237      46.7237 
  102000    115.50002   -7620.5094    -6976.699   -958.10071     102002.7      46.7237      46.7237      46.7237 
  103000    110.32268   -7630.1144   -7015.1631    -773.0771     102002.7      46.7237      46.7237      46.7237 
  104000    110.16238   -7637.7798    -7023.722   -829.72455     102002.7      46.7237      46.7237      46.7237 
  105000    107.16513    -7610.611   -7013.2602   -802.02826     102002.7      46.7237      46.7237      46.7237 
  106000    111.92775   -7628.0748   -7004.1767   -842.96126     102002.7      46.7237      46.7237      46.7237 
  107000    112.58895   -7648.1328   -7020.5491   -883.25079     102002.7      46.7237      46.7237      46.7237 
  108000    106.94517   -7640.5847   -7044.4601    -1131.501     102002.7      46.7237      46.7237      46.7237 
  109000    110.53705   -7628.0132    -7011.867   -686.56063     102002.7      46.7237      46.7237      46.7237 
  110000    106.64854   -7637.7388   -7043.2676   -878.31177     102002.7      46.7237      46.7237      46.7237 
  111000    108.26105   -7629.0412   -7025.5817   -817.34665     102002.7      46.7237      46.7237      46.7237 
  112000    110.49527   -7631.7363    -7015.823   -819.34872     102002.7      46.7237      46.7237      46.7237 
  113000    108.26073   -7605.5419   -7002.0841   -680.57042     102002.7      46.7237      46.7237      46.7237 
  114000    108.10488   -7626.9594   -7024.3704    -807.7326     102002.7      46.7237      46.7237      46.7237 
  115000    109.38463    -7618.675   -7008.9525   -611.87921     102002.7      46.7237      46.7237      46.7237 
  116000    107.54074   -7637.2723   -7037.8278   -657.09633     102002.7      46.7237      46.7237      46.7237 
  117000    111.12128   -7619.0441   -6999.6413   -650.25557     102002.7      46.7237      46.7237      46.7237 
  118000    116.65223   -7629.7619    -6979.529   -397.83876     102002.7      46.7237      46.7237      46.7237 
  119000    112.45378   -7627.4863    -7000.656     -658.909     102002.7      46.7237      46.7237      46.7237 
  120000    112.46881   -7603.3961   -6976.4821   -920.98381     102002.7      46.7237      46.7237      46.7237 
  121000    108.96996   -7619.1739   -7011.7628   -867.77096     102002.7      46.7237      46.7237      46.7237 
  122000    107.63746   -7639.1955   -7039.2119    -792.4853     102002.7      46.7237      46.7237      46.7237 
  123000    113.06134   -7628.9956   -6998.7787   -909.66186     102002.7      46.7237      46.7237      46.7237 
  124000    107.43947   -7624.9761   -7026.0962   -668.21534     102002.7      46.7237      46.7237      46.7237 
  125000    111.30448    -7627.546   -7007.1221   -719.94165     102002.7      46.7237      46.7237      46.7237 
  126000    110.38236   -7633.9611   -7018.6771   -452.31273     102002.7      46.7237      46.7237      46.7237 
  127000    109.90599   -7623.9577   -7011.3291   -733.25068     102002.7      46.7237      46.7237      46.7237 
  128000    107.12926   -7628.2938   -7031.1431   -563.95675     102002.7      46.7237      46.7237      46.7237 
  129000    112.37364   -7648.5722   -7022.1886    -516.3187     102002.7      46.7237      46.7237      46.7237 
  130000    110.14397   -7617.5543   -7003.5991   -828.43081     102002.7      46.7237      46.7237      46.7237 
  131000    109.83067   -7618.7718    -7006.563   -645.24833     102002.7      46.7237      46.7237      46.7237 
  132000    108.67547      -7633.7   -7027.9304   -635.07168     102002.7      46.7237      46.7237      46.7237 
  133000    111.41118   -7611.7873   -6990.7685   -948.34936     102002.7      46.7237      46.7237      46.7237 
  134000    114.35719    -7629.111   -6991.6709   -913.12465     102002.7      46.7237      46.7237      46.7237 
  135000     109.3636   -7638.1459   -7028.5406   -829.97053     102002.7      46.7237      46.7237      46.7237 
  136000    110.49219   -7626.8992   -7011.0031   -861.99188     102002.7      46.7237      46.7237      46.7237 
  137000     106.4588   -7648.2117   -7054.7981   -1205.0702     102002.7      46.7237      46.7237      46.7237 
  138000    112.33164   -7639.4682   -7013.3188   -825.77531     102002.7      46.7237      46.7237      46.7237 
  139000    108.67906   -7639.0687   -7033.2792   -927.46046     102002.7      46.7237      46.7237      46.7237 
  140000    111.11673   -7632.5126   -7013.1352   -731.43298     102002.7      46.7237      46.7237      46.7237 
  141000     109.7944   -7638.4397   -7026.4331   -1032.7495     102002.7      46.7237      46.7237      46.7237 
  142000    109.22104   -7636.6916    -7027.881   -614.12914     102002.7      46.7237      46.7237      46.7237 
  143000    108.36797   -7604.9045    -7000.849   -573.47032     102002.7      46.7237      46.7237      46.7237 
  144000     108.6746    -7626.378   -7020.6133   -783.69042     102002.7      46.7237      46.7237      46.7237 
  145000    110.73198   -7629.8216   -7012.5888   -882.18874     102002.7      46.7237      46.7237      46.7237 
  146000    110.72778   -7603.6773    -6986.468   -700.26135     102002.7      46.7237      46.7237      46.7237 
  147000     109.1871   -7620.4749   -7011.8535   -573.11189     102002.7      46.7237      46.7237      46.7237 
  148000     110.5411    -7624.146   -7007.9773   -629.71672     102002.7      46.7237      46.7237      46.7237 
  149000    110.43597   -7637.0591   -7021.4764   -467.04368     102002.7      46.7237      46.7237      46.7237 
  150000     110.7296   -7618.2758   -7001.0563   -887.31257     102002.7      46.7237      46.7237      46.7237 
  151000    108.24589    -7631.378    -7028.003   -599.25704     102002.7      46.7237      46.7237      46.7237 
  152000    106.77797   -7633.6899   -7038.4973   -1041.2658     102002.7      46.7237      46.7237      46.7237 
  153000    106.13031   -7631.9336   -7040.3511   -487.71899     102002.7      46.7237      46.7237      46.7237 
  154000    111.32995   -7611.4288   -6990.8629   -643.81212     102002.7      46.7237      46.7237      46.7237 
  155000    109.11767   -7620.1586   -7011.9242   -731.84133     102002.7      46.7237      46.7237      46.7237 
  156000    105.63216   -7622.0654   -7033.2597    -640.8925     102002.7      46.7237      46.7237      46.7237 
  157000    107.39719   -7625.5879   -7026.9436   -595.81763     102002.7      46.7237      46.7237      46.7237 
  158000    112.76034   -7603.3235   -6974.7845    -478.5047     102002.7      46.7237      46.7237      46.7237 
  159000    108.52549   -7626.5988   -7021.6652   -590.84217     102002.7      46.7237      46.7237      46.7237 
  160000    108.13913   -7649.2621   -7046.4822   -927.58563     102002.7      46.7237      46.7237      46.7237 
  161000    110.90973   -7619.7696    -7001.546   -861.80601     102002.7      46.7237      46.7237      46.7237 
  162000    107.49891   -7632.0851   -7032.8738   -596.53017     102002.7      46.7237      46.7237      46.7237 
  163000    107.91682   -7624.4608   -7022.9201   -749.83541     102002.7      46.7237      46.7237      46.7237 
  164000    111.91902   -7619.6032   -6995.7537    -487.3618     102002.7      46.7237      46.7237      46.7237 
  165000    108.61004    -7625.294   -7019.8892   -1092.7421     102002.7      46.7237      46.7237      46.7237 
  166000    110.44543   -7647.4975    -7031.862   -637.44579     102002.7      46.7237      46.7237      46.7237 
  167000    111.43663   -7630.7673   -7009.6067   -700.22968     102002.7      46.7237      46.7237      46.7237 
  168000    110.33921   -7618.0972   -7003.0538   -863.33522     102002.7      46.7237      46.7237      46.7237 
  169000     109.3118   -7624.8691   -7015.5526    -773.9309     102002.7      46.7237      46.7237      46.7237 
  170000    110.09936   -7619.1085   -7005.4021   -561.71678     102002.7      46.7237      46.7237      46.7237 
  171000    108.54793   -7596.8919   -6991.8333   -547.61462     102002.7      46.7237      46.7237      46.7237 
  172000    112.14597   -7641.9839   -7016.8694   -491.69615     102002.7      46.7237      46.7237      46.7237 
  173000    108.25986   -7624.5892   -7021.1363   -599.50712     102002.7      46.7237      46.7237      46.7237 
  174000    109.66997   -7628.7107   -7017.3977   -671.24585     102002.7      46.7237      46.7237      46.7237 
  175000    112.34565   -7622.4535   -6996.2259    -686.0657     102002.7      46.7237      46.7237      46.7237 
  176000    107.58795   -7623.6632   -7023.9556   -902.42037     102002.7      46.7237      46.7237      46.7237 
  177000    111.61977   -7602.1065   -6979.9252   -665.69139     102002.7      46.7237      46.7237      46.7237 
  178000    108.19669   -7627.8837   -7024.7829   -724.00329     102002.7      46.7237      46.7237      46.7237 
  179000    110.64149   -7612.7938   -6996.0655   -491.27134     102002.7      46.7237      46.7237      46.7237 
  180000    106.17199   -7632.1845   -7040.3697   -835.87951     102002.7      46.7237      46.7237      46.7237 
  181000     110.5273   -7614.1048   -6998.0129   -941.58004     102002.7      46.7237      46.7237      46.7237 
  182000    107.62887     -7621.14   -7021.2044   -628.86886     102002.7      46.7237      46.7237      46.7237 
  183000    110.43366   -7620.5403   -7004.9704    -779.9328     102002.7      46.7237      46.7237      46.7237 
  184000    109.21558   -7618.1158   -7009.3356   -862.51644     102002.7      46.7237      46.7237      46.7237 
  185000    112.79059    -7606.662   -6977.9543   -646.24884     102002.7      46.7237      46.7237      46.7237 
  186000    110.38969   -7625.3375   -7010.0127   -848.30948     102002.7      46.7237      46.7237      46.7237 
  187000    107.97125   -7637.6957   -7035.8515   -508.62636     102002.7      46.7237      46.7237      46.7237 
  188000    113.06117   -7628.8453   -6998.6294   -774.17508     102002.7      46.7237      46.7237      46.7237 
  189000    109.69698   -7611.4226   -6999.9591   -781.96753     102002.7      46.7237      46.7237      46.7237 
  190000    108.36795   -7625.1666   -7021.1112    -567.3982     102002.7      46.7237      46.7237      46.7237 
  191000    108.33879   -7637.2705   -7033.3777   -810.36341     102002.7      46.7237      46.7237      46.7237 
  192000    114.05651   -7626.7381    -6990.974   -752.89721     102002.7      46.7237      46.7237      46.7237 
  193000    115.10113    -7630.096   -6988.5091   -764.07068     102002.7      46.7237      46.7237      46.7237 
  194000    108.93781   -7621.4518     -7014.22   -525.39064     102002.7      46.7237      46.7237      46.7237 
  195000    112.74707   -7622.3793   -6993.9142    -439.5375     102002.7      46.7237      46.7237      46.7237 
  196000    103.00514   -7610.7465    -7036.584   -822.82255     102002.7      46.7237      46.7237      46.7237 
  197000    108.09126   -7604.1661    -7001.653   -553.95629     102002.7      46.7237      46.7237      46.7237 
  198000     113.7084   -7620.5422   -6986.7185   -424.12294     102002.7      46.7237      46.7237      46.7237 
  199000    108.72182   -7627.6284   -7021.6004   -637.72063     102002.7      46.7237      46.7237      46.7237 
  200000    109.20878   -7627.2139   -7018.4717   -446.50438     102002.7      46.7237      46.7237      46.7237 
  201000    109.13832   -7593.2064   -6984.8569   -776.10449     102002.7      46.7237      46.7237      46.7237 
  202000    108.21382   -7607.4892   -7004.2929   -634.49894     102002.7      46.7237      46.7237      46.7237 
  203000    109.66274   -7619.3701   -7008.0974   -736.24424     102002.7      46.7237      46.7237      46.7237 
  204000    114.76521   -7650.8686   -7011.1542   -864.57008     102002.7      46.7237      46.7237      46.7237 
  205000    112.20506   -7615.8451   -6990.4012   -929.64265     102002.7      46.7237      46.7237      46.7237 
  206000    109.88965   -7626.0585    -7013.521   -952.65397     102002.7      46.7237      46.7237      46.7237 
  207000      110.859   -7612.1326   -6994.1918   -711.08018     102002.7      46.7237      46.7237      46.7237 
  208000    113.64933   -7634.9544     -7001.46   -1062.6169     102002.7      46.7237      46.7237      46.7237 
  209000    112.60651   -7635.6998   -7008.0182   -875.77904     102002.7      46.7237      46.7237      46.7237 
  210000    110.89123   -7607.8376   -6989.7172   -782.73791     102002.7      46.7237      46.7237      46.7237 
  211000    107.15585   -7638.6078   -7041.3089   -1026.5404     102002.7      46.7237      46.7237      46.7237 
  212000    109.92624   -7623.6029   -7010.8614   -758.04482     102002.7      46.7237      46.7237      46.7237 
  213000    113.67231   -7628.6237   -6995.0012   -1187.4751     102002.7      46.7237      46.7237      46.7237 
  214000     109.7364   -7622.6193    -7010.936   -772.98915     102002.7      46.7237      46.7237      46.7237 
  215000    111.65313   -7618.1391   -6995.7718   -429.94938     102002.7      46.7237      46.7237      46.7237 
  216000    113.40297   -7623.3216   -6991.2004   -781.79329     102002.7      46.7237      46.7237      46.7237 
  217000    114.70335   -7637.4527    -6998.083   -554.33018     102002.7      46.7237      46.7237      46.7237 
  218000    115.68619   -7633.5417   -6988.6936   -705.34216     102002.7      46.7237      46.7237      46.7237 
  219000     110.1921   -7640.8713   -7026.6479   -756.38915     102002.7      46.7237      46.7237      46.7237 
  220000    108.58289   -7621.3391   -7016.0856   -498.48451     102002.7      46.7237      46.7237      46.7237 
  221000    113.23714   -7620.1344   -6988.9375   -849.87954     102002.7      46.7237      46.7237      46.7237 
  222000    111.84906   -7638.2342   -7014.7747   -922.04632     102002.7      46.7237      46.7237      46.7237 
  223000    112.31602   -7610.8802   -6984.8179   -482.40637     102002.7      46.7237      46.7237      46.7237 
  224000    111.05045   -7630.6866   -7011.6787   -903.35839     102002.7      46.7237      46.7237      46.7237 
  225000    106.27106   -7638.6543   -7046.2872   -681.86223     102002.7      46.7237      46.7237      46.7237 
  226000    108.76224   -7640.3358   -7034.0826   -784.01107     102002.7      46.7237      46.7237      46.7237 
  227000    111.41037   -7621.0833   -7000.0692   -819.39962     102002.7      46.7237      46.7237      46.7237 
  228000    109.20228   -7629.6759   -7020.9698    -796.5432     102002.7      46.7237      46.7237      46.7237 
  229000     112.8898   -7614.7888   -6985.5281    -567.7803     102002.7      46.7237      46.7237      46.7237 
  230000      111.186   -7620.0303   -7000.2668   -751.95975     102002.7      46.7237      46.7237      46.7237 
  231000    108.62455   -7606.4372   -7000.9515   -803.24066     102002.7      46.7237      46.7237      46.7237 
  232000     110.2447   -7627.7734   -7013.2568   -970.84988     102002.7      46.7237      46.7237      46.7237 
  233000    109.09142   -7622.2294   -7014.1413   -706.28429     102002.7      46.7237      46.7237      46.7237 
  234000    111.38036   -7622.0029    -7001.156    -848.4493     102002.7      46.7237      46.7237      46.7237 
  235000    109.87872   -7614.4307   -7001.9542   -924.61019     102002.7      46.7237      46.7237      46.7237 
  236000    115.78027   -7623.3573   -6977.9847   -416.96226     102002.7      46.7237      46.7237      46.7237 
  237000    110.01932   -7639.0621   -7025.8018   -816.14687     102002.7      46.7237      46.7237      46.7237 
  238000    109.48482   -7641.5181   -7031.2372   -687.53948     102002.7      46.7237      46.7237      46.7237 
  239000    110.12291     -7625.13   -7011.2923   -1075.9325     102002.7      46.7237      46.7237      46.7237 
  240000    109.26691   -7617.4845   -7008.4182   -542.61134     102002.7      46.7237      46.7237      46.7237 
  241000    106.37035   -7641.5244   -7048.6039    -839.1719     102002.7      46.7237      46.7237      46.7237 
  242000    109.76323   -7630.5707   -7018.7379   -659.69912     102002.7      46.7237      46.7237      46.7237 
  243000    110.69545   -7632.1234   -7015.0942    -583.6349     102002.7      46.7237      46.7237      46.7237 
  244000    110.45697   -7638.6636   -7022.9638   -923.90712     102002.7      46.7237      46.7237      46.7237 
  245000    107.78172   -7621.9241   -7021.1364   -721.87146     102002.7      46.7237      46.7237      46.7237 
  246000    109.02182   -7614.7766   -7007.0764   -906.77684     102002.7      46.7237      46.7237      46.7237 
  247000    105.98288    -7616.821   -7026.0603   -732.20367     102002.7      46.7237      46.7237      46.7237 
  248000    110.33854   -7628.5296   -7013.4899     -595.509     102002.7      46.7237      46.7237      46.7237 
  249000    105.33475   -7607.1582   -7020.0102    -1103.134     102002.7      46.7237      46.7237      46.7237 
  250000      112.769   -7598.7725   -6970.1851   -792.82141     102002.7      46.7237      46.7237      46.7237 
  251000    109.66931   -7625.3054    -7013.996   -797.06266     102002.7      46.7237      46.7237      46.7237 
  252000    107.89018   -7646.8961   -7045.5038   -930.58549     102002.7      46.7237      46.7237      46.7237 
  253000     110.0804   -7622.9418   -7009.3411   -1165.1978     102002.7      46.7237      46.7237      46.7237 
  254000    109.32633   -7626.0704   -7016.6729   -1017.3512     102002.7      46.7237      46.7237      46.7237 
  255000    111.57574   -7621.0534   -6999.1174   -821.03181     102002.7      46.7237      46.7237      46.7237 
  256000     105.2037   -7620.3698   -7033.9523   -1246.0807     102002.7      46.7237      46.7237      46.7237 
  257000    107.50282   -7629.4071   -7030.1741   -939.75181     102002.7      46.7237      46.7237      46.7237 
  258000    109.29625   -7614.8411   -7005.6113   -745.60441     102002.7      46.7237      46.7237      46.7237 
  259000    107.67285   -7626.3297   -7026.1489   -941.53356     102002.7      46.7237      46.7237      46.7237 
  260000    113.07153   -7634.6583   -7004.3846   -627.45594     102002.7      46.7237      46.7237      46.7237 
  261000    107.97362   -7623.5739   -7021.7165   -831.14403     102002.7      46.7237      46.7237      46.7237 
  262000    105.86327   -7634.1488   -7044.0547   -621.23434     102002.7      46.7237      46.7237      46.7237 
  263000    111.49857   -7630.8237   -7009.3179   -736.22291     102002.7      46.7237      46.7237      46.7237 
  264000    111.02236   -7648.1072   -7029.2558   -593.95755     102002.7      46.7237      46.7237      46.7237 
  265000    112.43023   -7628.9577   -7002.2587   -673.67772     102002.7      46.7237      46.7237      46.7237 
  266000    110.48062   -7628.0872   -7012.2556   -496.45164     102002.7      46.7237      46.7237      46.7237 
  267000    108.95619   -7630.3109   -7022.9766   -890.43508     102002.7      46.7237      46.7237      46.7237 
  268000    109.27825   -7620.3424   -7011.2129   -662.78496     102002.7      46.7237      46.7237      46.7237 
  269000    107.01627   -7618.9505   -7022.4295   -701.14823     102002.7      46.7237      46.7237      46.7237 
  270000    109.56837   -7615.3825   -7004.6358     -588.735     102002.7      46.7237      46.7237      46.7237 
  271000    105.98502   -7622.1381   -7031.3654   -464.90825     102002.7      46.7237      46.7237      46.7237 
  272000    107.69355   -7620.5718   -7020.2756   -618.16796     102002.7      46.7237      46.7237      46.7237 
  273000    109.11514   -7599.2461   -6991.0258   -586.94284     102002.7      46.7237      46.7237      46.7237 
  274000    110.49578   -7602.9636   -6987.0475   -662.10362     102002.7      46.7237      46.7237      46.7237 
  275000     114.0407   -7660.4242   -7024.7482   -558.86849     102002.7      46.7237      46.7237      46.7237 
  276000    107.61857   -7629.1377   -7029.2594   -838.03668     102002.7      46.7237      46.7237      46.7237 
  277000    114.33555   -7630.3813   -6993.0619   -852.55646     102002.7      46.7237      46.7237      46.7237 
  278000    111.86668   -7638.0509   -7014.4932   -646.84818     102002.7      46.7237      46.7237      46.7237 
  279000    108.53674   -7629.8284   -7024.8322   -646.38313     102002.7      46.7237      46.7237      46.7237 
  280000    111.12515   -7628.0197   -7008.5953   -520.49869     102002.7      46.7237      46.7237      46.7237 
  281000     109.3485   -7617.0806   -7007.5595    -669.6636     102002.7      46.7237      46.7237      46.7237 
  282000    110.11886   -7618.5195   -7004.7043   -756.05337     102002.7      46.7237      46.7237      46.7237 
  283000     110.2382   -7633.6533   -7019.1729   -588.54675     102002.7      46.7237      46.7237      46.7237 
  284000    108.60843   -7643.1009   -7037.7051   -576.24657     102002.7      46.7237      46.7237      46.7237 
  285000    110.50022   -7631.2243   -7015.2835   -745.14207     102002.7      46.7237      46.7237      46.7237 
  286000     111.6082   -7627.1977   -7005.0808   -604.85085     102002.7      46.7237      46.7237      46.7237 
  287000    113.15247   -7622.5796   -6991.8547    -652.8403     102002.7      46.7237      46.7237      46.7237 
  288000    107.02907   -7627.0455   -7030.4532    -676.4104     102002.7      46.7237      46.7237      46.7237 
  289000    109.07916   -7622.5374   -7014.5176   -815.54218     102002.7      46.7237      46.7237      46.7237 
  290000    110.17292    -7630.812   -7016.6955    -748.2758     102002.7      46.7237      46.7237      46.7237 
  291000    109.41316   -7614.3356    -7004.454   -978.66204     102002.7      46.7237      46.7237      46.7237 
  292000    108.18953   -7615.5858   -7012.5249   -732.50934     102002.7      46.7237      46.7237      46.7237 
  293000    110.42868   -7640.3075   -7024.7653   -979.11386     102002.7      46.7237      46.7237      46.7237 
  294000    112.78496   -7626.3003    -6997.624   -693.28748     102002.7      46.7237      46.7237      46.7237 
  295000    108.25937   -7612.4988   -7009.0487   -903.52344     102002.7      46.7237      46.7237      46.7237 
  296000    111.02894   -7638.3965   -7019.5084   -1010.7492     102002.7      46.7237      46.7237      46.7237 
  297000    110.42067   -7621.6398   -7006.1422   -829.70788     102002.7      46.7237      46.7237      46.7237 
  298000    110.05047   -7646.7311   -7033.2971   -714.46463     102002.7      46.7237      46.7237      46.7237 
  299000    109.28162   -7627.3893   -7018.2411   -712.98199     102002.7      46.7237      46.7237      46.7237 
  300000    109.95982    -7617.089   -7004.1604   -822.80604     102002.7      46.7237      46.7237      46.7237 
  301000    111.25611   -7614.8386   -6994.6843   -592.67181     102002.7      46.7237      46.7237      46.7237 
  302000    110.99165   -7639.4203   -7020.7401   -638.53386     102002.7      46.7237      46.7237      46.7237 
  303000    110.21958   -7612.6266   -6998.2501   -733.38186     102002.7      46.7237      46.7237      46.7237 
  304000    106.76518   -7628.6804    -7033.559   -344.59356     102002.7      46.7237      46.7237      46.7237 
  305000    110.71543   -7626.9429   -7009.8024   -839.59793     102002.7      46.7237      46.7237      46.7237 
  306000    109.54499   -7640.6499   -7030.0335   -595.73853     102002.7      46.7237      46.7237      46.7237 
  307000    106.32499   -7631.4875   -7038.8198   -869.34015     102002.7      46.7237      46.7237      46.7237 
  308000     108.9875    -7642.618   -7035.1092   -886.17608     102002.7      46.7237      46.7237      46.7237 
  309000    111.15434   -7623.2468   -7003.6597   -632.68759     102002.7      46.7237      46.7237      46.7237 
  310000    116.73647   -7624.4698   -6973.7673   -786.75896     102002.7      46.7237      46.7237      46.7237 
  311000    110.20546   -7642.3595   -7028.0616   -665.03291     102002.7      46.7237      46.7237      46.7237 
  312000    110.24863   -7618.0902   -7003.5517   -692.61078     102002.7      46.7237      46.7237      46.7237 
  313000     107.0175   -7626.8836   -7030.3558   -800.01018     102002.7      46.7237      46.7237      46.7237 
  314000    113.22226   -7643.6276   -7012.5137   -997.49359     102002.7      46.7237      46.7237      46.7237 
  315000    112.63628   -7634.9297   -7007.0822   -655.55775     102002.7      46.7237      46.7237      46.7237 
  316000    106.34283   -7617.8225   -7025.0554   -834.33407     102002.7      46.7237      46.7237      46.7237 
  317000    112.02757   -7625.3694   -7000.9149   -637.21651     102002.7      46.7237      46.7237      46.7237 
  318000    105.06447   -7640.2367   -7054.5953    -545.0296     102002.7      46.7237      46.7237      46.7237 
  319000    109.80151   -7622.8336   -7010.7874   -822.73559     102002.7      46.7237      46.7237      46.7237 
  320000    110.13165   -7616.4021   -7002.5156   -444.46391     102002.7      46.7237      46.7237      46.7237 
  321000    114.46685   -7644.2976   -7006.2462    -544.6001     102002.7      46.7237      46.7237      46.7237 
  322000    109.09779   -7621.1559   -7013.0323   -738.34037     102002.7      46.7237      46.7237      46.7237 
  323000    109.31495   -7642.1406   -7032.8066   -498.13423     102002.7      46.7237      46.7237      46.7237 
  324000    113.85135   -7629.1821   -6994.5616   -762.87101     102002.7      46.7237      46.7237      46.7237 
  325000    109.89434   -7638.0634   -7025.4998   -1026.9275     102002.7      46.7237      46.7237      46.7237 
  326000    110.25955   -7630.1264   -7015.5271   -760.51777     102002.7      46.7237      46.7237      46.7237 
  327000    112.24188   -7634.0324   -7008.3833   -582.34255     102002.7      46.7237      46.7237      46.7237 
  328000    110.23488   -7651.1638   -7036.7019   -684.68266     102002.7      46.7237      46.7237      46.7237 
  329000    110.56515   -7619.3893   -7003.0865   -779.39427     102002.7      46.7237      46.7237      46.7237 
  330000    110.41455   -7639.5462   -7024.0828   -978.76911     102002.7      46.7237      46.7237      46.7237 
  331000      107.558   -7629.2918   -7029.7511   -686.02644     102002.7      46.7237      46.7237      46.7237 
  332000    107.43037    -7629.888   -7031.0588   -605.73764     102002.7      46.7237      46.7237      46.7237 
  333000    107.15673   -7632.3149    -7035.011   -871.52829     102002.7      46.7237      46.7237      46.7237 
  334000      106.079   -7608.0759   -7016.7794   -905.91651     102002.7      46.7237      46.7237      46.7237 
  335000    110.11094    -7622.315    -7008.544   -682.22992     102002.7      46.7237      46.7237      46.7237 
  336000    104.13557   -7629.6242   -7049.1606   -923.61143     102002.7      46.7237      46.7237      46.7237 
  337000    108.86073   -7635.6208   -7028.8186   -726.79462     102002.7      46.7237      46.7237      46.7237 
  338000    109.79012   -7610.8993   -6998.9165   -971.22093     102002.7      46.7237      46.7237      46.7237 
  339000    110.41803   -7630.6299   -7015.1471   -769.03212     102002.7      46.7237      46.7237      46.7237 
  340000    107.77835   -7631.6002   -7030.8313   -871.38986     102002.7      46.7237      46.7237      46.7237 
  341000     109.4937   -7609.0809   -6998.7504   -808.57672     102002.7      46.7237      46.7237      46.7237 
  342000    111.82845   -7629.8329   -7006.4883   -872.28772     102002.7      46.7237      46.7237      46.7237 
  343000    110.06097   -7630.4662   -7016.9738   -749.29306     102002.7      46.7237      46.7237      46.7237 
  344000    110.58103   -7615.0333   -6998.6419   -990.35482     102002.7      46.7237      46.7237      46.7237 
  345000    111.11748   -7615.2137   -6995.8321   -771.11119     102002.7      46.7237      46.7237      46.7237 
  346000    109.43732   -7636.8516   -7026.8354   -969.80146     102002.7      46.7237      46.7237      46.7237 
  347000    108.26183   -7607.4165   -7003.9526   -932.87252     102002.7      46.7237      46.7237      46.7237 
  348000     110.1111   -7630.0997   -7016.3278   -791.41115     102002.7      46.7237      46.7237      46.7237 
  349000    111.67448   -7624.5038   -7002.0174   -1031.7845     102002.7      46.7237      46.7237      46.7237 
  350000    107.93385   -7627.4306   -7025.7949   -860.40726     102002.7      46.7237      46.7237      46.7237 
  351000    110.43017   -7621.8611   -7006.3106   -741.45411     102002.7      46.7237      46.7237      46.7237 
  352000    110.27681   -7639.0389   -7024.3432   -600.08282     102002.7      46.7237      46.7237      46.7237 
  353000    111.56288   -7641.6392   -7019.7748   -670.03105     102002.7      46.7237      46.7237      46.7237 
  354000    108.44418   -7625.1881   -7020.7079   -595.54557     102002.7      46.7237      46.7237      46.7237 
  355000     111.3518    -7633.765   -7013.0773   -552.36386     102002.7      46.7237      46.7237      46.7237 
  356000     109.9531    -7641.622   -7028.7309    -828.2733     102002.7      46.7237      46.7237      46.7237 
  357000    110.62033   -7628.8786   -7012.2682   -477.39909     102002.7      46.7237      46.7237      46.7237 
  358000    113.43876   -7621.3279   -6989.0072   -649.57479     102002.7      46.7237      46.7237      46.7237 
  359000    109.33719   -7624.3613   -7014.9032   -602.97566     102002.7      46.7237      46.7237      46.7237 
  360000    107.18169   -7644.7656   -7047.3226   -715.84959     102002.7      46.7237      46.7237      46.7237 
  361000    110.31795   -7630.2404   -7015.3155   -767.32941     102002.7      46.7237      46.7237      46.7237 
  362000    110.80698   -7624.9266   -7007.2758   -584.98571     102002.7      46.7237      46.7237      46.7237 
  363000    107.67525   -7643.4498   -7043.2556   -1086.7511     102002.7      46.7237      46.7237      46.7237 
  364000     109.8493   -7639.4342   -7027.1216   -595.95312     102002.7      46.7237      46.7237      46.7237 
  365000    108.43522   -7618.4221   -7013.9917   -521.40648     102002.7      46.7237      46.7237      46.7237 
  366000    112.11696   -7642.3002   -7017.3474   -1019.9622     102002.7      46.7237      46.7237      46.7237 
  367000    109.96183   -7630.8206   -7017.8807   -771.90002     102002.7      46.7237      46.7237      46.7237 
  368000    108.73059   -7630.1117    -7024.035    -726.0568     102002.7      46.7237      46.7237      46.7237 
  369000     112.3901   -7600.6423    -6974.167   -846.50749     102002.7      46.7237      46.7237      46.7237 
  370000    112.30488   -7641.1053   -7015.1049    -556.3405     102002.7      46.7237      46.7237      46.7237 
  371000    109.40696   -7644.0043   -7034.1573   -701.93869     102002.7      46.7237      46.7237      46.7237 
  372000    110.94811   -7636.2502   -7017.8127   -734.89772     102002.7      46.7237      46.7237      46.7237 
  373000    107.85869   -7620.2376   -7019.0209    -656.2869     102002.7      46.7237      46.7237      46.7237 
  374000    110.06144   -7621.4389   -7007.9438   -314.42382     102002.7      46.7237      46.7237      46.7237 
  375000    112.38662   -7627.4028   -7000.9469   -519.74809     102002.7      46.7237      46.7237      46.7237 
  376000    106.05883   -7619.7145   -7028.5304   -652.73685     102002.7      46.7237      46.7237      46.7237 
  377000    108.65885   -7628.0294   -7022.3525   -751.39973     102002.7      46.7237      46.7237      46.7237 
  378000    109.89313   -7630.8394   -7018.2825     -1057.44     102002.7      46.7237      46.7237      46.7237 
  379000    110.24704   -7612.3645   -6997.8348    -716.8142     102002.7      46.7237      46.7237      46.7237 
  380000    111.17782   -7641.5016   -7021.7837   -967.31531     102002.7      46.7237      46.7237      46.7237 
  381000    109.08269   -7651.0219   -7042.9824   -1020.9613     102002.7      46.7237      46.7237      46.7237 
  382000    105.86428   -7620.0126   -7029.9129   -1094.9781     102002.7      46.7237      46.7237      46.7237 
  383000    111.41245   -7627.4792   -7006.4534   -900.15281     102002.7      46.7237      46.7237      46.7237 
  384000    107.10226   -7625.5499   -7028.5496    -869.5894     102002.7      46.7237      46.7237      46.7237 
  385000     111.1633   -7645.2751   -7025.6381   -771.89447     102002.7      46.7237      46.7237      46.7237 
  386000    111.47405   -7614.6728   -6993.3036   -979.06112     102002.7      46.7237      46.7237      46.7237 
  387000    108.13727   -7630.2555    -7027.486    -799.6147     102002.7      46.7237      46.7237      46.7237 
  388000    107.63306   -7635.7862   -7035.8272   -439.17446     102002.7      46.7237      46.7237      46.7237 
  389000    108.98818   -7638.8941   -7031.3815   -604.25309     102002.7      46.7237      46.7237      46.7237 
  390000    112.08709   -7626.8015   -7002.0152   -626.54981     102002.7      46.7237      46.7237      46.7237 
  391000    111.94622   -7652.6411     -7028.64   -639.99183     102002.7      46.7237      46.7237      46.7237 
  392000     109.0138   -7611.6025    -7003.947   -708.37752     102002.7      46.7237      46.7237      46.7237 
  393000    110.22758    -7634.796   -7020.3748   -543.84609     102002.7      46.7237      46.7237      46.7237 
  394000    103.54123   -7625.0354   -7047.8847   -1006.3507     102002.7      46.7237      46.7237      46.7237 
  395000    112.77483   -7639.2746   -7010.6548   -888.03055     102002.7      46.7237      46.7237      46.7237 
  396000    112.13257   -7633.1364   -7008.0966   -553.75503     102002.7      46.7237      46.7237      46.7237 
  397000    109.14694   -7613.6229   -7005.2254   -801.03889     102002.7      46.7237      46.7237      46.7237 
  398000    109.08477   -7629.2588   -7021.2078   -703.06438     102002.7      46.7237      46.7237      46.7237 
  399000    111.71069   -7633.4399   -7010.7516   -673.95105     102002.7      46.7237      46.7237      46.7237 
  400000    110.09668   -7630.7226   -7017.0311   -862.37829     102002.7      46.7237      46.7237      46.7237 
  401000    114.70612   -7626.5952   -6987.2101   -814.58697     102002.7      46.7237      46.7237      46.7237 
  402000    109.19914   -7635.0748   -7026.3862   -967.47433     102002.7      46.7237      46.7237      46.7237 
  403000    110.71723   -7606.1747   -6989.0242   -1195.2916     102002.7      46.7237      46.7237      46.7237 
  404000    110.63485    -7643.637   -7026.9456   -607.82276     102002.7      46.7237      46.7237      46.7237 
  405000    110.11106   -7620.9838   -7007.2121    -693.9635     102002.7      46.7237      46.7237      46.7237 
  406000    111.39684   -7615.7418    -6994.803   -541.16405     102002.7      46.7237      46.7237      46.7237 
  407000    109.42496   -7635.8883    -7025.941   -707.25194     102002.7      46.7237      46.7237      46.7237 
  408000    109.50737   -7643.9623   -7033.5557   -507.37587     102002.7      46.7237      46.7237      46.7237 
  409000    110.99336   -7610.9375   -6992.2478   -613.86439     102002.7      46.7237      46.7237      46.7237 
  410000    106.59781   -7645.3575   -7051.1691   -764.49377     102002.7      46.7237      46.7237      46.7237 
  411000    112.49844   -7635.3047   -7008.2254   -588.76249     102002.7      46.7237      46.7237      46.7237 
  412000    109.20974   -7631.1666    -7022.419   -1045.0484     102002.7      46.7237      46.7237      46.7237 
  413000    107.73458   -7626.3454   -7025.8205   -529.66929     102002.7      46.7237      46.7237      46.7237 
  414000    112.80076   -7626.2536   -6997.4892   -825.02078     102002.7      46.7237      46.7237      46.7237 
  415000    106.26386   -7620.4863   -7028.1594   -675.37856     102002.7      46.7237      46.7237      46.7237 
  416000    115.06082   -7611.3736   -6970.0114   -741.64387     102002.7      46.7237      46.7237      46.7237 
  417000    110.16853   -7618.8269   -7004.7349   -815.72026     102002.7      46.7237      46.7237      46.7237 
  418000    106.29529   -7633.0042   -7040.5021   -737.52984     102002.7      46.7237      46.7237      46.7237 
  419000    110.82519   -7659.1484    -7041.396   -1047.5816     102002.7      46.7237      46.7237      46.7237 
  420000    108.78639   -7614.6238    -7008.236   -731.89578     102002.7      46.7237      46.7237      46.7237 
  421000    110.48798   -7649.2228   -7033.3501   -666.35565     102002.7      46.7237      46.7237      46.7237 
  422000     108.4804   -7628.2067   -7023.5245   -883.66541     102002.7      46.7237      46.7237      46.7237 
  423000    109.59362   -7611.3542   -7000.4668   -827.42548     102002.7      46.7237      46.7237      46.7237 
  424000    108.20397   -7622.8397   -7019.6983   -790.08849     102002.7      46.7237      46.7237      46.7237 
  425000    109.49524    -7618.396   -7008.0569   -590.13484     102002.7      46.7237      46.7237      46.7237 
  426000      107.005   -7630.9219   -7034.4637   -716.27947     102002.7      46.7237      46.7237      46.7237 
  427000    111.34749   -7626.3864   -7005.7227   -416.50259     102002.7      46.7237      46.7237      46.7237 
  428000    111.65458   -7601.8582   -6979.4827   -996.21966     102002.7      46.7237      46.7237      46.7237 
  429000    109.58402   -7610.2044   -6999.3706   -667.63554     102002.7      46.7237      46.7237      46.7237 
  430000    106.44539   -7630.6434   -7037.3046   -700.90798     102002.7      46.7237      46.7237      46.7237 
  431000    108.67426   -7628.7962   -7023.0334   -753.54072     102002.7      46.7237      46.7237      46.7237 
  432000    111.52714   -7608.9356   -6987.2705   -646.76535     102002.7      46.7237      46.7237      46.7237 
  433000    107.17649   -7632.8357   -7035.4216   -470.95971     102002.7      46.7237      46.7237      46.7237 
  434000    113.31188   -7625.0279   -6993.4145   -336.55855     102002.7      46.7237      46.7237      46.7237 
  435000    112.09063   -7631.8834   -7007.0774   -835.92943     102002.7      46.7237      46.7237      46.7237 
  436000    107.74618    -7617.438   -7016.8484   -919.90873     102002.7      46.7237      46.7237      46.7237 
  437000    110.59653   -7616.4552   -6999.9774   -701.53279     102002.7      46.7237      46.7237      46.7237 
  438000    108.22441   -7645.8961   -7042.6408   -980.37617     102002.7      46.7237      46.7237      46.7237 
  439000     109.7342   -7630.5335   -7018.8625   -700.40748     102002.7      46.7237      46.7237      46.7237 
  440000    109.61302     -7624.96   -7013.9644   -879.29431     102002.7      46.7237      46.7237      46.7237 
  441000    110.02432    -7627.521   -7014.2328   -901.74685     102002.7      46.7237      46.7237      46.7237 
  442000    110.46584   -7619.2521   -7003.5028   -524.34619     102002.7      46.7237      46.7237      46.7237 
  443000    109.34205   -7627.9266   -7018.4415   -971.34349     102002.7      46.7237      46.7237      46.7237 
  444000    111.38467   -7641.4107   -7020.5398   -705.90648     102002.7      46.7237      46.7237      46.7237 
  445000     110.2565   -7628.4505   -7013.8681   -846.05736     102002.7      46.7237      46.7237      46.7237 
  446000    107.68828   -7628.5171   -7028.2503   -795.53988     102002.7      46.7237      46.7237      46.7237 
  447000     113.1827   -7623.1838   -6992.2904   -845.45308     102002.7      46.7237      46.7237      46.7237 
  448000    110.02796   -7633.8574   -7020.5489   -603.31844     102002.7      46.7237      46.7237      46.7237 
  449000    105.20211   -7652.6613   -7066.2527   -720.48535     102002.7      46.7237      46.7237      46.7237 
  450000    109.73573   -7645.2503   -7033.5708   -922.23359     102002.7      46.7237      46.7237      46.7237 
  451000    112.57349   -7635.1842   -7007.6867   -873.11274     102002.7      46.7237      46.7237      46.7237 
  452000    106.15015   -7630.6758   -7038.9827   -830.35821     102002.7      46.7237      46.7237      46.7237 
  453000    108.29024   -7648.7389   -7045.1167   -949.20361     102002.7      46.7237      46.7237      46.7237 
  454000    107.45897   -7656.8456    -7057.857   -763.54822     102002.7      46.7237      46.7237      46.7237 
  455000    112.12657   -7636.8814    -7011.875   -928.13819     102002.7      46.7237      46.7237      46.7237 
  456000    107.50801   -7621.6287   -7022.3667   -650.33815     102002.7      46.7237      46.7237      46.7237 
  457000    109.58451   -7653.6553   -7042.8187   -849.09963     102002.7      46.7237      46.7237      46.7237 
  458000    110.39028   -7641.1734   -7025.8453   -779.09788     102002.7      46.7237      46.7237      46.7237 
  459000    111.85513   -7620.7767   -6997.2833   -900.47292     102002.7      46.7237      46.7237      46.7237 
  460000    110.67069   -7634.8543   -7017.9631   -509.76358     102002.7      46.7237      46.7237      46.7237 
  461000    109.49951   -7647.2858    -7036.923   -743.87581     102002.7      46.7237      46.7237      46.7237 
  462000    113.01625   -7613.8005    -6983.835   -725.10907     102002.7      46.7237      46.7237      46.7237 
  463000    108.87898    -7631.915   -7025.0111   -841.02753     102002.7      46.7237      46.7237      46.7237 
  464000    111.01055    -7625.908   -7007.1225   -950.02855     102002.7      46.7237      46.7237      46.7237 
  465000    108.64587   -7656.6091   -7051.0045   -784.55342     102002.7      46.7237      46.7237      46.7237 
  466000    109.97518   -7616.1526   -7003.1383     -491.721     102002.7      46.7237      46.7237      46.7237 
  467000    108.33699   -7622.9128     -7019.03   -435.21108     102002.7      46.7237      46.7237      46.7237 
  468000    110.81419   -7620.1679   -7002.4769   -560.15517     102002.7      46.7237      46.7237      46.7237 
  469000    107.82066   -7624.9668    -7023.962   -613.76049     102002.7      46.7237      46.7237      46.7237 
  470000    110.02345   -7644.2435   -7030.9602   -787.34689     102002.7      46.7237      46.7237      46.7237 
  471000    107.50513   -7605.3425   -7006.0966   -695.24413     102002.7      46.7237      46.7237      46.7237 
  472000    111.52938   -7618.4235    -6996.746   -809.94207     102002.7      46.7237      46.7237      46.7237 
  473000    110.45275   -7642.7116   -7027.0352   -869.52486     102002.7      46.7237      46.7237      46.7237 
  474000    108.13923   -7634.7891   -7032.0086   -933.38666     102002.7      46.7237      46.7237      46.7237 
  475000    108.56121   -7635.1279   -7029.9952   -594.86411     102002.7      46.7237      46.7237      46.7237 
  476000     109.3253   -7627.2288    -7017.837   -387.67999     102002.7      46.7237      46.7237      46.7237 
  477000    108.07269   -7632.4181   -7030.0085   -1023.3693     102002.7      46.7237      46.7237      46.7237 
  478000    112.51303   -7633.8456   -7006.6851   -510.30154     102002.7      46.7237      46.7237      46.7237 
  479000      109.742   -7625.4749   -7013.7604    -743.9597     102002.7      46.7237      46.7237      46.7237 
  480000    108.50499   -7621.4489   -7016.6296   -714.86099     102002.7      46.7237      46.7237      46.7237 
  481000     112.9515   -7646.5253   -7016.9207    -532.9397     102002.7      46.7237      46.7237      46.7237 
  482000     107.7984   -7637.4965   -7036.6158   -943.00346     102002.7      46.7237      46.7237      46.7237 
  483000    109.73049   -7633.5563    -7021.906   -845.06167     102002.7      46.7237      46.7237      46.7237 
  484000    106.98843    -7630.491   -7034.1252   -961.79713     102002.7      46.7237      46.7237      46.7237 
  485000    111.92839   -7624.9169   -7001.0153   -562.58693     102002.7      46.7237      46.7237      46.7237 
  486000    107.02784   -7629.9716   -7033.3861   -749.65551     102002.7      46.7237      46.7237      46.7237 
  487000    111.34712   -7627.0444   -7006.3828   -709.01874     102002.7      46.7237      46.7237      46.7237 
  488000    109.49327   -7623.0855   -7012.7575   -602.99805     102002.7      46.7237      46.7237      46.7237 
  489000    110.82487   -7624.1211   -7006.3705   -697.39136     102002.7      46.7237      46.7237      46.7237 
  490000    109.69046   -7642.1102    -7030.683   -551.63385     102002.7      46.7237      46.7237      46.7237 
  491000    111.32366   -7618.9322   -6998.4013   -652.01882     102002.7      46.7237      46.7237      46.7237 
  492000    107.76714   -7644.2627   -7043.5563   -750.61775     102002.7      46.7237      46.7237      46.7237 
  493000    112.80494   -7646.9052   -7018.1175   -485.19017     102002.7      46.7237      46.7237      46.7237 
  494000    109.62854   -7618.2966   -7007.2145   -880.18562     102002.7      46.7237      46.7237      46.7237 
  495000    111.48642   -7614.8846   -6993.4465    -939.3314     102002.7      46.7237      46.7237      46.7237 
  496000     112.4316   -7626.7426    -7000.036   -519.22104     102002.7      46.7237      46.7237      46.7237 
  497000    108.21778   -7613.2476   -7010.0292   -756.70198     102002.7      46.7237      46.7237      46.7237 
  498000      109.376   -7649.8957   -7040.2213   -974.29623     102002.7      46.7237      46.7237      46.7237 
  499000    109.21511   -7631.5498   -7022.7722   -625.99275     102002.7      46.7237      46.7237      46.7237 
  500000    110.70352    -7626.754   -7009.6799   -603.70702     102002.7      46.7237      46.7237      46.7237 
  500501    104.31418   -7624.9818   -7043.5226   -749.79952     102002.7      46.7237      46.7237      46.7237 
Loop time of 577.707 on 24 procs for 500000 steps with 1871 atoms

Performance: 74.778 ns/day, 0.321 hours/ns, 865.491 timesteps/s
99.8% CPU use with 24 MPI tasks x no OpenMP threads

MPI task timing breakdown:
Section |  min time  |  avg time  |  max time  |%varavg| %total
---------------------------------------------------------------
Pair    | 212.19     | 290.3      | 376.93     | 242.0 | 50.25
Bond    | 60.625     | 78.142     | 92.863     | 117.9 | 13.53
Neigh   | 2.5723     | 2.597      | 2.6163     |   1.0 |  0.45
Comm    | 115.25     | 199.12     | 267.79     | 291.5 | 34.47
Output  | 0.32213    | 0.32245    | 0.32683    |   0.2 |  0.06
Modify  | 3.6081     | 4.1064     | 4.5564     |  12.7 |  0.71
Other   |            | 3.128      |            |       |  0.54

Nlocal:    77.9583 ave 110 max 49 min
Histogram: 2 1 3 2 4 6 3 0 1 2
Nghost:    2117.33 ave 2271 max 2022 min
Histogram: 5 8 3 0 0 0 0 1 3 4
Neighs:    7642.08 ave 11384 max 4750 min
Histogram: 3 2 5 0 3 4 4 0 2 1

Total # of neighbors = 183410
Ave neighs/atom = 98.0278
Ave special neighs/atom = 6.15714
Neighbor list builds = 4106
Dangerous builds = 0
Neighbor list info ...
  update every 1 steps, delay 10 steps, check yes
  max neighbors/atom: 2000, page size: 100000
  master list distance cutoff = 16
  ghost atom cutoff = 16
  binsize = 8, bins = 6 6 6
  3 neighbor lists, perpetual/occasional/extra = 3 0 0
  (1) pair buck6d/coul/gauss/dsf, perpetual, skip from (3)
      attributes: half, newton on
      pair build: skip
      stencil: none
      bin: none
  (2) pair lj/cut, perpetual, skip from (3)
      attributes: half, newton on
      pair build: skip
      stencil: none
      bin: none
  (3) neighbor class addition, perpetual
      attributes: half, newton on
      pair build: half/bin/newton
      stencil: half/bin/3d/newton
      bin: standard
Setting up Verlet run ...
  Unit style    : real
  Current step  : 500501
  Time step     : 1
WARNING: Inconsistent image flags (../domain.cpp:786)
Per MPI rank memory allocation (min/avg/max) = 24.11 | 24.44 | 24.58 Mbytes
Step Time TotEng KinEng PotEng E_mol E_pair Temp Pxx Pyy Pzz Pxy Pxz Pyz Cella Cellb Cellc CellAlpha CellBeta CellGamma Volume Press 
  500501       500000   -7043.5226     581.4592   -7624.9818    4301.8341   -11926.816    104.31418    -928.0107   -899.12433   -422.26352    183.70374    187.01315    -0.649254      46.7237      46.7237      46.7237           90           90           90     102002.7   -749.79952 
  501000       500499   -7035.3634    607.70123   -7643.0647     4281.547   -11924.612    109.02202   -855.41034   -644.93185   -638.99825    83.443959   -176.29513   -159.49322      46.7237      46.7237      46.7237           90           90           90     102002.7   -713.11348 
  502000       501499     -7007.36     623.8685   -7631.2285    4311.1303   -11942.359    111.92243   -1141.2112   -677.43457   -689.93554   -116.82857    120.85905   -61.074836      46.7237      46.7237      46.7237           90           90           90     102002.7   -836.19376 
  503000       502499   -7017.7785    615.28309   -7633.0616    4267.7713   -11900.833    110.38221   -720.62599    -297.1639   -1010.4841   -163.39947   -77.871407   -324.53256      46.7237      46.7237      46.7237           90           90           90     102002.7   -676.09133 
  504000       503499   -7031.9527    614.36942   -7646.3221    4275.6134   -11921.936    110.21829   -791.18046   -587.61478   -962.25733    18.182621   -171.10376    200.78084      46.7237      46.7237      46.7237           90           90           90     102002.7   -780.35086 
  505000       504499   -7002.3739     630.3654   -7632.7393    4287.8163   -11920.556    113.08798   -765.45709   -908.18132   -539.09123     126.0865   -347.12359   -272.88853      46.7237      46.7237      46.7237           90           90           90     102002.7   -737.57655 
  506000       505499   -6999.2218    620.17778   -7619.3995    4309.8083   -11929.208    111.26032   -1008.2033   -1049.8682    -649.1239   -182.69814    56.108275   -84.785207      46.7237      46.7237      46.7237           90           90           90     102002.7   -902.39848 
  507000       506499   -7024.0031    605.23897    -7629.242    4304.3591   -11933.601    108.58028   -764.48939   -574.48524   -804.13701   -126.25945    17.874593    85.295188      46.7237      46.7237      46.7237           90           90           90     102002.7   -714.37055 
  508000       507499   -7013.7515     621.1084   -7634.8599     4286.997   -11921.857    111.42727   -427.36603   -863.31016   -930.35393   -6.6594475    87.073912    115.49237      46.7237      46.7237      46.7237           90           90           90     102002.7   -740.34337 
  509000       508499   -7018.6103    617.66908   -7636.2794    4279.8516   -11916.131    110.81026   -663.19275   -659.28816   -566.35017    95.183124   -2.4258062    123.68101      46.7237      46.7237      46.7237           90           90           90     102002.7   -629.61036 
  510000       509499   -7014.6278     603.0598   -7617.6876    4310.2032   -11927.891    108.18934   -676.47803   -584.04213    -493.3057   -27.969626    267.20214    53.378935      46.7237      46.7237      46.7237           90           90           90     102002.7   -584.60862 
  511000       510499   -6998.6525    621.83213   -7620.4847    4294.0734   -11914.558    111.55711   -1039.4107   -593.19398   -683.81609   -165.56738   -21.628346    89.993175      46.7237      46.7237      46.7237           90           90           90     102002.7   -772.14026 
  512000       511499   -7007.5979    635.25345   -7642.8514    4287.8367   -11930.688     113.9649   -611.67818   -1019.2424   -697.19224   -137.47046   -36.721001    167.18189      46.7237      46.7237      46.7237           90           90           90     102002.7   -776.03761 
  513000       512499   -7029.0763     627.1922   -7656.2685    4270.4546   -11926.723    112.51871   -803.63667   -675.24113   -766.35344    124.62839    122.24676   -71.441551      46.7237      46.7237      46.7237           90           90           90     102002.7   -748.41042 
  514000       513499   -6960.9166    637.17775   -7598.0943    4329.1645   -11927.259    114.31012   -704.28916    -439.0253   -1006.8736   -159.68217    54.663367    151.36259      46.7237      46.7237      46.7237           90           90           90     102002.7   -716.72936 
  515000       514499    -7008.472    618.23954   -7626.7115    4302.8374   -11929.549     110.9126   -541.47152    -449.0104   -366.33739    238.41101    -32.37229   -123.92694      46.7237      46.7237      46.7237           90           90           90     102002.7    -452.2731 
  516000       515499   -7042.6899    587.42508   -7630.1149    4293.3957   -11923.511    105.38446   -1123.3387     -1122.41   -841.44113   -78.065178    -189.0795   -142.36935      46.7237      46.7237      46.7237           90           90           90     102002.7   -1029.0633 
  517000       516499   -7004.0757     618.1024   -7622.1781    4308.9667   -11931.145    110.88799   -426.94518   -798.63029   -1184.3791    120.38208   -118.68774    97.119866      46.7237      46.7237      46.7237           90           90           90     102002.7   -803.31818 
  518000       517499   -7042.0511     585.0621   -7627.1132    4300.7464    -11927.86    104.96054   -821.24202   -648.21656   -618.02485    92.752273    187.32688    93.759789      46.7237      46.7237      46.7237           90           90           90     102002.7   -695.82781 
  519000       518499   -7008.7172    622.28705   -7631.0042    4288.0773   -11919.082    111.63872   -932.80201    -228.2755   -866.95447   -173.16508    52.015645   -23.655153      46.7237      46.7237      46.7237           90           90           90     102002.7   -676.01066 
  520000       519499   -7009.8724    611.29459    -7621.167    4314.4326     -11935.6    109.66667   -802.47715   -1080.2718   -783.92958   -273.45445   -178.25598   -132.71656      46.7237      46.7237      46.7237           90           90           90     102002.7   -888.89285 
  521000       520499   -7036.2435    599.80051    -7636.044    4298.8878   -11934.932    107.60462   -718.88561   -1038.6202   -829.59423   -158.02804   -15.841805   -92.011175      46.7237      46.7237      46.7237           90           90           90     102002.7   -862.36668 
  522000       521499   -6993.0574    623.86059    -7616.918    4323.5923    -11940.51    111.92102   -1201.4459   -838.15271   -537.57342   -151.16028    94.277057   -56.701841      46.7237      46.7237      46.7237           90           90           90     102002.7   -859.05733 
  523000       522499   -7009.8018    609.34273   -7619.1445    4308.1764   -11927.321     109.3165   -694.81275   -662.91283   -929.72219   -44.008329    158.02868    385.25857      46.7237      46.7237      46.7237           90           90           90     102002.7   -762.48259 
  524000       523499   -6983.0671    630.74545   -7613.8125    4322.9783   -11936.791    113.15616   -782.93186   -935.30361    -1030.727    84.475011   -71.823195    241.75175      46.7237      46.7237      46.7237           90           90           90     102002.7   -916.32083 
  525000       524499   -7010.2717    591.77268   -7602.0444    4320.0409   -11922.085    106.16442   -896.32267   -446.39735   -1026.0903    149.85705   -188.41019   -3.7312839      46.7237      46.7237      46.7237           90           90           90     102002.7   -789.60345 
  526000       525499        -6981    633.73976   -7614.7398    4306.6417   -11921.381    113.69335   -699.28187   -1005.3493   -917.92029    55.809153    39.599294   -19.650806      46.7237      46.7237      46.7237           90           90           90     102002.7   -874.18382 
  527000       526499     -7011.09    606.29556   -7617.3856    4295.8226   -11913.208    108.76984   -860.18654   -577.72343   -178.60921    29.570227    63.921027    6.4118431      46.7237      46.7237      46.7237           90           90           90     102002.7   -538.83973 
  528000       527499   -6983.3878    625.98272   -7609.3705    4300.3466   -11909.717    112.30173   -326.49715   -388.68256   -845.60632   -280.29828    -141.0668   -91.309068      46.7237      46.7237      46.7237           90           90           90     102002.7   -520.26201 
  529000       528499   -7027.3192    603.89227   -7631.2115    4298.3293   -11929.541    108.33869     -129.681   -1057.5495   -1053.6375    57.502817   -77.997131   -218.51289      46.7237      46.7237      46.7237           90           90           90     102002.7   -746.95599 
  530000       529499   -7004.8432    634.12948   -7638.9727    4289.0353   -11928.008    113.76326   -820.83056    -903.4198   -564.68014   -128.49425   -193.84297   -96.462434      46.7237      46.7237      46.7237           90           90           90     102002.7   -762.97683 
  531000       530499   -7003.1787    623.51527   -7626.6939    4275.6678   -11902.362    111.85906    -696.5089   -393.67793   -839.29701    237.41038   -25.194648   -91.282432      46.7237      46.7237      46.7237           90           90           90     102002.7   -643.16128 
  532000       531499    -7024.259    595.06525   -7619.3243     4298.116    -11917.44    106.75511    -873.4109   -851.84994   -811.86398    74.619723    34.261711   -28.152951      46.7237      46.7237      46.7237           90           90           90     102002.7   -845.70827 
  533000       532499   -6999.5848    609.12349   -7608.7083    4317.7728   -11926.481    109.27717   -545.03477   -396.29818   -1251.5307    25.849032   -245.66938    115.25535      46.7237      46.7237      46.7237           90           90           90     102002.7   -730.95455 
  534000       533499   -7035.9573     583.8129   -7619.7702    4297.1595    -11916.93    104.73643   -633.06922   -506.92002   -805.26447    55.835276   -191.31068   -246.68011      46.7237      46.7237      46.7237           90           90           90     102002.7    -648.4179 
  535000       534499    -7001.473    628.86599    -7630.339    4297.4429   -11927.782    112.81899   -793.03129   -1288.0889   -853.66196    275.42748   -164.45488   -122.02599      46.7237      46.7237      46.7237           90           90           90     102002.7   -978.26072 
  536000       535499   -7048.1483    581.99291   -7630.1413    4307.8813   -11938.023    104.40993   -904.37228   -1026.5051   -967.98471   -338.10529    240.78902   -51.034813      46.7237      46.7237      46.7237           90           90           90     102002.7   -966.28736 
  537000       536499   -7004.1909    597.62414   -7601.8151    4307.3396   -11909.155    107.21418    -890.2524   -718.03114   -1056.5218   -70.015481    156.09588    124.55855      46.7237      46.7237      46.7237           90           90           90     102002.7   -888.26845 
  538000       537499   -7009.1612     621.3969   -7630.5581    4295.6182   -11926.176    111.47903   -952.67575   -899.68304   -1035.9636     131.2208    71.179375   -293.72722      46.7237      46.7237      46.7237           90           90           90     102002.7   -962.77412 
  539000       538499   -6996.7422    635.67025   -7632.4125    4277.8746   -11910.287    114.03968   -573.99708   -578.86355   -1067.4475    241.05507    283.12842    209.16804      46.7237      46.7237      46.7237           90           90           90     102002.7   -740.10272 
  540000       539499    -7002.521    616.01011   -7618.5311    4304.8768   -11923.408    110.51263   -926.76542   -1146.5018   -913.45671     78.48005    133.23132    205.72333      46.7237      46.7237      46.7237           90           90           90     102002.7   -995.57464 
  541000       540499   -7032.5704    606.63749   -7639.2079    4280.8216    -11920.03    108.83118   -944.90131   -791.52547     -1045.31     -314.142    97.489749   -139.77368      46.7237      46.7237      46.7237           90           90           90     102002.7   -927.24559 
  542000       541499   -7005.8656    623.63428   -7629.4999    4295.2838   -11924.784    111.88042   -607.35343   -936.15027   -1060.0737   -199.41877    16.206243    19.853799      46.7237      46.7237      46.7237           90           90           90     102002.7   -867.85912 
  543000       542499   -7031.6771    606.32142   -7637.9985    4303.7115    -11941.71    108.77448   -1055.6518   -1014.3723   -1003.4691    72.382806   -19.092866    102.57973      46.7237      46.7237      46.7237           90           90           90     102002.7   -1024.4977 
  544000       543499   -7024.4104     613.6239   -7638.0343    4291.0524   -11929.087    110.08455   -697.12048   -1125.8517   -689.92908   -142.91686     111.0718   -136.32783      46.7237      46.7237      46.7237           90           90           90     102002.7   -837.63377 
  545000       544499   -7035.5738    611.26839   -7646.8422    4276.7052   -11923.547    109.66197    -828.1036    -785.0744   -662.88113   -179.39948   -130.58423    18.787284      46.7237      46.7237      46.7237           90           90           90     102002.7   -758.68638 
  546000       545499   -7027.1367    610.70275   -7637.8395     4281.533   -11919.372    109.56049   -921.97776   -417.24654   -544.59396   -40.679651   -34.845676   -139.40159      46.7237      46.7237      46.7237           90           90           90     102002.7   -627.93942 
  547000       546499   -6992.3976    631.00262   -7623.4002    4313.2675   -11936.668     113.2023   -1349.7819   -486.93742   -834.93485   -56.082907   -9.0648668    44.377979      46.7237      46.7237      46.7237           90           90           90     102002.7   -890.55138 
  548000       547499   -7009.2574    620.39954    -7629.657    4294.4626    -11924.12     111.3001    -900.0129   -1030.3172   -681.53884    135.97113    -226.1344     166.7886      46.7237      46.7237      46.7237           90           90           90     102002.7   -870.62299 
  549000       548499   -7017.3604    612.82826   -7630.1886    4283.1033   -11913.292    109.94181   -757.45756   -726.39472   -902.66083   -23.278853   -39.255332    15.776342      46.7237      46.7237      46.7237           90           90           90     102002.7   -795.50437 
  550000       549499   -7011.7392    614.52093   -7626.2602    4288.4487   -11914.709    110.24547   -834.48464   -1193.8701   -816.36728   -72.523681   -1.2360478   -325.91696      46.7237      46.7237      46.7237           90           90           90     102002.7   -948.24066 
  551000       550499    -7030.708     608.9588   -7639.6668    4279.0203   -11918.687    109.24762   -502.06826   -1276.2044   -678.63798    -131.7641     70.43998    46.302181      46.7237      46.7237      46.7237           90           90           90     102002.7    -818.9702 
  552000       551499   -7028.3226    621.22211   -7649.5447    4282.9954    -11932.54    111.44767   -798.53647   -626.95842   -886.13136    47.531049   -198.88412   -209.45411      46.7237      46.7237      46.7237           90           90           90     102002.7   -770.54209 
  553000       552499   -6993.3079    617.43915   -7610.7471    4313.5614   -11924.308      110.769    -1129.213    -369.1144   -311.80348    121.35037    55.386143   -121.75407      46.7237      46.7237      46.7237           90           90           90     102002.7   -603.37697 
  554000       553499   -7013.2314    607.22236   -7620.4538    4303.2198   -11923.674    108.93611   -729.35042   -345.61648   -682.92719    155.31004   -142.54775   -104.78254      46.7237      46.7237      46.7237           90           90           90     102002.7    -585.9647 
  555000       554499   -7006.7257     611.1814   -7617.9071    4311.4319   -11929.339    109.64636   -541.22545   -852.94432    -987.9418    150.18784    41.833906   -47.114537      46.7237      46.7237      46.7237           90           90           90     102002.7   -794.03719 
[...]
  936000       935499   -6985.6739    648.46407    -7634.138     4277.742    -11911.88     116.3349   -645.26339   -1276.8964   -254.02812    197.16867   -69.256993    102.15684      46.7237      46.7237      46.7237           90           90           90     102002.7   -725.39598 
  937000       936499   -7010.4033    604.33201   -7614.7353    4303.0022   -11917.738    108.41758   -825.61586   -497.09624   -1139.9691   -137.85225    46.517848   -58.923404      46.7237      46.7237      46.7237           90           90           90     102002.7   -820.89374 
  938000       937499    -7014.256    618.78256   -7633.0386    4302.2666   -11935.305    111.01001   -468.77496   -1331.0946   -526.96955    36.362385     229.9557    115.29782      46.7237      46.7237      46.7237           90           90           90     102002.7   -775.61303 
  939000       938499   -7017.7424    615.09988   -7632.8423     4289.744   -11922.586    110.34934   -571.76675   -517.26852   -840.74337   -95.282263    -50.37238    -39.76324      46.7237      46.7237      46.7237           90           90           90     102002.7   -643.25955 
  940000       939499   -7013.2321    610.37895    -7623.611    4293.0592    -11916.67     109.5024   -1218.5906   -573.30671   -278.81542     -136.461   -255.46022    126.35074      46.7237      46.7237      46.7237           90           90           90     102002.7   -690.23758 
  941000       940499   -7036.6229    601.67052   -7638.2934     4289.618   -11927.911     107.9401   -820.19217   -901.07123   -934.25315    51.911478    54.494758    31.825103      46.7237      46.7237      46.7237           90           90           90     102002.7   -885.17218 
  942000       941499   -7005.8766    615.92183   -7621.7984    4307.0002   -11928.799     110.4968    -1005.319    -898.9717   -551.89857   -242.20322    91.935629   -113.69322      46.7237      46.7237      46.7237           90           90           90     102002.7   -818.72975 
  943000       942499    -7015.091    617.33677   -7632.4278    4296.8065   -11929.234    110.75064   -1221.5204   -959.12925    -780.9102    100.94365    16.448403   -1.1525492      46.7237      46.7237      46.7237           90           90           90     102002.7   -987.18663 
  944000       943499   -6997.8272    612.95378    -7610.781    4291.4558   -11902.237    109.96433    -696.0283   -858.46132   -640.21024   -47.467302    231.60964    12.050826      46.7237      46.7237      46.7237           90           90           90     102002.7   -731.56662 
  945000       944499   -7005.3723    622.48693   -7627.8592    4292.8209    -11920.68    111.67458   -637.02966   -739.64184   -813.05815   -288.65064    135.10194    15.214848      46.7237      46.7237      46.7237           90           90           90     102002.7   -729.90988 
  946000       945499   -7035.1882    602.90212   -7638.0903    4269.1246   -11907.215    108.16105   -350.93087   -732.37299   -549.36645    46.404655    130.03652    129.74293      46.7237      46.7237      46.7237           90           90           90     102002.7   -544.22344 
  947000       946499   -7002.3324    631.08563    -7633.418    4298.8985   -11932.317    113.21719   -620.45548    -554.3421   -670.50004    6.1737318    164.98743    137.21787      46.7237      46.7237      46.7237           90           90           90     102002.7   -615.09921 
  948000       947499   -7023.3482    583.33944   -7606.6876    4317.5435   -11924.231    104.65149    -697.6418   -883.91828   -392.17669   -98.779391   -62.487467    127.41072      46.7237      46.7237      46.7237           90           90           90     102002.7   -657.91226 
  949000       948499   -7033.0815    588.84778   -7621.9293    4312.2574   -11934.187    105.63969   -826.71426   -810.27211   -662.06504   -196.23566   -198.17606    14.899869      46.7237      46.7237      46.7237           90           90           90     102002.7   -766.35047 
  950000       949499   -7034.7699    602.32127   -7637.0911    4299.4033   -11936.494    108.05685   -684.94037   -777.44383   -773.80403    162.83295     216.3153     186.2613      46.7237      46.7237      46.7237           90           90           90     102002.7   -745.39608 
  951000       950499    -7041.167     595.6447   -7636.8117     4290.147   -11926.959    106.85907   -569.26055   -1044.6777   -585.71194    52.995708    294.15149   -132.48908      46.7237      46.7237      46.7237           90           90           90     102002.7   -733.21674 
  952000       951499   -7024.1021     593.5757   -7617.6778    4297.0961   -11914.774    106.48789   -731.47147   -683.54959   -627.44589   -174.61013    128.15424    217.89838      46.7237      46.7237      46.7237           90           90           90     102002.7   -680.82232 
  953000       952499     -7023.91    613.57967   -7637.4896    4288.7559   -11926.246    110.07661   -943.97475   -999.94065   -864.28088   -123.97654   -168.87315    173.22252      46.7237      46.7237      46.7237           90           90           90     102002.7   -936.06543 
  954000       953499    -6997.561     634.0277   -7631.5886    4286.2478   -11917.836      113.745   -1152.8796   -952.84368   -468.21668    18.302235    52.173586    40.040172      46.7237      46.7237      46.7237           90           90           90     102002.7   -857.97997 
  955000       954499   -6976.7193     637.1831   -7613.9024    4295.8015   -11909.704    114.31108    -1113.507   -807.96431   -725.61674  -0.29125493    53.465684    56.359987      46.7237      46.7237      46.7237           90           90           90     102002.7   -882.36269 
  956000       955499   -7009.5017    606.89752   -7616.3992    4310.1319   -11926.531    108.87783   -551.39682   -832.76352   -683.60724   -228.66298    252.91891       58.157      46.7237      46.7237      46.7237           90           90           90     102002.7   -689.25586 
  957000       956499   -7015.3603    607.53134   -7622.8916    4294.1843   -11917.076    108.99154   -898.09435    -905.1144   -748.94465    176.59903     33.10898    60.139131      46.7237      46.7237      46.7237           90           90           90     102002.7    -850.7178 
  958000       957499   -7018.6435    607.35782   -7626.0013    4288.0175   -11914.019    108.96041   -766.73807   -843.79488   -302.05322   -25.139675    388.20063    6.8091309      46.7237      46.7237      46.7237           90           90           90     102002.7   -637.52872 
  959000       958499   -7029.1333    620.15571    -7649.289    4283.5386   -11932.828    111.25636   -811.98721   -857.77907   -778.99531     84.45079    128.73355   -4.1263173      46.7237      46.7237      46.7237           90           90           90     102002.7   -816.25386 
  960000       959499   -7015.5524    607.28339   -7622.8358    4307.3648   -11930.201    108.94705   -900.52733   -804.34173   -920.59699    159.55857     199.6349    129.56609      46.7237      46.7237      46.7237           90           90           90     102002.7   -875.15535 
  961000       960499   -7045.5851    584.86147   -7630.4466    4279.8106   -11910.257    104.92455   -479.78462     -604.617   -890.03149    411.43941    12.696225    211.50774      46.7237      46.7237      46.7237           90           90           90     102002.7   -658.14437 
  962000       961499   -7005.8953    610.62172    -7616.517    4323.3549   -11939.872    109.54595   -778.29994   -819.65524    -654.3228    105.21269   -198.06166   -156.21484      46.7237      46.7237      46.7237           90           90           90     102002.7   -750.75933 
  963000       962499   -7018.7853    602.91597   -7621.7013    4292.4183    -11914.12    108.16354   -613.58859   -1059.7814   -429.45002   -71.314578   -140.93035    148.87474      46.7237      46.7237      46.7237           90           90           90     102002.7   -700.94002 
  964000       963499   -6999.7614    619.10777   -7618.8691    4297.6422   -11916.511    111.06836   -480.11529   -575.34389   -598.33614    52.591868   -25.463587    84.078729      46.7237      46.7237      46.7237           90           90           90     102002.7   -551.26511 
  965000       964499   -7003.4028    600.53273   -7603.9355    4299.0771   -11903.013    107.73598   -596.65838   -554.69172   -323.08965   -138.38406    14.585885    44.670245      46.7237      46.7237      46.7237           90           90           90     102002.7   -491.47992 
  966000       965499   -7008.3063    618.25485   -7626.5612    4302.8284    -11929.39    110.91534   -769.77924    -1014.044   -672.15074    133.83763    2.0660116   -217.52022      46.7237      46.7237      46.7237           90           90           90     102002.7   -818.65801 
  967000       966499   -6992.3154    617.33814   -7609.6536    4292.4796   -11902.133    110.75088   -706.21203    -1291.708   -744.83476    90.617821   -21.559344   -73.957772      46.7237      46.7237      46.7237           90           90           90     102002.7   -914.25158 
  968000       967499   -7016.4086    589.75499   -7606.1636    4299.8576   -11906.021    105.80245    -1172.249   -921.29697     -245.328    15.617743   -163.43679    116.61504      46.7237      46.7237      46.7237           90           90           90     102002.7   -779.62467 
  969000       968499   -6985.1191    627.80224   -7612.9213    4294.1753   -11907.097    112.62815   -713.57958   -679.03903   -348.53575    196.47675     2.325867   -149.97453      46.7237      46.7237      46.7237           90           90           90     102002.7   -580.38479 
  970000       969499   -7007.6737    607.84236   -7615.5161    4300.0491   -11915.565    109.04733    -596.3053   -764.39541   -1385.3869   -78.218469   -4.8861328   -81.155209      46.7237      46.7237      46.7237           90           90           90     102002.7   -915.36255 
  971000       970499   -6976.9514    629.24219   -7606.1936    4296.1082   -11902.302    112.88648   -456.97412   -550.14529   -641.87122    160.15204   -103.51028    213.50347      46.7237      46.7237      46.7237           90           90           90     102002.7   -549.66354 
  972000       971499   -6985.4788    608.19736   -7593.6762    4319.2426   -11912.919    109.11102    -542.6056   -490.51147   -757.71221    80.657241    16.149074     67.62684      46.7237      46.7237      46.7237           90           90           90     102002.7   -596.94309 
  973000       972499   -6988.1283     630.6757    -7618.804    4284.1421   -11902.946    113.14365   -626.59739   -151.20346   -753.49548   -49.274278   -1.2245699    28.578099      46.7237      46.7237      46.7237           90           90           90     102002.7   -510.43211 
  974000       973499   -7023.3652    616.54257   -7639.9077    4279.5433   -11919.451    110.60816   -701.29244   -908.52477   -568.31241    102.42454   -81.675543    33.813413      46.7237      46.7237      46.7237           90           90           90     102002.7    -726.0432 
  975000       974499   -7015.5345    593.26537   -7608.7999    4300.0985   -11908.898    106.43221   -1014.9533   -990.23228   -488.11189   -86.167553   -19.373926    101.58526      46.7237      46.7237      46.7237           90           90           90     102002.7   -831.09915 
  976000       975499    -7019.866    603.91813   -7623.7841    4288.4702   -11912.254    108.34332   -581.27195    -1106.389   -474.57449   -52.740293   -44.681752     37.27219      46.7237      46.7237      46.7237           90           90           90     102002.7   -720.74516 
  977000       976499   -7018.5725    606.03756   -7624.6101    4288.2136   -11912.824    108.72355   -1039.4497   -788.76399   -501.51811    51.606626   -143.11123   -170.72499      46.7237      46.7237      46.7237           90           90           90     102002.7   -776.57726 
  978000       977499   -7011.4589    617.60002    -7629.059    4310.7859   -11939.845    110.79787   -1198.4696   -705.66824   -915.25939    320.76572   -255.24377     6.107314      46.7237      46.7237      46.7237           90           90           90     102002.7   -939.79909 
  979000       978499   -7049.6891    611.21721   -7660.9063     4278.163   -11939.069    109.65278   -743.73465   -895.34575   -583.10152   -93.080633    64.632262    238.50559      46.7237      46.7237      46.7237           90           90           90     102002.7   -740.72731 
  980000       979499   -7003.1697    604.56416   -7607.7339    4325.0618   -11932.796    108.45922   -309.67756   -1094.2784   -361.09664   -159.35509   -143.30369   -215.57468      46.7237      46.7237      46.7237           90           90           90     102002.7   -588.35087 
  981000       980499   -7001.9483    605.61177     -7607.56    4311.1721   -11918.732    108.64716   -1011.9938   -555.02508   -870.36025   -2.0917427    181.64225   -62.733429      46.7237      46.7237      46.7237           90           90           90     102002.7   -812.45971 
  982000       981499   -7019.3905    604.95608   -7624.3466    4301.2997   -11925.646    108.52953   -562.78756   -1001.2259   -220.85761    85.104398    -132.5254    8.6306597      46.7237      46.7237      46.7237           90           90           90     102002.7   -594.95703 
  983000       982499   -6997.8854    602.62102   -7600.5064    4311.9463   -11912.453    108.11062   -361.67992   -615.51666   -436.45096    191.65502   -110.98908    32.855954      46.7237      46.7237      46.7237           90           90           90     102002.7   -471.21585 
  984000       983499   -7029.6324    608.72789   -7638.3603    4281.0869   -11919.447     109.2062   -700.01464   -1218.5479    -389.0583   -18.063989    156.44326      91.7132      46.7237      46.7237      46.7237           90           90           90     102002.7   -769.20695 
  985000       984499   -7059.4209    592.42884   -7651.8497    4252.1232   -11903.973    106.28214   -500.21352    -639.7486   -373.49492    62.064858   -89.133418    162.20824      46.7237      46.7237      46.7237           90           90           90     102002.7   -504.48568 
  986000       985499   -7011.6721    611.51503   -7623.1871     4285.062   -11908.249    109.70621   -877.39325   -500.53738   -558.14269    295.58505   -163.84193    182.84885      46.7237      46.7237      46.7237           90           90           90     102002.7   -645.35777 
  987000       986499   -6985.9035    637.98192   -7623.8854    4294.0378   -11917.923    114.45439   -852.43052   -938.94981   -760.51908    130.41602      222.636   -204.05633      46.7237      46.7237      46.7237           90           90           90     102002.7   -850.63313 
  988000       987499   -7011.2443    629.42983   -7640.6741    4287.4965   -11928.171    112.92014   -580.71453   -233.00845   -1037.7723    32.261306   -67.127395   -379.65021      46.7237      46.7237      46.7237           90           90           90     102002.7   -617.16508 
  989000       988499   -7004.7568    594.22697   -7598.9837     4314.087   -11913.071    106.60472   -897.73462   -707.88091   -611.59253   -282.50266   -42.927081    72.844399      46.7237      46.7237      46.7237           90           90           90     102002.7   -739.06935 
  990000       989499   -7019.8254    599.21307   -7619.0385    4279.9249   -11898.963    107.49923   -415.08345   -924.09091   -551.03639   -10.062778   -269.97233   -150.50871      46.7237      46.7237      46.7237           90           90           90     102002.7   -630.07025 
  991000       990499   -7012.8308    600.72415   -7613.5549    4307.3479   -11920.903    107.77032   -939.31683   -442.91628   -265.04123    179.82697     86.78541   -239.45458      46.7237      46.7237      46.7237           90           90           90     102002.7   -549.09144 
  992000       991499   -6992.7824    616.49327   -7609.2757    4303.4571   -11912.733    110.59931   -622.83554   -951.29347   -1094.7647   -46.800111    179.53272     38.24621      46.7237      46.7237      46.7237           90           90           90     102002.7   -889.63124 
  993000       992499    -7036.806    592.35475   -7629.1607    4302.0694    -11931.23    106.26885   -1011.4668   -434.01952   -1037.4826    62.210976    65.164244    6.4098534      46.7237      46.7237      46.7237           90           90           90     102002.7   -827.65632 
  994000       993499    -7002.112    594.17737   -7596.2893    4307.3775   -11903.667    106.59583   -625.83614   -959.52121   -850.40146    129.12449    48.931072   -128.53911      46.7237      46.7237      46.7237           90           90           90     102002.7    -811.9196 
  995000       994499   -6979.0535    634.85347    -7613.907    4307.3019   -11921.209    113.89315   -1059.4636   -182.74426   -988.04955   -174.60813   -206.61556    6.4646209      46.7237      46.7237      46.7237           90           90           90     102002.7   -743.41915 
  996000       995499   -7020.0176    603.39537    -7623.413    4292.0439   -11915.457    108.24954   -750.19909   -555.87044   -352.44621    126.41621    58.545858     152.1132      46.7237      46.7237      46.7237           90           90           90     102002.7   -552.83858 
  997000       996499   -7010.0093    598.21983   -7608.2292    4300.9301   -11909.159    107.32105   -572.32872   -702.51488   -572.58469   -47.566794   -36.180938    219.81788      46.7237      46.7237      46.7237           90           90           90     102002.7   -615.80943 
  998000       997499   -7009.4788    637.62478   -7647.1036    4270.6973   -11917.801    114.39032   -606.83459   -760.49605   -778.27088   -121.87577    -203.7696    75.077061      46.7237      46.7237      46.7237           90           90           90     102002.7   -715.20051 
  999000       998499   -7040.5656    599.29294   -7639.8585    4282.5875   -11922.446    107.51356   -750.91301   -766.08153   -468.75496   -51.140298   -32.586608   -69.266373      46.7237      46.7237      46.7237           90           90           90     102002.7    -661.9165 
 1000000       999499   -7002.9119    617.53254   -7620.4445    4305.5076   -11925.952    110.78576   -967.03214   -1200.0375   -1068.6903    -141.6559    -221.0867   -192.15796      46.7237      46.7237      46.7237           90           90           90     102002.7   -1078.5867 
 1000501      1000000   -7018.7139    606.58654   -7625.3005    4292.1367   -11917.437    108.82204   -1120.5227   -552.52306   -1091.8057    156.60734   -295.84996     -194.142      46.7237      46.7237      46.7237           90           90           90     102002.7   -921.61718 
Loop time of 673.208 on 24 procs for 500000 steps with 1871 atoms

Performance: 64.170 ns/day, 0.374 hours/ns, 742.712 timesteps/s
99.9% CPU use with 24 MPI tasks x no OpenMP threads

MPI task timing breakdown:
Section |  min time  |  avg time  |  max time  |%varavg| %total
---------------------------------------------------------------
Pair    | 210.27     | 322.86     | 466.41     | 375.1 | 47.96
Bond    | 56.77      | 82.11      | 110.52     | 174.6 | 12.20
Neigh   | 2.7988     | 2.8246     | 2.8418     |   1.0 |  0.42
Comm    | 96.101     | 249.59     | 363.95     | 486.5 | 37.08
Output  | 0.50248    | 0.528      | 0.52925    |   0.7 |  0.08
Modify  | 11.703     | 12.149     | 12.648     |   7.1 |  1.80
Other   |            | 3.144      |            |       |  0.47

Nlocal:    77.9583 ave 109 max 53 min
Histogram: 3 0 5 4 2 4 1 3 0 2
Nghost:    2140.38 ave 2307 max 2033 min
Histogram: 5 10 1 0 0 0 0 0 2 6
Neighs:    7637.96 ave 14022 max 3639 min
Histogram: 4 2 4 3 5 1 2 1 0 2

Total # of neighbors = 183311
Ave neighs/atom = 97.9749
Ave special neighs/atom = 6.15714
Neighbor list builds = 4197
Dangerous builds = 0
Total wall time: 0:20:52
