LAMMPS (30 Mar 2018)
Reading data file ...
  orthogonal box = (0 0 0) to (46.7237 46.7237 46.7237)
  2 by 3 by 4 MPI processor grid
  reading atoms ...
  1827 atoms
  scanning bonds ...
  5 = max bonds/atom
  scanning angles ...
  10 = max angles/atom
  scanning dihedrals ...
  32 = max dihedrals/atom
  scanning impropers ...
  3 = max impropers/atom
  reading bonds ...
  2064 bonds
  reading angles ...
  3696 angles
  reading dihedrals ...
  6240 dihedrals
  reading impropers ...
  1008 impropers
Finding 1-2 1-3 1-4 neighbors ...
  special bond factors lj:   0          0          0         
  special bond factors coul: 0          0          0         
  5 = max # of 1-2 neighbors
  8 = max # of 1-3 neighbors
  20 = max # of 1-4 neighbors
  19 = max # of special neighbors
Finding 1-2 1-3 1-4 neighbors ...
  special bond factors lj:   0          0          1         
  special bond factors coul: 1          1          1         
  5 = max # of 1-2 neighbors
  8 = max # of 1-3 neighbors
  19 = max # of special neighbors
WARNING: Using 'neigh_modify every 1 delay 0 check yes' setting during minimization (../min.cpp:168)
Neighbor list info ...
  update every 1 steps, delay 0 steps, check yes
  max neighbors/atom: 2000, page size: 100000
  master list distance cutoff = 16
  ghost atom cutoff = 16
  binsize = 8, bins = 6 6 6
  3 neighbor lists, perpetual/occasional/extra = 3 0 0
  (1) pair buck6d/coul/gauss/dsf, perpetual, skip from (3)
      attributes: half, newton on
      pair build: skip
      stencil: none
      bin: none
  (2) pair lj/cut, perpetual, skip from (3)
      attributes: half, newton on
      pair build: skip
      stencil: none
      bin: none
  (3) neighbor class addition, perpetual
      attributes: half, newton on
      pair build: half/bin/newton
      stencil: half/bin/3d/newton
      bin: standard
Setting up cg style minimization ...
  Unit style    : real
  Current step  : 0
WARNING: Inconsistent image flags (../domain.cpp:786)
Per MPI rank memory allocation (min/avg/max) = 22.87 | 23.28 | 24.43 Mbytes
Step Temp E_pair E_mol TotEng Press 
       0            0   -11805.772    6482.8914   -5322.8803    6156.8115 
     505            0   -11848.377    3728.8923   -8119.4845   -579.26736 
Loop time of 1.22264 on 24 procs for 505 steps with 1827 atoms

99.8% CPU use with 24 MPI tasks x no OpenMP threads

Minimization stats:
  Stopping criterion = max force evaluations
  Energy initial, next-to-last, final = 
        -5322.88028211     -8119.45435404     -8119.48446493
  Force two-norm initial, final = 2576.43 7.65295
  Force max component initial, final = 151.983 2.04709
  Final line search alpha, max atom move = 0.00350872 0.00718266
  Iterations, force evaluations = 505 1000

MPI task timing breakdown:
Section |  min time  |  avg time  |  max time  |%varavg| %total
---------------------------------------------------------------
Pair    | 0.45053    | 0.62994    | 0.78911    |  13.2 | 51.52
Bond    | 0.11702    | 0.15724    | 0.19071    |   4.6 | 12.86
Neigh   | 0.0092124  | 0.010488   | 0.011763   |   1.0 |  0.86
Comm    | 0.24506    | 0.40121    | 0.57462    |  16.8 | 32.82
Output  | 0          | 0          | 0          |   0.0 |  0.00
Modify  | 0          | 0          | 0          |   0.0 |  0.00
Other   |            | 0.02376    |            |       |  1.94

Nlocal:    76.125 ave 94 max 55 min
Histogram: 1 0 1 2 4 8 4 3 0 1
Nghost:    2060.04 ave 2226 max 1960 min
Histogram: 12 4 0 0 0 0 0 0 0 8
Neighs:    7633.88 ave 9927 max 4509 min
Histogram: 2 1 3 2 3 1 1 5 2 4

Total # of neighbors = 183213
Ave neighs/atom = 100.281
Ave special neighs/atom = 6.30542
Neighbor list builds = 15
Dangerous builds = 0
Neighbor list info ...
  update every 1 steps, delay 10 steps, check yes
  max neighbors/atom: 2000, page size: 100000
  master list distance cutoff = 16
  ghost atom cutoff = 16
  binsize = 8, bins = 6 6 6
  3 neighbor lists, perpetual/occasional/extra = 3 0 0
  (1) pair buck6d/coul/gauss/dsf, perpetual, skip from (3)
      attributes: half, newton on
      pair build: skip
      stencil: none
      bin: none
  (2) pair lj/cut, perpetual, skip from (3)
      attributes: half, newton on
      pair build: skip
      stencil: none
      bin: none
  (3) neighbor class addition, perpetual
      attributes: half, newton on
      pair build: half/bin/newton
      stencil: half/bin/3d/newton
      bin: standard
Setting up Verlet run ...
  Unit style    : real
  Current step  : 505
  Time step     : 1
WARNING: Inconsistent image flags (../domain.cpp:786)
Per MPI rank memory allocation (min/avg/max) = 22.52 | 22.68 | 23.3 Mbytes
Step Temp PotEng TotEng Press Volume Lx Ly Lz 
     505          110   -8119.4845    -7520.759    -310.9499     102002.7      46.7237      46.7237      46.7237 
    1000    97.348854   -7595.6319    -7065.766   -1022.7503     102002.7      46.7237      46.7237      46.7237 
    2000    106.48427   -7463.3867   -6883.7971   -760.57831     102002.7      46.7237      46.7237      46.7237 
    3000    106.11185   -7504.8812   -6927.3187   -955.16052     102002.7      46.7237      46.7237      46.7237 
    4000    111.57417   -7491.7957    -6884.502   -599.46328     102002.7      46.7237      46.7237      46.7237 
    5000    111.56972   -7515.0598   -6907.7904   -980.22681     102002.7      46.7237      46.7237      46.7237 
    6000    109.44892   -7505.7903   -6910.0643   -691.53306     102002.7      46.7237      46.7237      46.7237 
    7000    112.49386   -7485.5595     -6873.26   -600.83429     102002.7      46.7237      46.7237      46.7237 
    8000    111.04853   -7510.0383   -6905.6057   -838.47176     102002.7      46.7237      46.7237      46.7237 
    9000    106.72853   -7505.5942   -6924.6752   -629.71786     102002.7      46.7237      46.7237      46.7237 
   10000    109.85662   -7510.2317   -6912.2866   -541.02741     102002.7      46.7237      46.7237      46.7237 
   11000    112.09806   -7508.6446   -6898.4994   -530.85652     102002.7      46.7237      46.7237      46.7237 
   12000    108.39511   -7492.7514   -6902.7612   -506.18562     102002.7      46.7237      46.7237      46.7237 
   13000    109.04449   -7479.5253   -6886.0006   -789.76375     102002.7      46.7237      46.7237      46.7237 
   14000    110.33808   -7501.5677   -6901.0021   -474.16148     102002.7      46.7237      46.7237      46.7237 
   15000    110.82066   -7492.5406   -6889.3482   -796.86349     102002.7      46.7237      46.7237      46.7237 
   16000    109.27324   -7488.9055   -6894.1357    -734.4613     102002.7      46.7237      46.7237      46.7237 
   17000    111.11814   -7498.8756   -6894.0641   -865.58197     102002.7      46.7237      46.7237      46.7237 
   18000    110.66155   -7500.4863     -6898.16   -376.29873     102002.7      46.7237      46.7237      46.7237 
   19000    110.22081    -7502.381   -6902.4536   -843.05209     102002.7      46.7237      46.7237      46.7237 
   20000    109.61952   -7489.7755   -6893.1209   -792.98547     102002.7      46.7237      46.7237      46.7237 
   21000    108.47957   -7518.7372   -6928.2873   -912.74705     102002.7      46.7237      46.7237      46.7237 
   22000    107.40299   -7502.0747   -6917.4846   -670.10003     102002.7      46.7237      46.7237      46.7237 
   23000    112.34324    -7484.102   -6872.6223   -682.80972     102002.7      46.7237      46.7237      46.7237 
   24000    109.39426   -7515.6906   -6920.2621   -547.38757     102002.7      46.7237      46.7237      46.7237 
   25000    113.46679   -7516.4253   -6898.8302   -181.93276     102002.7      46.7237      46.7237      46.7237 
   26000    112.66026   -7499.8042    -6886.599   -505.28437     102002.7      46.7237      46.7237      46.7237 
   27000    108.14333   -7501.6148    -6912.995   -443.96294     102002.7      46.7237      46.7237      46.7237 
   28000    110.39474   -7505.2409   -6904.3668   -608.47041     102002.7      46.7237      46.7237      46.7237 
   29000    111.30176   -7482.3942   -6876.5833   -623.06818     102002.7      46.7237      46.7237      46.7237 
   30000    110.62809   -7499.5427   -6897.3986   -684.54135     102002.7      46.7237      46.7237      46.7237 
   31000    107.83164   -7484.5885   -6897.6653   -900.17874     102002.7      46.7237      46.7237      46.7237 
   32000    112.43835   -7490.9246   -6878.9272   -578.31842     102002.7      46.7237      46.7237      46.7237 
   33000    109.82025   -7506.7922   -6909.0451   -937.52835     102002.7      46.7237      46.7237      46.7237 
   34000    110.33764   -7493.6047   -6893.0414   -797.69941     102002.7      46.7237      46.7237      46.7237 
   35000      109.095   -7517.2079   -6923.4082   -644.45921     102002.7      46.7237      46.7237      46.7237 
   36000    107.28001   -7497.4637    -6913.543   -681.53005     102002.7      46.7237      46.7237      46.7237 
   37000    117.16684   -7491.6071   -6853.8728   -727.25136     102002.7      46.7237      46.7237      46.7237 
   38000     108.0088   -7483.4886   -6895.6011   -397.68806     102002.7      46.7237      46.7237      46.7237 
   39000    110.34184   -7491.6007   -6891.0145   -718.77863     102002.7      46.7237      46.7237      46.7237 
   40000    109.24949   -7490.0788   -6895.4382   -609.60904     102002.7      46.7237      46.7237      46.7237 
   41000    105.96591   -7495.8116   -6919.0436   -591.56451     102002.7      46.7237      46.7237      46.7237 
   42000    111.08109   -7499.4022   -6894.7924   -506.35831     102002.7      46.7237      46.7237      46.7237 
   43000    111.05636   -7516.1707   -6911.6955   -538.28369     102002.7      46.7237      46.7237      46.7237 
   44000    111.60266   -7483.7994   -6876.3507   -667.68978     102002.7      46.7237      46.7237      46.7237 
   45000    110.82568   -7498.8424   -6895.6228   -591.99664     102002.7      46.7237      46.7237      46.7237 
   46000    108.38243   -7507.9279   -6918.0068   -563.06605     102002.7      46.7237      46.7237      46.7237 
   47000    109.27815   -7492.0331   -6897.2366   -700.45088     102002.7      46.7237      46.7237      46.7237 
   48000    106.88039   -7490.9582   -6909.2126   -585.13277     102002.7      46.7237      46.7237      46.7237 
   49000    107.09773   -7503.5012   -6920.5726   -683.62636     102002.7      46.7237      46.7237      46.7237 
   50000    113.22989   -7500.7937   -6884.4881   -346.67568     102002.7      46.7237      46.7237      46.7237 
   51000    110.02209   -7503.8411   -6904.9954   -643.23883     102002.7      46.7237      46.7237      46.7237 
   52000     106.7605   -7497.5428   -6916.4498   -733.52204     102002.7      46.7237      46.7237      46.7237 
   53000    111.31731   -7495.7039   -6889.8083   -686.26041     102002.7      46.7237      46.7237      46.7237 
   54000    112.83229   -7488.0638   -6873.9223   -989.10178     102002.7      46.7237      46.7237      46.7237 
   55000     110.5115   -7516.2906    -6914.781   -796.02787     102002.7      46.7237      46.7237      46.7237 
   56000    117.16833   -7502.4575   -6864.7151   -519.59623     102002.7      46.7237      46.7237      46.7237 
   57000    108.29406   -7501.6355   -6912.1954   -887.40022     102002.7      46.7237      46.7237      46.7237 
   58000    108.42651   -7512.0738   -6921.9128   -1043.4385     102002.7      46.7237      46.7237      46.7237 
   59000    112.77984   -7497.8792   -6884.0231   -779.92839     102002.7      46.7237      46.7237      46.7237 
   60000    108.08738   -7519.0276   -6930.7124   -856.73097     102002.7      46.7237      46.7237      46.7237 
   61000    110.68415   -7491.6484   -6889.1991   -733.69383     102002.7      46.7237      46.7237      46.7237 
   62000    108.02837   -7517.4408   -6929.4468   -781.13042     102002.7      46.7237      46.7237      46.7237 
   63000    107.72943   -7489.7415   -6903.3747   -1110.2273     102002.7      46.7237      46.7237      46.7237 
   64000    114.43376   -7496.8959   -6874.0376   -758.83361     102002.7      46.7237      46.7237      46.7237 
   65000    111.51793   -7515.2733   -6908.2857   -638.17027     102002.7      46.7237      46.7237      46.7237 
   66000    105.74052   -7504.8609   -6929.3196   -511.51705     102002.7      46.7237      46.7237      46.7237 
   67000     108.5843   -7513.8607   -6922.8408   -863.24492     102002.7      46.7237      46.7237      46.7237 
   68000    109.76218   -7479.3872   -6881.9561   -701.23195     102002.7      46.7237      46.7237      46.7237 
   69000    107.72514   -7501.7982   -6915.4546   -694.91832     102002.7      46.7237      46.7237      46.7237 
   70000    107.97701   -7507.5593   -6919.8448   -934.54667     102002.7      46.7237      46.7237      46.7237 
   71000    112.95921   -7500.8733    -6886.041   -536.01571     102002.7      46.7237      46.7237      46.7237 
   72000    107.91887   -7492.6193   -6905.2213   -838.69726     102002.7      46.7237      46.7237      46.7237 
   73000    109.24198   -7488.3491   -6893.7495   -656.90452     102002.7      46.7237      46.7237      46.7237 
   74000    110.69646   -7519.7114    -6917.195   -1000.1642     102002.7      46.7237      46.7237      46.7237 
   75000    109.96016   -7503.1193   -6904.6106   -665.34323     102002.7      46.7237      46.7237      46.7237 
   76000    108.97872   -7474.9933   -6881.8266   -666.96782     102002.7      46.7237      46.7237      46.7237 
   77000     109.5469   -7508.5803    -6912.321   -723.75342     102002.7      46.7237      46.7237      46.7237 
   78000    112.95854   -7482.7103   -6867.8815   -655.21163     102002.7      46.7237      46.7237      46.7237 
   79000    109.46495   -7504.1007   -6908.2874   -543.41548     102002.7      46.7237      46.7237      46.7237 
   80000    108.12584   -7499.7116    -6911.187    -405.4002     102002.7      46.7237      46.7237      46.7237 
   81000    111.46456   -7485.1671     -6878.47   -991.19228     102002.7      46.7237      46.7237      46.7237 
   82000    111.86626   -7501.3962   -6892.5127   -713.44215     102002.7      46.7237      46.7237      46.7237 
   83000    105.78795   -7506.5007   -6930.7012   -532.23771     102002.7      46.7237      46.7237      46.7237 
   84000    108.98722   -7477.0631   -6883.8501   -761.99525     102002.7      46.7237      46.7237      46.7237 
   85000      108.286   -7506.0293    -6916.633   -770.02705     102002.7      46.7237      46.7237      46.7237 
   86000    108.42466    -7507.616    -6917.465   -977.25264     102002.7      46.7237      46.7237      46.7237 
   87000    108.96222   -7480.6575   -6887.5805   -860.67697     102002.7      46.7237      46.7237      46.7237 
   88000     106.1644   -7497.0037   -6919.1552   -950.58259     102002.7      46.7237      46.7237      46.7237 
   89000    109.51665   -7503.2536   -6907.1589   -921.39516     102002.7      46.7237      46.7237      46.7237 
   90000    111.37396   -7486.3533   -6880.1494   -849.95408     102002.7      46.7237      46.7237      46.7237 
   91000    111.80412   -7516.2295   -6907.6842   -699.62231     102002.7      46.7237      46.7237      46.7237 
   92000    114.66597   -7503.5726   -6879.4505   -714.09754     102002.7      46.7237      46.7237      46.7237 
   93000    110.72709   -7512.4111   -6909.7281   -918.40005     102002.7      46.7237      46.7237      46.7237 
   94000    110.73613   -7496.5764   -6893.8441   -445.65186     102002.7      46.7237      46.7237      46.7237 
   95000    111.15664   -7512.9958   -6907.9748   -761.44515     102002.7      46.7237      46.7237      46.7237 
   96000    110.94971    -7487.827   -6883.9323   -482.27508     102002.7      46.7237      46.7237      46.7237 
   97000    112.48742   -7496.6151   -6884.3507   -539.45092     102002.7      46.7237      46.7237      46.7237 
   98000    110.73139   -7496.4186   -6893.7122   -803.60163     102002.7      46.7237      46.7237      46.7237 
   99000    106.64277    -7517.534   -6937.0818   -442.98755     102002.7      46.7237      46.7237      46.7237 
  100000    104.94484   -7485.5106   -6914.3001   -642.55688     102002.7      46.7237      46.7237      46.7237 
  101000    111.34444   -7500.5905   -6894.5473   -812.41334     102002.7      46.7237      46.7237      46.7237 
  102000    109.13433   -7490.3573   -6896.3436   -885.14969     102002.7      46.7237      46.7237      46.7237 
  103000     108.0243   -7505.7763   -6917.8044    -821.9624     102002.7      46.7237      46.7237      46.7237 
  104000    112.65677   -7481.8762     -6868.69   -656.96533     102002.7      46.7237      46.7237      46.7237 
  105000    111.97057   -7505.5041   -6896.0529   -964.25915     102002.7      46.7237      46.7237      46.7237 
  106000    111.10735   -7492.0262   -6887.2735   -678.03076     102002.7      46.7237      46.7237      46.7237 
  107000    113.02563   -7498.9618   -6883.7679   -855.47293     102002.7      46.7237      46.7237      46.7237 
  108000    104.52624   -7485.0018   -6916.0697   -685.98598     102002.7      46.7237      46.7237      46.7237 
  109000    111.44801   -7508.7361   -6902.1291   -674.77757     102002.7      46.7237      46.7237      46.7237 
  110000    107.12312   -7502.2366   -6919.1699   -630.61753     102002.7      46.7237      46.7237      46.7237 
  111000    109.44372   -7514.4378   -6918.7402   -650.47153     102002.7      46.7237      46.7237      46.7237 
  112000    111.23014   -7492.4166   -6886.9954   -1060.1457     102002.7      46.7237      46.7237      46.7237 
  113000    110.14972   -7496.5935   -6897.0531   -871.50906     102002.7      46.7237      46.7237      46.7237 
  114000    110.54561   -7474.8327   -6873.1375   -515.73244     102002.7      46.7237      46.7237      46.7237 
  115000    111.03843   -7514.3793   -6910.0016    -711.0494     102002.7      46.7237      46.7237      46.7237 
  116000     108.6639   -7490.3798   -6898.9266   -544.05861     102002.7      46.7237      46.7237      46.7237 
  117000    109.73508   -7505.8627   -6908.5791   -726.85952     102002.7      46.7237      46.7237      46.7237 
  118000    112.38209   -7506.1398   -6894.4486   -593.71258     102002.7      46.7237      46.7237      46.7237 
  119000    112.19812   -7494.5511   -6883.8613   -968.97652     102002.7      46.7237      46.7237      46.7237 
  120000    109.26378   -7506.0246   -6911.3063   -619.42007     102002.7      46.7237      46.7237      46.7237 
  121000    108.63239   -7516.7768   -6925.4951   -948.27421     102002.7      46.7237      46.7237      46.7237 
  122000      109.651   -7513.7668   -6916.9408   -422.04475     102002.7      46.7237      46.7237      46.7237 
  123000    114.34375   -7505.4726   -6883.1042   -558.22187     102002.7      46.7237      46.7237      46.7237 
  124000    109.96027   -7496.2087   -6897.6994    -414.7981     102002.7      46.7237      46.7237      46.7237 
  125000    108.54261   -7480.7139   -6889.9209   -767.22451     102002.7      46.7237      46.7237      46.7237 
  126000    107.31049   -7489.8977   -6905.8111   -562.06266     102002.7      46.7237      46.7237      46.7237 
  127000    109.72501    -7494.597   -6897.3683   -548.51247     102002.7      46.7237      46.7237      46.7237 
  128000    109.94057   -7503.5638   -6905.1618   -885.61678     102002.7      46.7237      46.7237      46.7237 
  129000    113.00755   -7482.2516   -6867.1561   -571.22974     102002.7      46.7237      46.7237      46.7237 
  130000    112.08747    -7506.045   -6895.9575   -562.08787     102002.7      46.7237      46.7237      46.7237 
  131000    105.66823   -7523.6707   -6948.5228    -667.0156     102002.7      46.7237      46.7237      46.7237 
  132000    112.08169   -7495.7788   -6885.7227   -807.40108     102002.7      46.7237      46.7237      46.7237 
  133000    108.30334   -7485.5691   -6896.0785   -368.54006     102002.7      46.7237      46.7237      46.7237 
  134000    109.02828   -7495.0639   -6901.6275   -630.47541     102002.7      46.7237      46.7237      46.7237 
  135000      109.372   -7520.4632   -6925.1559   -524.65387     102002.7      46.7237      46.7237      46.7237 
  136000    107.69803   -7489.8802   -6903.6842   -570.95537     102002.7      46.7237      46.7237      46.7237 
  137000    112.49843   -7505.4912   -6893.1669   -944.00949     102002.7      46.7237      46.7237      46.7237 
  138000    108.99031   -7527.2392   -6934.0093   -546.24358     102002.7      46.7237      46.7237      46.7237 
  139000     111.2032   -7489.9473   -6884.6728   -719.18827     102002.7      46.7237      46.7237      46.7237 
  140000    110.42955   -7489.4325    -6888.369    -523.2942     102002.7      46.7237      46.7237      46.7237 
  141000     111.2283   -7486.3884   -6880.9773   -725.58852     102002.7      46.7237      46.7237      46.7237 
  142000    111.96283    -7490.409   -6880.9999   -925.91939     102002.7      46.7237      46.7237      46.7237 
  143000    110.06824   -7489.5562   -6890.4593    -697.8179     102002.7      46.7237      46.7237      46.7237 
  144000    106.89179   -7506.9444   -6925.1368   -714.18458     102002.7      46.7237      46.7237      46.7237 
  145000    110.83664    -7515.499   -6912.2197   -920.08102     102002.7      46.7237      46.7237      46.7237 
  146000    112.79032   -7501.9565   -6888.0434   -1008.9429     102002.7      46.7237      46.7237      46.7237 
  147000    109.59722    -7481.015   -6884.4818   -818.40418     102002.7      46.7237      46.7237      46.7237 
  148000    111.74504   -7475.7751   -6867.5514   -581.78962     102002.7      46.7237      46.7237      46.7237 
  149000    112.90128   -7512.4883   -6897.9713   -755.57871     102002.7      46.7237      46.7237      46.7237 
  150000    112.16028   -7503.3998    -6892.916   -828.27123     102002.7      46.7237      46.7237      46.7237 
  151000    107.88815   -7495.7952   -6908.5644   -718.44211     102002.7      46.7237      46.7237      46.7237 
  152000    111.44073   -7471.9239   -6865.3566   -1000.9777     102002.7      46.7237      46.7237      46.7237 
  153000     110.7566   -7492.2143   -6889.3706   -903.60698     102002.7      46.7237      46.7237      46.7237 
  154000    106.75489   -7494.4505    -6913.388   -919.57802     102002.7      46.7237      46.7237      46.7237 
  155000    111.06369   -7495.8913   -6891.3762   -809.64523     102002.7      46.7237      46.7237      46.7237 
  156000    111.79513   -7490.1457   -6881.6494   -1024.9604     102002.7      46.7237      46.7237      46.7237 
  157000    110.99484   -7511.5757   -6907.4353   -710.79866     102002.7      46.7237      46.7237      46.7237 
  158000    107.71923   -7486.7113      -6900.4   -1053.7442     102002.7      46.7237      46.7237      46.7237 
  159000    110.43325   -7487.5737     -6886.49   -786.33798     102002.7      46.7237      46.7237      46.7237 
  160000      108.861   -7499.1221   -6906.5962   -936.01116     102002.7      46.7237      46.7237      46.7237 
  161000     109.4229   -7495.9869   -6900.4025   -570.33588     102002.7      46.7237      46.7237      46.7237 
  162000    111.45745   -7477.6321   -6870.9737   -790.33294     102002.7      46.7237      46.7237      46.7237 
  163000     113.2051   -7493.6929   -6877.5222   -921.09503     102002.7      46.7237      46.7237      46.7237 
  164000    108.85685   -7486.0569   -6893.5535   -948.79038     102002.7      46.7237      46.7237      46.7237 
  165000    107.61889   -7518.8657   -6933.1005   -899.19397     102002.7      46.7237      46.7237      46.7237 
  166000    107.48038    -7499.448   -6914.4367   -1098.6545     102002.7      46.7237      46.7237      46.7237 
  167000    112.72845   -7492.3611   -6878.7847   -731.45416     102002.7      46.7237      46.7237      46.7237 
  168000    109.12348   -7507.9495   -6913.9948   -876.39328     102002.7      46.7237      46.7237      46.7237 
  169000    108.71868   -7484.3104   -6892.5591   -1000.1086     102002.7      46.7237      46.7237      46.7237 
  170000    109.65235   -7472.4048   -6875.5715   -762.90881     102002.7      46.7237      46.7237      46.7237 
  171000    111.86909   -7498.5781   -6889.6792   -763.14457     102002.7      46.7237      46.7237      46.7237 
  172000    109.97794   -7520.1318   -6921.5264   -863.49368     102002.7      46.7237      46.7237      46.7237 
  173000    110.33335   -7491.5557   -6891.0158   -749.11421     102002.7      46.7237      46.7237      46.7237 
  174000    110.13397   -7519.7998   -6920.3451   -585.84438     102002.7      46.7237      46.7237      46.7237 
  175000    106.30482   -7474.9619   -6896.3491   -651.52568     102002.7      46.7237      46.7237      46.7237 
  176000    107.99835   -7485.9688   -6898.1382   -792.27377     102002.7      46.7237      46.7237      46.7237 
  177000    108.01745   -7499.3363   -6911.4017    -820.4599     102002.7      46.7237      46.7237      46.7237 
  178000    112.79455   -7506.4459   -6892.5098   -772.72456     102002.7      46.7237      46.7237      46.7237 
  179000    112.21066    -7510.322   -6899.5639   -681.35171     102002.7      46.7237      46.7237      46.7237 
  180000     107.2193   -7496.5414   -6912.9511   -742.70365     102002.7      46.7237      46.7237      46.7237 
  181000    110.69839   -7486.0594   -6883.5325   -547.04521     102002.7      46.7237      46.7237      46.7237 
  182000     110.4122   -7513.6304   -6912.6614   -861.61745     102002.7      46.7237      46.7237      46.7237 
  183000    109.24353   -7493.3776   -6898.7695   -931.37889     102002.7      46.7237      46.7237      46.7237 
  184000    109.34106   -7491.6347   -6896.4958   -657.00107     102002.7      46.7237      46.7237      46.7237 
  185000     108.1412   -7506.5696   -6917.9615   -937.99953     102002.7      46.7237      46.7237      46.7237 
  186000    111.30516   -7491.1732   -6885.3438    -714.9992     102002.7      46.7237      46.7237      46.7237 
  187000    106.90404   -7507.3004   -6925.4261   -649.73661     102002.7      46.7237      46.7237      46.7237 
  188000    112.45483   -7525.8522   -6913.7651     -946.483     102002.7      46.7237      46.7237      46.7237 
  189000    107.51161   -7495.6521   -6910.4708   -466.03595     102002.7      46.7237      46.7237      46.7237 
  190000    107.05191   -7521.6662    -6938.987   -718.89851     102002.7      46.7237      46.7237      46.7237 
  191000    111.02803   -7503.7615   -6899.4405   -669.74454     102002.7      46.7237      46.7237      46.7237 
  192000    107.37604    -7500.444   -6916.0006   -591.09775     102002.7      46.7237      46.7237      46.7237 
  193000     111.8555   -7503.2647   -6894.4397   -757.72606     102002.7      46.7237      46.7237      46.7237 
  194000    109.98476   -7495.8696    -6897.227   -657.08407     102002.7      46.7237      46.7237      46.7237 
  195000    110.22283   -7508.3933   -6908.4549   -579.09067     102002.7      46.7237      46.7237      46.7237 
  196000    112.15391   -7498.3205   -6887.8713   -668.20883     102002.7      46.7237      46.7237      46.7237 
  197000    109.61782    -7493.366   -6896.7207    -726.3816     102002.7      46.7237      46.7237      46.7237 
  198000    111.89475   -7508.3321   -6899.2935   -429.78357     102002.7      46.7237      46.7237      46.7237 
  199000    108.42463   -7509.4753   -6919.3244   -655.54232     102002.7      46.7237      46.7237      46.7237 
  200000    110.55563    -7488.515   -6886.7652   -717.46723     102002.7      46.7237      46.7237      46.7237 
  201000    112.76534   -7508.8599   -6895.0828   -441.75421     102002.7      46.7237      46.7237      46.7237 
  202000    111.85888   -7503.2092   -6894.3659    -641.8676     102002.7      46.7237      46.7237      46.7237 
  203000    111.71849   -7502.4223   -6894.3431   -554.23006     102002.7      46.7237      46.7237      46.7237 
  204000     108.3717   -7522.5797   -6932.7169   -628.13551     102002.7      46.7237      46.7237      46.7237 
  205000    110.09231   -7501.6196   -6902.3916   -660.23286     102002.7      46.7237      46.7237      46.7237 
  206000    112.68589   -7512.2973   -6898.9526   -719.22504     102002.7      46.7237      46.7237      46.7237 
  207000     111.9741   -7497.4718   -6888.0014   -593.14785     102002.7      46.7237      46.7237      46.7237 
  208000    109.60273    -7481.703   -6885.1398   -643.29951     102002.7      46.7237      46.7237      46.7237 
  209000    112.38832   -7524.3462   -6912.6212   -821.88341     102002.7      46.7237      46.7237      46.7237 
  210000     104.7209   -7495.4418   -6925.4502   -581.11503     102002.7      46.7237      46.7237      46.7237 
  211000    109.44616   -7489.9959   -6894.2849   -799.43818     102002.7      46.7237      46.7237      46.7237 
  212000    108.05853   -7481.8387   -6893.6805    -571.2797     102002.7      46.7237      46.7237      46.7237 
  213000    108.64269   -7491.2854   -6899.9477   -621.67449     102002.7      46.7237      46.7237      46.7237 
  214000    111.79548   -7512.2561   -6903.7579   -718.62927     102002.7      46.7237      46.7237      46.7237 
  215000    108.94139   -7484.9109   -6891.9474   -452.23925     102002.7      46.7237      46.7237      46.7237 
  216000    110.72676   -7502.1697   -6899.4885   -820.41455     102002.7      46.7237      46.7237      46.7237 
  217000    106.01257   -7497.1661    -6920.144   -468.40364     102002.7      46.7237      46.7237      46.7237 
  218000    113.10541   -7502.0016   -6886.3735   -630.10598     102002.7      46.7237      46.7237      46.7237 
  219000    111.54844   -7495.7378   -6888.5842   -677.25763     102002.7      46.7237      46.7237      46.7237 
  220000    106.41709   -7503.5693   -6924.3454   -570.43081     102002.7      46.7237      46.7237      46.7237 
  221000     107.9256   -7485.8978   -6898.4632   -795.34173     102002.7      46.7237      46.7237      46.7237 
  222000    110.41662   -7502.4406   -6901.4474    -923.1736     102002.7      46.7237      46.7237      46.7237 
  223000    109.61049   -7510.4735   -6913.8681   -577.97597     102002.7      46.7237      46.7237      46.7237 
  224000    104.90178   -7503.1607   -6932.1846   -762.46169     102002.7      46.7237      46.7237      46.7237 
  225000    111.69791   -7507.6686   -6899.7014   -610.48123     102002.7      46.7237      46.7237      46.7237 
  226000    110.24671   -7499.6054    -6899.537   -649.58714     102002.7      46.7237      46.7237      46.7237 
  227000    108.52724   -7512.6407   -6921.9314   -585.95428     102002.7      46.7237      46.7237      46.7237 
  228000    111.33995   -7497.0529   -6891.0341   -716.62529     102002.7      46.7237      46.7237      46.7237 
  229000    107.11138   -7488.7289   -6905.7261   -844.81951     102002.7      46.7237      46.7237      46.7237 
  230000    107.76452   -7505.2708   -6918.7129    -790.9754     102002.7      46.7237      46.7237      46.7237 
  231000    111.19628   -7493.6141   -6888.3773   -460.29614     102002.7      46.7237      46.7237      46.7237 
  232000    111.66543   -7491.9516   -6884.1612   -783.98238     102002.7      46.7237      46.7237      46.7237 
  233000    108.16428   -7482.5918    -6893.858   -834.73333     102002.7      46.7237      46.7237      46.7237 
  234000    107.55936    -7491.384   -6905.9428    -850.3403     102002.7      46.7237      46.7237      46.7237 
  235000      109.554   -7492.5455   -6896.2475   -870.64958     102002.7      46.7237      46.7237      46.7237 
  236000     110.7204   -7492.3954   -6889.7488   -573.21658     102002.7      46.7237      46.7237      46.7237 
  237000    108.79706    -7514.951   -6922.7731   -786.01709     102002.7      46.7237      46.7237      46.7237 
  238000    112.05627   -7492.6702   -6882.7525   -558.84282     102002.7      46.7237      46.7237      46.7237 
  239000     108.8104   -7497.9957   -6905.7452   -540.82246     102002.7      46.7237      46.7237      46.7237 
  240000    111.86142   -7495.6343   -6886.7772   -781.34002     102002.7      46.7237      46.7237      46.7237 
  241000     108.9097    -7498.289   -6905.4979   -696.58548     102002.7      46.7237      46.7237      46.7237 
  242000    113.03729    -7481.044   -6865.7866   -817.06264     102002.7      46.7237      46.7237      46.7237 
  243000    110.39632   -7511.3498   -6910.4671   -930.18939     102002.7      46.7237      46.7237      46.7237 
  244000    111.74619   -7511.2072   -6902.9773   -694.63369     102002.7      46.7237      46.7237      46.7237 
  245000    109.84075   -7486.1526    -6888.294   -869.07019     102002.7      46.7237      46.7237      46.7237 
  246000    107.48065   -7511.6128      -6926.6   -746.10682     102002.7      46.7237      46.7237      46.7237 
  247000    111.63816   -7507.5857   -6899.9438   -780.30788     102002.7      46.7237      46.7237      46.7237 
  248000    111.04804   -7506.5706   -6902.1407   -659.50118     102002.7      46.7237      46.7237      46.7237 
  249000    106.46981   -7526.9244   -6947.4136   -610.56407     102002.7      46.7237      46.7237      46.7237 
  250000    114.38204   -7499.7433   -6877.1665   -532.03516     102002.7      46.7237      46.7237      46.7237 
  251000    108.91361   -7509.4917   -6916.6793   -896.04617     102002.7      46.7237      46.7237      46.7237 
  252000    110.56403   -7503.9654   -6902.1699   -630.10876     102002.7      46.7237      46.7237      46.7237 
  253000    109.92826   -7490.0492   -6891.7142   -567.73018     102002.7      46.7237      46.7237      46.7237 
  254000    110.86137   -7512.1772   -6908.7633   -796.44422     102002.7      46.7237      46.7237      46.7237 
  255000    109.76201   -7503.3021    -6905.872   -644.70026     102002.7      46.7237      46.7237      46.7237 
  256000    111.78931     -7469.71   -6861.2454   -789.37114     102002.7      46.7237      46.7237      46.7237 
  257000    106.59342   -7490.1289   -6909.9452   -395.27332     102002.7      46.7237      46.7237      46.7237 
  258000    107.50497   -7493.0363   -6907.8911   -697.06227     102002.7      46.7237      46.7237      46.7237 
  259000    111.12103    -7485.938   -6881.1108   -879.21453     102002.7      46.7237      46.7237      46.7237 
  260000    112.62075     -7510.89   -6897.8998   -538.55986     102002.7      46.7237      46.7237      46.7237 
  261000    111.24441   -7503.8803   -6898.3815   -681.76938     102002.7      46.7237      46.7237      46.7237 
  262000    112.71232   -7509.3044   -6895.8159   -851.20327     102002.7      46.7237      46.7237      46.7237 
  263000    111.65265   -7476.6949    -6868.974   -984.06895     102002.7      46.7237      46.7237      46.7237 
  264000    112.55096    -7496.574   -6883.9638   -618.39502     102002.7      46.7237      46.7237      46.7237 
  265000    110.74089   -7491.3278   -6888.5697   -675.72373     102002.7      46.7237      46.7237      46.7237 
  266000    111.12281    -7495.743   -6890.9061   -736.96009     102002.7      46.7237      46.7237      46.7237 
  267000    108.75182   -7502.8908   -6910.9591   -665.72806     102002.7      46.7237      46.7237      46.7237 
  268000     110.4448   -7488.8449   -6887.6983    -681.7259     102002.7      46.7237      46.7237      46.7237 
  269000    111.40802   -7489.3476   -6882.9583   -862.10255     102002.7      46.7237      46.7237      46.7237 
  270000    108.97059   -7502.9565    -6909.834   -935.70526     102002.7      46.7237      46.7237      46.7237 
  271000    111.58725   -7510.8489    -6903.484   -826.76652     102002.7      46.7237      46.7237      46.7237 
  272000    113.51631   -7503.0703   -6885.2057   -783.91887     102002.7      46.7237      46.7237      46.7237 
  273000    111.61612   -7507.1192   -6899.5972   -643.17882     102002.7      46.7237      46.7237      46.7237 
  274000    108.80744    -7525.338   -6933.1035   -815.49314     102002.7      46.7237      46.7237      46.7237 
  275000    111.09844   -7502.1274   -6897.4231   -739.17584     102002.7      46.7237      46.7237      46.7237 
  276000    106.08816   -7496.8081   -6919.3746   -770.38736     102002.7      46.7237      46.7237      46.7237 
  277000     112.8983   -7492.5527   -6878.0519   -792.26642     102002.7      46.7237      46.7237      46.7237 
  278000    111.98259   -7509.3121   -6899.7954   -630.78969     102002.7      46.7237      46.7237      46.7237 
  279000    110.62824   -7509.0869   -6906.9419   -447.83412     102002.7      46.7237      46.7237      46.7237 
  280000    109.71444   -7499.8393   -6902.6681    -729.1207     102002.7      46.7237      46.7237      46.7237 
  281000    110.52655   -7512.0707   -6910.4792   -498.48941     102002.7      46.7237      46.7237      46.7237 
  282000    112.12689   -7498.3234   -6888.0214   -768.89282     102002.7      46.7237      46.7237      46.7237 
  283000    108.61012   -7500.4742   -6909.3138   -808.10875     102002.7      46.7237      46.7237      46.7237 
  284000    106.56975    -7475.518   -6895.4633    -659.3878     102002.7      46.7237      46.7237      46.7237 
  285000    108.15512   -7516.5492   -6927.8652   -643.38646     102002.7      46.7237      46.7237      46.7237 
  286000    111.57576    -7488.982   -6881.6797   -666.61752     102002.7      46.7237      46.7237      46.7237 
  287000    109.33032   -7491.5405   -6896.4601   -773.50713     102002.7      46.7237      46.7237      46.7237 
  288000    109.59767   -7489.7462   -6893.2105   -758.92716     102002.7      46.7237      46.7237      46.7237 
  289000    109.18256   -7496.2257   -6901.9495   -903.86277     102002.7      46.7237      46.7237      46.7237 
  290000    112.90181   -7502.2731   -6887.7532   -921.40362     102002.7      46.7237      46.7237      46.7237 
  291000    111.28423   -7494.3585    -6888.643   -809.69244     102002.7      46.7237      46.7237      46.7237 
  292000    109.22711   -7502.7675   -6908.2488    -723.5434     102002.7      46.7237      46.7237      46.7237 
  293000    111.85943   -7495.5121   -6886.6657   -778.90555     102002.7      46.7237      46.7237      46.7237 
  294000    108.19045   -7510.5761   -6921.6999   -837.71252     102002.7      46.7237      46.7237      46.7237 
  295000    113.22916   -7500.9697    -6884.668   -522.26237     102002.7      46.7237      46.7237      46.7237 
  296000    112.15046   -7484.2231   -6873.7928   -648.78958     102002.7      46.7237      46.7237      46.7237 
  297000    107.11026   -7482.1167   -6899.1199   -620.23739     102002.7      46.7237      46.7237      46.7237 
  298000    109.15309   -7513.0426   -6918.9268   -743.20553     102002.7      46.7237      46.7237      46.7237 
  299000    110.77461   -7496.1565   -6893.2148   -847.49327     102002.7      46.7237      46.7237      46.7237 
  300000    108.82332   -7514.5734   -6922.2525   -612.60673     102002.7      46.7237      46.7237      46.7237 
  301000    107.98221   -7476.7025   -6888.9597    -804.3483     102002.7      46.7237      46.7237      46.7237 
  302000    112.02962   -7466.9639   -6857.1912   -1051.5378     102002.7      46.7237      46.7237      46.7237 
  303000    109.56086   -7484.0574   -6887.7221   -1040.1857     102002.7      46.7237      46.7237      46.7237 
  304000       106.61   -7496.5264   -6916.2526   -581.25626     102002.7      46.7237      46.7237      46.7237 
  305000    109.92936   -7499.7448   -6901.4038   -793.81892     102002.7      46.7237      46.7237      46.7237 
  306000    113.07818   -7495.4719    -6879.992    -902.5638     102002.7      46.7237      46.7237      46.7237 
  307000    108.02893   -7504.1389   -6916.1419   -695.53142     102002.7      46.7237      46.7237      46.7237 
  308000    109.51995   -7499.2056    -6903.093   -714.26421     102002.7      46.7237      46.7237      46.7237 
  309000    106.49366   -7506.2146    -6926.574   -792.93739     102002.7      46.7237      46.7237      46.7237 
  310000    112.56448   -7494.7216   -6882.0378   -674.54839     102002.7      46.7237      46.7237      46.7237 
  311000    110.89954    -7500.893   -6897.2713   -541.55491     102002.7      46.7237      46.7237      46.7237 
  312000    109.71383   -7514.3284   -6917.1605   -621.45597     102002.7      46.7237      46.7237      46.7237 
  313000    113.14438   -7498.9047   -6883.0644   -605.60839     102002.7      46.7237      46.7237      46.7237 
  314000    110.47939    -7482.009   -6880.6742   -642.43904     102002.7      46.7237      46.7237      46.7237 
  315000    110.44485   -7510.6348    -6909.488   -755.53453     102002.7      46.7237      46.7237      46.7237 
  316000    109.15914   -7488.1868   -6894.0381   -746.43732     102002.7      46.7237      46.7237      46.7237 
  317000    110.76753   -7491.1061   -6888.2029    -843.3489     102002.7      46.7237      46.7237      46.7237 
  318000    107.87759   -7498.0554    -6910.882   -995.33677     102002.7      46.7237      46.7237      46.7237 
  319000    112.88814     -7476.43   -6861.9845   -960.15685     102002.7      46.7237      46.7237      46.7237 
  320000    107.59299   -7494.6792   -6909.0549   -854.97343     102002.7      46.7237      46.7237      46.7237 
  321000    107.20598   -7503.5348    -6920.017   -767.19888     102002.7      46.7237      46.7237      46.7237 
  322000    110.29532   -7485.7095   -6885.3766   -749.74212     102002.7      46.7237      46.7237      46.7237 
  323000    109.52272   -7516.4445   -6920.3168   -720.20303     102002.7      46.7237      46.7237      46.7237 
  324000    109.87955   -7499.9389    -6901.869   -702.97274     102002.7      46.7237      46.7237      46.7237 
  325000    107.16899   -7496.0887   -6912.7723   -900.63275     102002.7      46.7237      46.7237      46.7237 
  326000    111.09993   -7497.5536   -6892.8412   -906.48168     102002.7      46.7237      46.7237      46.7237 
  327000    112.07764   -7490.2407   -6880.2067   -913.75343     102002.7      46.7237      46.7237      46.7237 
  328000    108.95384   -7505.4644   -6912.4331   -684.97891     102002.7      46.7237      46.7237      46.7237 
  329000    113.29717   -7509.1759   -6892.5041   -833.26467     102002.7      46.7237      46.7237      46.7237 
  330000    113.37694   -7493.7719   -6876.6659   -893.27685     102002.7      46.7237      46.7237      46.7237 
  331000     109.2266   -7486.9172   -6892.4013   -885.90085     102002.7      46.7237      46.7237      46.7237 
  332000     109.6239    -7498.508   -6901.8296   -859.89369     102002.7      46.7237      46.7237      46.7237 
  333000    110.67197   -7495.2065   -6892.8235   -997.26189     102002.7      46.7237      46.7237      46.7237 
  334000    109.61086   -7504.1553   -6907.5479   -1228.2247     102002.7      46.7237      46.7237      46.7237 
  335000    109.43652   -7487.1085   -6891.4501   -831.53647     102002.7      46.7237      46.7237      46.7237 
  336000    110.40843   -7480.9994   -6880.0508   -954.21277     102002.7      46.7237      46.7237      46.7237 
  337000    107.17208   -7496.4489   -6913.1157   -774.45466     102002.7      46.7237      46.7237      46.7237 
  338000    104.66142   -7504.4452   -6934.7774   -810.54599     102002.7      46.7237      46.7237      46.7237 
  339000     112.8412   -7497.2207   -6883.0307   -710.40763     102002.7      46.7237      46.7237      46.7237 
  340000    107.69628   -7497.9715   -6911.7851   -1021.2187     102002.7      46.7237      46.7237      46.7237 
  341000     111.5406    -7520.066   -6912.9551    -729.1124     102002.7      46.7237      46.7237      46.7237 
  342000    113.45071   -7510.3635    -6892.856   -765.49814     102002.7      46.7237      46.7237      46.7237 
  343000    111.50844    -7504.713   -6897.7771    -655.8887     102002.7      46.7237      46.7237      46.7237 
  344000    107.57935   -7496.6073   -6911.0573   -839.14595     102002.7      46.7237      46.7237      46.7237 
  345000    108.62768   -7477.0053   -6885.7493   -879.05573     102002.7      46.7237      46.7237      46.7237 
  346000    107.44276   -7505.4398   -6920.6333   -814.70034     102002.7      46.7237      46.7237      46.7237 
  347000    109.38304   -7495.7357   -6900.3683   -660.96507     102002.7      46.7237      46.7237      46.7237 
  348000    113.42305   -7489.7565   -6872.3995   -278.66407     102002.7      46.7237      46.7237      46.7237 
  349000    108.87564   -7485.1409   -6892.5352    -673.3537     102002.7      46.7237      46.7237      46.7237 
  350000    108.28532   -7492.1916    -6902.799   -670.94148     102002.7      46.7237      46.7237      46.7237 
  351000    111.28707   -7507.8519   -6902.1209   -757.49892     102002.7      46.7237      46.7237      46.7237 
  352000    109.10032   -7484.1386     -6890.31   -586.85718     102002.7      46.7237      46.7237      46.7237 
  353000    108.36779   -7508.2166   -6918.3751   -797.36954     102002.7      46.7237      46.7237      46.7237 
  354000    110.75875   -7497.9202   -6895.0648   -540.03949     102002.7      46.7237      46.7237      46.7237 
  355000    110.28955   -7500.5083   -6900.2068   -354.01823     102002.7      46.7237      46.7237      46.7237 
  356000    110.54833   -7500.8542   -6899.1442   -624.44418     102002.7      46.7237      46.7237      46.7237 
  357000    109.08533   -7509.1854   -6915.4385   -465.39455     102002.7      46.7237      46.7237      46.7237 
  358000    111.31991   -7490.2013   -6884.2916   -903.83452     102002.7      46.7237      46.7237      46.7237 
  359000     108.7429   -7519.5585   -6927.6754   -695.21448     102002.7      46.7237      46.7237      46.7237 
  360000    109.10316   -7484.1137   -6890.2696   -727.03608     102002.7      46.7237      46.7237      46.7237 
  361000    109.78269   -7509.6136   -6912.0709     -745.407     102002.7      46.7237      46.7237      46.7237 
  362000    113.09443   -7502.0976   -6886.5293   -730.18238     102002.7      46.7237      46.7237      46.7237 
  363000    111.57699   -7481.2536   -6873.9446   -997.79255     102002.7      46.7237      46.7237      46.7237 
  364000    109.67981    -7485.325   -6888.3423   -1104.4345     102002.7      46.7237      46.7237      46.7237 
  365000    106.58322   -7509.2554   -6929.1273   -868.84605     102002.7      46.7237      46.7237      46.7237 
  366000    110.90208   -7503.3045    -6899.669   -761.37985     102002.7      46.7237      46.7237      46.7237 
  367000    108.13448   -7503.9022   -6915.3306   -736.60591     102002.7      46.7237      46.7237      46.7237 
  368000    114.21358   -7514.2788   -6892.6189   -661.04167     102002.7      46.7237      46.7237      46.7237 
  369000    107.33509   -7517.1344   -6932.9139   -561.21004     102002.7      46.7237      46.7237      46.7237 
  370000    108.76399    -7499.847    -6907.849   -530.53184     102002.7      46.7237      46.7237      46.7237 
  371000    109.40772   -7511.6658   -6916.1641   -542.74096     102002.7      46.7237      46.7237      46.7237 
  372000     109.3218   -7479.0807   -6884.0466   -512.17171     102002.7      46.7237      46.7237      46.7237 
  373000      113.208   -7519.8072   -6903.6207    -516.2703     102002.7      46.7237      46.7237      46.7237 
  374000    111.29849   -7478.8076   -6873.0145   -586.41561     102002.7      46.7237      46.7237      46.7237 
  375000    108.15856    -7508.314   -6919.6114   -772.85725     102002.7      46.7237      46.7237      46.7237 
  376000    110.49416   -7497.9796   -6896.5644    -752.1747     102002.7      46.7237      46.7237      46.7237 
  377000    112.23292   -7511.9544   -6901.0752   -709.36294     102002.7      46.7237      46.7237      46.7237 
  378000     109.6634   -7477.5063    -6880.613   -814.77623     102002.7      46.7237      46.7237      46.7237 
  379000    110.46531   -7508.8641    -6907.606   -699.98309     102002.7      46.7237      46.7237      46.7237 
  380000    111.82327   -7492.6173   -6883.9678    -801.1947     102002.7      46.7237      46.7237      46.7237 
  381000    107.31908   -7487.5211   -6903.3877   -614.22585     102002.7      46.7237      46.7237      46.7237 
  382000    110.07238   -7497.4315    -6898.312   -834.28146     102002.7      46.7237      46.7237      46.7237 
  383000    109.19513   -7510.9782   -6916.6336   -652.09614     102002.7      46.7237      46.7237      46.7237 
  384000    110.51313   -7498.8505    -6897.332    -777.1163     102002.7      46.7237      46.7237      46.7237 
  385000    111.48862   -7522.1719   -6915.3439   -528.43409     102002.7      46.7237      46.7237      46.7237 
  386000    112.36075   -7504.8693   -6893.2943   -953.43785     102002.7      46.7237      46.7237      46.7237 
  387000    113.58947   -7481.8874   -6863.6245   -774.58534     102002.7      46.7237      46.7237      46.7237 
  388000    109.53044   -7501.0593   -6904.8896   -519.10949     102002.7      46.7237      46.7237      46.7237 
  389000    114.06526   -7499.7901   -6878.9375   -566.08614     102002.7      46.7237      46.7237      46.7237 
  390000    108.49769   -7494.3625   -6903.8141   -815.02337     102002.7      46.7237      46.7237      46.7237 
  391000    114.05806   -7506.9237   -6886.1103   -596.02878     102002.7      46.7237      46.7237      46.7237 
  392000    107.13493   -7514.7126   -6931.5816   -782.87664     102002.7      46.7237      46.7237      46.7237 
  393000    110.93333   -7494.8768   -6891.0712   -792.29638     102002.7      46.7237      46.7237      46.7237 
  394000    111.10721   -7486.5702   -6881.8182   -611.43271     102002.7      46.7237      46.7237      46.7237 
  395000    109.83671   -7503.1765   -6905.3398   -519.36034     102002.7      46.7237      46.7237      46.7237 
  396000    113.65711   -7489.8538   -6871.2228   -654.90631     102002.7      46.7237      46.7237      46.7237 
  397000    111.41106   -7508.7574   -6902.3516   -538.08217     102002.7      46.7237      46.7237      46.7237 
  398000    109.80799   -7502.2549   -6904.5745   -892.24353     102002.7      46.7237      46.7237      46.7237 
  399000    112.43204   -7485.4403   -6873.4773   -972.60019     102002.7      46.7237      46.7237      46.7237 
  400000     108.5738   -7509.1023   -6918.1396   -866.79166     102002.7      46.7237      46.7237      46.7237 
  401000    108.09921    -7499.721   -6911.3414    -908.0371     102002.7      46.7237      46.7237      46.7237 
  402000    108.39732   -7521.8853   -6931.8832   -769.46154     102002.7      46.7237      46.7237      46.7237 
  403000    108.88565    -7504.947   -6912.2869   -710.81486     102002.7      46.7237      46.7237      46.7237 
  404000    110.15165   -7508.6599   -6909.1089   -621.63968     102002.7      46.7237      46.7237      46.7237 
  405000     109.7978   -7494.8469    -6897.222   -398.50382     102002.7      46.7237      46.7237      46.7237 
  406000    109.54802   -7497.2558   -6900.9904   -747.20477     102002.7      46.7237      46.7237      46.7237 
  407000    104.83412   -7493.8168    -6923.209   -768.19279     102002.7      46.7237      46.7237      46.7237 
  408000    110.44335   -7489.4643   -6888.3257   -652.06602     102002.7      46.7237      46.7237      46.7237 
  409000    112.54374    -7486.648    -6874.077   -720.92557     102002.7      46.7237      46.7237      46.7237 
  410000    109.92367   -7517.1623   -6918.8523   -776.05719     102002.7      46.7237      46.7237      46.7237 
  411000    109.23859   -7492.0614   -6897.4802   -616.05458     102002.7      46.7237      46.7237      46.7237 
  412000       112.67   -7506.2447   -6892.9865   -434.64035     102002.7      46.7237      46.7237      46.7237 
  413000    107.40749    -7501.786   -6917.1715   -627.09896     102002.7      46.7237      46.7237      46.7237 
  414000    107.55826   -7491.5434   -6906.1082   -759.44425     102002.7      46.7237      46.7237      46.7237 
  415000    113.57575   -7493.4577   -6875.2696   -643.30812     102002.7      46.7237      46.7237      46.7237 
  416000    110.89186   -7496.8969    -6893.317   -801.37282     102002.7      46.7237      46.7237      46.7237 
  417000    108.48732   -7491.2338   -6900.7417    -624.5722     102002.7      46.7237      46.7237      46.7237 
  418000    111.71651   -7510.7891   -6902.7207   -743.68438     102002.7      46.7237      46.7237      46.7237 
  419000    111.62178   -7502.8556   -6895.3029   -605.76856     102002.7      46.7237      46.7237      46.7237 
  420000    108.97318   -7511.4508   -6918.3142   -534.84578     102002.7      46.7237      46.7237      46.7237 
  421000    105.44778   -7501.6871   -6927.7392   -811.64109     102002.7      46.7237      46.7237      46.7237 
  422000    110.19285   -7492.3478   -6892.5726    -518.8434     102002.7      46.7237      46.7237      46.7237 
  423000    110.16575   -7496.1256   -6896.4979   -553.73638     102002.7      46.7237      46.7237      46.7237 
  424000    108.70132   -7500.8803   -6909.2234   -757.84289     102002.7      46.7237      46.7237      46.7237 
  425000    110.35711    -7506.184   -6905.5147   -796.22021     102002.7      46.7237      46.7237      46.7237 
  426000    111.43775   -7503.3634   -6896.8123   -746.44546     102002.7      46.7237      46.7237      46.7237 
  427000    106.91215   -7487.6394   -6905.7209   -789.90153     102002.7      46.7237      46.7237      46.7237 
  428000    111.43101   -7481.6543   -6875.1399   -946.93367     102002.7      46.7237      46.7237      46.7237 
  429000    108.22761   -7494.4459   -6905.3674   -542.37591     102002.7      46.7237      46.7237      46.7237 
  430000    106.56004   -7488.9971   -6908.9952   -1124.6327     102002.7      46.7237      46.7237      46.7237 
  431000    111.00136   -7476.5027   -6872.3269   -975.87678     102002.7      46.7237      46.7237      46.7237 
  432000    113.65131   -7506.3324    -6887.733   -760.48523     102002.7      46.7237      46.7237      46.7237 
  433000    110.99432   -7497.6441   -6893.5066   -683.83521     102002.7      46.7237      46.7237      46.7237 
  434000    108.60331   -7481.2354   -6890.1121   -832.02726     102002.7      46.7237      46.7237      46.7237 
  435000    108.41729   -7493.4722   -6903.3613   -872.25481     102002.7      46.7237      46.7237      46.7237 
  436000    106.52145   -7477.0723   -6897.2804   -641.31375     102002.7      46.7237      46.7237      46.7237 
  437000    109.90321   -7488.1722   -6889.9736    -606.0034     102002.7      46.7237      46.7237      46.7237 
  438000    109.22162   -7485.7342   -6891.2454   -927.41998     102002.7      46.7237      46.7237      46.7237 
  439000    109.26695   -7514.1565    -6919.421   -686.21815     102002.7      46.7237      46.7237      46.7237 
  440000    111.72227   -7506.9495   -6898.8497   -634.86624     102002.7      46.7237      46.7237      46.7237 
  441000    109.83384   -7509.2463   -6911.4252   -593.57865     102002.7      46.7237      46.7237      46.7237 
  442000    109.86331   -7485.1872   -6887.2057   -521.88956     102002.7      46.7237      46.7237      46.7237 
  443000    113.69609   -7512.2989   -6893.4558   -692.97665     102002.7      46.7237      46.7237      46.7237 
  444000    108.95684   -7505.6034   -6912.5558   -693.36308     102002.7      46.7237      46.7237      46.7237 
  445000    107.61058   -7493.1005   -6907.3805   -427.02466     102002.7      46.7237      46.7237      46.7237 
  446000    109.76881   -7479.7019   -6882.2348   -894.41385     102002.7      46.7237      46.7237      46.7237 
  447000    105.34733   -7497.6208   -6924.2196   -682.48361     102002.7      46.7237      46.7237      46.7237 
  448000    109.65292   -7499.3542   -6902.5179   -965.28577     102002.7      46.7237      46.7237      46.7237 
  449000    111.96706    -7496.327   -6886.8949   -747.42258     102002.7      46.7237      46.7237      46.7237 
  450000    110.66699   -7518.9557   -6916.5998   -719.11028     102002.7      46.7237      46.7237      46.7237 
  451000    111.22673   -7499.6212   -6894.2187   -843.66581     102002.7      46.7237      46.7237      46.7237 
  452000    108.66542    -7502.178   -6910.7165    -873.9912     102002.7      46.7237      46.7237      46.7237 
  453000    111.51441   -7482.3863   -6875.4179   -932.26635     102002.7      46.7237      46.7237      46.7237 
  454000    110.71807    -7514.264   -6911.6301   -614.23148     102002.7      46.7237      46.7237      46.7237 
  455000    115.52254   -7487.5152   -6858.7307   -633.87927     102002.7      46.7237      46.7237      46.7237 
  456000    104.75098   -7482.5217   -6912.3664    -801.0117     102002.7      46.7237      46.7237      46.7237 
  457000    109.97185   -7459.9478   -6861.3755     -937.051     102002.7      46.7237      46.7237      46.7237 
  458000    107.41825   -7484.8799   -6900.2068   -932.77846     102002.7      46.7237      46.7237      46.7237 
  459000    109.09248   -7488.0535   -6894.2676   -628.56697     102002.7      46.7237      46.7237      46.7237 
  460000    112.13888   -7481.5823    -6871.215   -1095.1367     102002.7      46.7237      46.7237      46.7237 
  461000    109.81887   -7503.4603   -6905.7207   -744.71106     102002.7      46.7237      46.7237      46.7237 
  462000     115.4279   -7493.5742   -6865.3048   -703.88918     102002.7      46.7237      46.7237      46.7237 
  463000    107.69527   -7488.7333   -6902.5523   -890.20179     102002.7      46.7237      46.7237      46.7237 
  464000    108.57689   -7527.5727   -6936.5931   -780.36413     102002.7      46.7237      46.7237      46.7237 
  465000     112.1353   -7510.5641   -6900.2163   -699.24686     102002.7      46.7237      46.7237      46.7237 
  466000    110.26206   -7500.3755   -6900.2237   -652.12015     102002.7      46.7237      46.7237      46.7237 
  467000    110.47149   -7515.8394   -6914.5476   -552.20406     102002.7      46.7237      46.7237      46.7237 
  468000    108.07465   -7491.4813   -6903.2354   -499.54312     102002.7      46.7237      46.7237      46.7237 
  469000    113.15489   -7500.8389   -6884.9415   -521.91176     102002.7      46.7237      46.7237      46.7237 
  470000    107.36326   -7480.9407   -6896.5669   -707.44757     102002.7      46.7237      46.7237      46.7237 
  471000    111.77887   -7489.2898    -6880.882   -635.65922     102002.7      46.7237      46.7237      46.7237 
  472000    106.17204   -7483.6428   -6905.7527   -846.86358     102002.7      46.7237      46.7237      46.7237 
  473000    111.72543   -7499.1929   -6891.0759   -659.36273     102002.7      46.7237      46.7237      46.7237 
  474000    106.35875    -7516.146   -6937.2397   -512.86564     102002.7      46.7237      46.7237      46.7237 
  475000    111.32859   -7506.4877   -6900.5308   -917.84257     102002.7      46.7237      46.7237      46.7237 
  476000    109.74983   -7507.3734   -6910.0096    -683.9691     102002.7      46.7237      46.7237      46.7237 
  477000    108.91084   -7463.2941   -6870.4968   -749.72705     102002.7      46.7237      46.7237      46.7237 
  478000    109.75679   -7504.2044   -6906.8027   -951.93478     102002.7      46.7237      46.7237      46.7237 
  479000    112.80953   -7501.0856   -6887.0679   -616.58128     102002.7      46.7237      46.7237      46.7237 
  480000    111.57479   -7505.0398   -6897.7427   -807.36526     102002.7      46.7237      46.7237      46.7237 
  481000    109.03455    -7497.537   -6904.0664   -733.66094     102002.7      46.7237      46.7237      46.7237 
  482000    112.92041   -7493.4602    -6878.839    -737.9282     102002.7      46.7237      46.7237      46.7237 
  483000    111.47194     -7499.43   -6892.6927   -1072.4076     102002.7      46.7237      46.7237      46.7237 
  484000     112.7838   -7484.8657   -6870.9881   -905.52341     102002.7      46.7237      46.7237      46.7237 
  485000    107.45991   -7471.6356   -6886.7358   -881.08986     102002.7      46.7237      46.7237      46.7237 
  486000    107.21541   -7513.1178   -6929.5486   -787.87755     102002.7      46.7237      46.7237      46.7237 
  487000    110.35638   -7485.6397   -6884.9744   -752.96272     102002.7      46.7237      46.7237      46.7237 
  488000    111.80133   -7515.7958   -6907.2657   -571.63342     102002.7      46.7237      46.7237      46.7237 
  489000      109.132   -7485.9545   -6891.9534   -834.04843     102002.7      46.7237      46.7237      46.7237 
  490000    109.75906   -7505.6686   -6908.2545   -697.11746     102002.7      46.7237      46.7237      46.7237 
  491000    108.67049   -7492.2166   -6900.7276   -802.96658     102002.7      46.7237      46.7237      46.7237 
  492000    107.97707   -7509.3913   -6921.6765   -752.35168     102002.7      46.7237      46.7237      46.7237 
  493000    108.33707   -7491.7467   -6902.0724   -733.00163     102002.7      46.7237      46.7237      46.7237 
  494000    110.47973    -7499.218   -6897.8813   -649.45145     102002.7      46.7237      46.7237      46.7237 
  495000    109.75026   -7512.0475   -6914.6813   -568.82278     102002.7      46.7237      46.7237      46.7237 
  496000    111.88378   -7501.1495   -6892.1706   -867.71392     102002.7      46.7237      46.7237      46.7237 
  497000    110.00652   -7503.3522   -6904.5912   -651.67588     102002.7      46.7237      46.7237      46.7237 
  498000    109.83521   -7494.9794   -6897.1508   -760.17569     102002.7      46.7237      46.7237      46.7237 
  499000    107.15442   -7486.9557   -6903.7185   -794.90359     102002.7      46.7237      46.7237      46.7237 
  500000    107.34875     -7522.28   -6937.9852   -734.62122     102002.7      46.7237      46.7237      46.7237 
  500505    112.55821   -7482.8958   -6870.2461   -503.32194     102002.7      46.7237      46.7237      46.7237 
Loop time of 554.989 on 24 procs for 500000 steps with 1827 atoms

Performance: 77.839 ns/day, 0.308 hours/ns, 900.919 timesteps/s
99.8% CPU use with 24 MPI tasks x no OpenMP threads

MPI task timing breakdown:
Section |  min time  |  avg time  |  max time  |%varavg| %total
---------------------------------------------------------------
Pair    | 225.98     | 286.71     | 325.63     | 152.6 | 51.66
Bond    | 59.12      | 78.151     | 97.631     | 176.3 | 14.08
Neigh   | 2.3864     | 2.4078     | 2.4263     |   0.9 |  0.43
Comm    | 123.71     | 179.83     | 259.21     | 230.8 | 32.40
Output  | 0.33589    | 0.33623    | 0.33991    |   0.1 |  0.06
Modify  | 3.9061     | 4.3821     | 4.9017     |  15.5 |  0.79
Other   |            | 3.167      |            |       |  0.57

Nlocal:    76.125 ave 102 max 50 min
Histogram: 3 1 2 3 3 3 1 5 1 2
Nghost:    2073.79 ave 2241 max 1985 min
Histogram: 11 5 0 0 0 0 0 0 4 4
Neighs:    7637.38 ave 10578 max 4296 min
Histogram: 1 1 2 4 1 6 3 3 2 1

Total # of neighbors = 183297
Ave neighs/atom = 100.327
Ave special neighs/atom = 6.30542
Neighbor list builds = 4031
Dangerous builds = 0
Neighbor list info ...
  update every 1 steps, delay 10 steps, check yes
  max neighbors/atom: 2000, page size: 100000
  master list distance cutoff = 16
  ghost atom cutoff = 16
  binsize = 8, bins = 6 6 6
  3 neighbor lists, perpetual/occasional/extra = 3 0 0
  (1) pair buck6d/coul/gauss/dsf, perpetual, skip from (3)
      attributes: half, newton on
      pair build: skip
      stencil: none
      bin: none
  (2) pair lj/cut, perpetual, skip from (3)
      attributes: half, newton on
      pair build: skip
      stencil: none
      bin: none
  (3) neighbor class addition, perpetual
      attributes: half, newton on
      pair build: half/bin/newton
      stencil: half/bin/3d/newton
      bin: standard
Setting up Verlet run ...
  Unit style    : real
  Current step  : 500505
  Time step     : 1
WARNING: Inconsistent image flags (../domain.cpp:786)
Per MPI rank memory allocation (min/avg/max) = 23.92 | 24.38 | 24.57 Mbytes
Step Time TotEng KinEng PotEng E_mol E_pair Temp Pxx Pyy Pzz Pxy Pxz Pyz Cella Cellb Cellc CellAlpha CellBeta CellGamma Volume Press 
  500505       500000   -6870.2461    612.64972   -7482.8958    4282.3994   -11765.295    112.55821   -831.97404   -334.48391   -343.50787    225.72272    16.443677    196.58208      46.7237      46.7237      46.7237           90           90           90     102002.7   -503.32194 
  501000       500495   -6901.9124    592.50125   -7494.4137    4283.7874   -11778.201    108.85646   -989.00305   -673.30052   -989.41532   -55.339751   -235.38205   -296.73502      46.7237      46.7237      46.7237           90           90           90     102002.7    -883.9063 
  502000       501495   -6880.1868    613.98246   -7494.1693     4299.908   -11794.077    112.80306   -429.31115   -287.05669    -924.4927    276.98921     39.56145   -108.64591      46.7237      46.7237      46.7237           90           90           90     102002.7   -546.95351 
  503000       502495   -6886.0512    596.16978    -7482.221    4319.2712   -11801.492    109.53045   -907.50333   -420.05033   -662.63653   -146.80058    86.037821    82.962732      46.7237      46.7237      46.7237           90           90           90     102002.7   -663.39673 
  504000       503495   -6932.7648    590.53694   -7523.3017    4285.4298   -11808.731    108.49557   -569.33487   -926.80785   -597.24035   -138.31919    194.93643    256.62601      46.7237      46.7237      46.7237           90           90           90     102002.7   -697.79435 
  505000       504495   -6904.4232    602.27894   -7506.7021    4299.7568   -11806.459    110.65285    -891.7678   -786.28359   -640.95878    46.913896   -21.048268    151.28228      46.7237      46.7237      46.7237           90           90           90     102002.7   -773.00339 
  506000       505495   -6877.2098    606.73888   -7483.9487    4314.2056   -11798.154    111.47225   -1174.4145   -699.50696   -693.92048    14.004892   -344.04937   -13.991398      46.7237      46.7237      46.7237           90           90           90     102002.7   -855.94733 
  507000       506495   -6902.1155      598.666   -7500.7815    4301.4133   -11802.195    109.98907   -615.16114   -735.11982    -421.6505    92.970636    114.71871    89.519784      46.7237      46.7237      46.7237           90           90           90     102002.7   -590.64382 
  508000       507495   -6919.6311    585.05001   -7504.6812    4311.0473   -11815.728    107.48749   -865.18395   -1085.3125   -479.62737    217.36339   -166.82549   -32.439141      46.7237      46.7237      46.7237           90           90           90     102002.7   -810.04126 
  509000       508495   -6916.1813    597.78373    -7513.965    4284.4485   -11798.414    109.82697   -818.50224   -580.64917   -672.68586    95.651416   -149.04882    125.81679      46.7237      46.7237      46.7237           90           90           90     102002.7   -690.61242 
  510000       509495   -6878.7015    611.04367   -7489.7452    4310.3398   -11800.085    112.26314   -592.13857   -759.00373    -742.3043   -57.170651    85.886404   -15.526985      46.7237      46.7237      46.7237           90           90           90     102002.7   -697.81553 
  511000       510495   -6887.7101    603.41233   -7491.1224    4300.1752   -11791.298    110.86108   -265.92237   -140.27879   -1166.0063   -33.711885    102.93387    -86.45179      46.7237      46.7237      46.7237           90           90           90     102002.7   -524.06916 
  512000       511495   -6902.8104     600.8709   -7503.6813     4291.494   -11795.175    110.39416   -1001.9372   -899.47803   -450.23933   -135.88336    318.97369    11.039863      46.7237      46.7237      46.7237           90           90           90     102002.7   -783.88484 
  513000       512495   -6895.7126    594.89648   -7490.6091    4313.0832   -11803.692    109.29652   -629.19815   -697.16039   -780.23673   -127.57267    116.85732   -59.930143      46.7237      46.7237      46.7237           90           90           90     102002.7   -702.19843 
  514000       513495   -6908.3722    597.99571   -7506.3679    4290.8293   -11797.197    109.86592    -469.1173   -493.42274   -611.13338    383.98193   -280.70677    137.08362      46.7237      46.7237      46.7237           90           90           90     102002.7   -524.55781 
  515000       514495   -6895.5422    596.93422   -7492.4765    4302.0577   -11794.534     109.6709   -1005.5753   -937.29579   -820.91201   -103.81628    193.97303   -69.565366      46.7237      46.7237      46.7237           90           90           90     102002.7   -921.26103 
  516000       515495   -6919.5642    590.37766   -7509.9418    4318.1065   -11828.048     108.4663   -858.52027   -955.07652   -438.73093    100.04292    5.0099136    42.204294      46.7237      46.7237      46.7237           90           90           90     102002.7   -750.77591 
  517000       516495   -6908.6573    588.74676   -7497.4041    4300.0127   -11797.417    108.16667   -479.66447   -910.68199   -378.10855   -96.587695   -11.894961     207.4895      46.7237      46.7237      46.7237           90           90           90     102002.7   -589.48501 
  518000       517495   -6871.2026    614.67024   -7485.8728    4312.5548   -11798.428    112.92942   -811.40033   -430.95267   -948.13501   -47.148868    202.00864   -71.755886      46.7237      46.7237      46.7237           90           90           90     102002.7   -730.16267 
  519000       518495   -6907.5487     590.5855   -7498.1342    4305.7742   -11803.908    108.50449   -1129.9199   -1091.3214   -962.51365   -29.079571   -198.57579    99.653698      46.7237      46.7237      46.7237           90           90           90     102002.7   -1061.2517 
  520000       519495   -6871.3986    608.74511   -7480.1437    4322.5585   -11802.702    111.84084   -622.03181   -397.58513   -1054.6508   -59.855812    62.975779   -175.39483      46.7237      46.7237      46.7237           90           90           90     102002.7   -691.42259 
  521000       520495   -6886.1673    601.87379   -7488.0411    4317.5275   -11805.569    110.57841   -891.60105   -1299.7353   -380.42615   -178.69207      210.095     131.4115      46.7237      46.7237      46.7237           90           90           90     102002.7   -857.25415 
  522000       521495   -6905.5075    594.58614   -7500.0937     4307.695   -11807.789     109.2395   -413.98917   -839.30973   -573.24974    89.288041    100.44175   -80.581177      46.7237      46.7237      46.7237           90           90           90     102002.7   -608.84955 
  523000       522495   -6908.9985    601.36649    -7510.365    4276.6643   -11787.029    110.48521   -322.51879   -355.56972   -391.99423     12.57026    150.71413     63.33839      46.7237      46.7237      46.7237           90           90           90     102002.7   -356.69425 
  524000       523495   -6931.7628    575.79692   -7507.5597    4291.8847   -11799.444    105.78748   -499.21481   -377.70881   -562.45474   -1.4933177   -55.402612    59.327758      46.7237      46.7237      46.7237           90           90           90     102002.7   -479.79278 
  525000       524495   -6901.0486    593.22083   -7494.2695    4297.1245   -11791.394    108.98866   -946.98085   -918.48856   -350.17676   -152.00491    224.58506    326.08715      46.7237      46.7237      46.7237           90           90           90     102002.7   -738.54872 
  526000       525495   -6890.5614    619.29204   -7509.8535    4293.7565    -11803.61    113.77856    -1086.577   -373.47625   -1131.4411   -62.228203    47.128502    40.310243      46.7237      46.7237      46.7237           90           90           90     102002.7   -863.83144 
  527000       526495   -6914.1366    598.15922   -7512.2958    4300.2257   -11812.522    109.89596   -843.53225   -794.80255   -619.97061    131.49627    176.91698    44.812729      46.7237      46.7237      46.7237           90           90           90     102002.7   -752.76847 
  528000       527495    -6899.988    579.43812   -7479.4262    4312.7803   -11792.206    106.45645   -522.03115   -547.50719    -1020.963   -59.789563    316.75581    114.02635      46.7237      46.7237      46.7237           90           90           90     102002.7   -696.83377 
  529000       528495   -6890.7919    593.90204    -7484.694    4325.8405   -11810.534    109.11381   -659.59382   -713.81271   -829.26534   -189.96867    168.46796    201.38084      46.7237      46.7237      46.7237           90           90           90     102002.7   -734.22396 
  530000       529495   -6906.4245    604.83256   -7511.2571    4287.4413   -11798.698    111.12201   -514.03473    -803.9744   -833.33562     14.19924    268.16625    56.106441      46.7237      46.7237      46.7237           90           90           90     102002.7   -717.11492 
  531000       530495    -6886.639    594.36809   -7481.0071    4299.1822   -11780.189    109.19944   -314.16796   -644.70055   -500.22729    32.157791   -232.25973    19.178552      46.7237      46.7237      46.7237           90           90           90     102002.7   -486.36527 
  532000       531495   -6886.6078    609.83929   -7496.4471    4305.4509   -11801.898    112.04186   -743.76547   -494.16141    -1123.822   -142.44735   -88.745018    203.30512      46.7237      46.7237      46.7237           90           90           90     102002.7   -787.24962 
  533000       532495   -6914.2381     597.2227   -7511.4608    4272.9681   -11784.429     109.7239   -396.89935   -415.57849   -769.02059    208.81084   -81.480645    201.02109      46.7237      46.7237      46.7237           90           90           90     102002.7   -527.16614 
  534000       533495   -6894.5276    614.91349   -7509.4411    4306.2844   -11815.725    112.97411   -778.40284   -805.51034   -956.06024    161.61089    216.40022    225.29039      46.7237      46.7237      46.7237           90           90           90     102002.7   -846.65781 
  535000       534495    -6906.882    597.29479   -7504.1768    4300.7308   -11804.908    109.73714   -829.09315   -269.95714   -426.66862   -110.15563    149.22125    109.79373      46.7237      46.7237      46.7237           90           90           90     102002.7   -508.57297 
  536000       535495   -6879.9028    606.66969   -7486.5725    4294.9057   -11781.478    111.45953   -732.38243   -698.11286   -223.80691   -30.683394   -91.509404    75.524514      46.7237      46.7237      46.7237           90           90           90     102002.7   -551.43407 
  537000       536495     -6941.25    583.49309   -7524.7431    4278.7632   -11803.506    107.20145   -708.50301   -699.74155   -671.99387   -43.306789   -273.25617    164.54038      46.7237      46.7237      46.7237           90           90           90     102002.7   -693.41281 
  538000       537495   -6888.0821    613.31132   -7501.3934    4296.0028   -11797.396    112.67976   -745.96698   -820.29698   -526.64766   -9.8166426    9.7055026    245.81899      46.7237      46.7237      46.7237           90           90           90     102002.7   -697.63721 
  539000       538495   -6905.6392     588.9226   -7494.5618    4297.2163   -11791.778    108.19897     -1061.72   -462.97016   -226.38455   -78.367768    159.79448    221.79963      46.7237      46.7237      46.7237           90           90           90     102002.7   -583.69157 
  540000       539495   -6884.8261    607.74811   -7492.5742    4316.2495   -11808.824    111.65767   -413.44729   -953.80351   -852.03237    40.164229   -214.12155    224.11497      46.7237      46.7237      46.7237           90           90           90     102002.7   -739.76105 
  541000       540495   -6904.9613    589.76156   -7494.7229    4306.1959   -11800.919    108.35311    -1086.932    50.712154   -617.11356   -296.34657    144.17954    123.37141      46.7237      46.7237      46.7237           90           90           90     102002.7   -551.11113 
  542000       541495   -6892.4867    602.11436   -7494.6011       4317.5   -11812.101    110.62261   -821.91936   -533.26525   -423.66202   -134.33021   -5.9488536   -136.51743      46.7237      46.7237      46.7237           90           90           90     102002.7   -592.94887 
  543000       542495   -6909.4288    593.82298   -7503.2518    4292.0994   -11795.351    109.09929   -110.13128   -649.07605   -598.57864   -272.66851    133.60934    -5.104643      46.7237      46.7237      46.7237           90           90           90     102002.7   -452.59533 
  544000       543495   -6906.5476    591.28982   -7497.8375     4307.163       -11805    108.63389   -714.60731   -858.01977   -829.90702    -83.99808   -229.68812    54.752717      46.7237      46.7237      46.7237           90           90           90     102002.7    -800.8447 
  545000       544495   -6924.9267    588.95899   -7513.8857    4286.3355   -11800.221    108.20566   -652.06912   -565.05092   -599.13562   -18.812055   -46.267069    99.064885      46.7237      46.7237      46.7237           90           90           90     102002.7   -605.41855 
  546000       545495   -6896.5951    606.46956   -7503.0647    4278.9288   -11781.994    111.42277   -745.66256    -374.8356   -394.12009   -201.02275    26.769062    -132.7842      46.7237      46.7237      46.7237           90           90           90     102002.7   -504.87275 
  547000       546495    -6900.041    587.07761   -7487.1186     4322.494   -11809.613    107.86001    -896.8458   -874.43138   -594.21279   -34.860624   -112.36862    -64.31418      46.7237      46.7237      46.7237           90           90           90     102002.7   -788.49666 
  548000       547495   -6886.0164    594.19855    -7480.215    4320.7869   -11801.002    109.16829   -1063.4339   -172.07891   -815.00311    162.52137   -217.95537    15.806577      46.7237      46.7237      46.7237           90           90           90     102002.7    -683.5053 
  549000       548495   -6878.1021    622.52904   -7500.6311    4298.5528   -11799.184    114.37327   -948.16588   -429.96307   -332.71845    213.10295   -20.393492    100.94945      46.7237      46.7237      46.7237           90           90           90     102002.7   -570.28247 
  550000       549495   -6906.6483    597.05423   -7503.7025    4294.3259   -11798.028    109.69295   -644.54399   -529.12367    -564.4929   -100.46415    229.35478    71.233302      46.7237      46.7237      46.7237           90           90           90     102002.7   -579.38685 
  551000       550495   -6893.1954    612.44307   -7505.6384    4296.3546   -11801.993    112.52024   -656.01328   -494.97755   -943.71752    155.03204    166.49528   -334.75892      46.7237      46.7237      46.7237           90           90           90     102002.7   -698.23612 
  552000       551495   -6906.2414    601.48405   -7507.7255    4284.2061   -11791.932    110.50681   -824.74784   -736.49253   -334.63498    85.115919    231.37023   -347.33822      46.7237      46.7237      46.7237           90           90           90     102002.7   -631.95845 
  553000       552495   -6922.9408    598.69131   -7521.6321    4278.1498   -11799.782    109.99372   -410.94993   -547.25189   -486.35549   -98.264016   -253.22894   -61.165595      46.7237      46.7237      46.7237           90           90           90     102002.7    -481.5191 
  554000       553495   -6917.1043    590.73943   -7507.8437    4294.5816   -11802.425    108.53277   -249.23866   -862.54516   -961.22073    57.540512   -70.195297   -224.91615      46.7237      46.7237      46.7237           90           90           90     102002.7   -691.00152 
  555000       554495    -6922.283    578.35679   -7500.6398    4307.8341   -11808.474    106.25779   -905.91187   -670.41777     -448.462    175.27656   -328.71488     47.50509      46.7237      46.7237      46.7237           90           90           90     102002.7   -674.93055 
[...]
  936000       935495   -6923.7757    594.40659   -7518.1823    4277.3073    -11795.49    109.20651   -918.28141   -478.65874     -1085.13    136.90124   -76.052557    95.574712      46.7237      46.7237      46.7237           90           90           90     102002.7   -827.35673 
  937000       936495   -6897.4504    599.10326   -7496.5536    4296.2275   -11792.781     110.0694   -850.64243   -303.34698   -605.89525   -307.23868    277.00509   -26.504966      46.7237      46.7237      46.7237           90           90           90     102002.7   -586.62822 
  938000       937495   -6904.6919     606.2695   -7510.9614    4281.7119   -11792.673    111.38601   -900.63028   -217.30059   -135.36226    67.541984     66.99445   -42.744169      46.7237      46.7237      46.7237           90           90           90     102002.7   -417.76438 
  939000       938495   -6911.3959     585.1823   -7496.5782    4312.0448   -11808.623    107.51179   -452.78867   -474.81487   -1723.9362    41.193467   -100.14949   -22.246143      46.7237      46.7237      46.7237           90           90           90     102002.7   -883.84658 
  940000       939495   -6863.9065    620.84335   -7484.7498    4310.9625   -11795.712    114.06357   -365.94395   -47.480056     -606.729   -74.052681   -91.708716    36.234396      46.7237      46.7237      46.7237           90           90           90     102002.7     -340.051 
  941000       940495    -6917.232    596.95731   -7514.1893    4286.1758   -11800.365    109.67514   -338.88837   -646.74272   -549.62951    130.49542   -53.105895    157.77189      46.7237      46.7237      46.7237           90           90           90     102002.7   -511.75353 
  942000       941495   -6898.8654    602.10019   -7500.9656    4285.9782   -11786.944    110.62001   -277.38947   -733.19603   -447.31249    218.26196   -158.26151   -15.838426      46.7237      46.7237      46.7237           90           90           90     102002.7     -485.966 
  943000       942495   -6910.6938    601.00292   -7511.6967    4315.7989   -11827.496    110.41841   -789.38515   -781.60259   -907.76454   -142.43209   -46.006553    156.18027      46.7237      46.7237      46.7237           90           90           90     102002.7   -826.25076 
  944000       943495   -6905.4085    589.07858   -7494.4871    4310.7039   -11805.191    108.22763   -1112.9125   -1172.0099   -703.94425    72.274726      12.2001    55.129599      46.7237      46.7237      46.7237           90           90           90     102002.7   -996.28887 
  945000       944495   -6887.0485    610.94791   -7497.9964    4286.2906   -11784.287    112.24554   -795.58882   -642.83118   -628.57765    16.299173   -164.20556    153.29327      46.7237      46.7237      46.7237           90           90           90     102002.7   -688.99922 
  946000       945495   -6913.8227    597.05819   -7510.8809    4268.6336   -11779.514    109.69367   -738.98292   -578.84529   -655.27219    148.96182    210.00301    68.387799      46.7237      46.7237      46.7237           90           90           90     102002.7   -657.70013 
  947000       946495   -6886.5995    598.19525   -7484.7948    4311.9132   -11796.708    109.90258   -982.69556   -1075.9091   -380.82036    66.131537    102.54435   -48.521832      46.7237      46.7237      46.7237           90           90           90     102002.7   -813.14168 
  948000       947495   -6897.2146    608.74588   -7505.9604    4306.5751   -11812.536    111.84098   -828.28568   -842.67213   -758.61207   -220.04982    123.41025   -157.98571      46.7237      46.7237      46.7237           90           90           90     102002.7   -809.85663 
  949000       948495   -6918.3895    584.88962   -7503.2791    4300.3046   -11803.584    107.45802   -376.13521   -949.29451   -646.26067   -40.303323    5.2591554    78.026234      46.7237      46.7237      46.7237           90           90           90     102002.7   -657.23013 
  950000       949495    -6887.896    602.10906   -7490.0051    4317.1617   -11807.167    110.62164   -773.44397   -622.92663    -1020.784    136.88824    -48.76918    249.90953      46.7237      46.7237      46.7237           90           90           90     102002.7   -805.71819 
  951000       950495   -6934.9478    582.44395   -7517.3917    4296.6112   -11814.003    107.00869    -490.7866   -397.28762   -747.46846    168.83127    6.4950404   -64.797704      46.7237      46.7237      46.7237           90           90           90     102002.7   -545.18089 
  952000       951495   -6894.7462    595.91522   -7490.6615    4305.9856   -11796.647    109.48368   -773.50848   -770.32636   -768.67302    153.96559   -217.59118   -189.09298      46.7237      46.7237      46.7237           90           90           90     102002.7   -770.83595 
  953000       952495   -6884.2458    600.85391   -7485.0997    4320.2453   -11805.345    110.39104   -420.47906   -646.32432   -656.58495   -5.1228978    169.10751   -279.34864      46.7237      46.7237      46.7237           90           90           90     102002.7   -574.46278 
  954000       953495   -6919.7927    597.48109   -7517.2737    4292.4724   -11809.746    109.77137    -929.9234   -707.76685   -243.90561   -186.04152    286.65563   -98.868259      46.7237      46.7237      46.7237           90           90           90     102002.7   -627.19862 
  955000       954495   -6910.3766    589.34054   -7499.7172    4306.3284   -11806.046    108.27576   -130.39381   -1123.3213   -420.78969   -20.210835   -65.419895   -128.90213      46.7237      46.7237      46.7237           90           90           90     102002.7   -558.16827 
  956000       955495   -6892.4655    592.24606   -7484.7116    4311.8752   -11796.587    108.80957   -178.58334   -1114.9245    -326.2596    43.569976    38.480524    -133.7152      46.7237      46.7237      46.7237           90           90           90     102002.7   -539.92248 
  957000       956495   -6899.0033    603.90108   -7502.9043    4298.1245   -11801.029    110.95088   -960.81782   -436.28699   -121.82477   -372.11747    163.98477   -194.13479      46.7237      46.7237      46.7237           90           90           90     102002.7   -506.30986 
  958000       957495   -6902.7774    604.83113   -7507.6086    4270.5676   -11778.176    111.12175   -826.33333   -942.03704   -66.225806   -238.93646    -23.29333   -53.279955      46.7237      46.7237      46.7237           90           90           90     102002.7   -611.53206 
  959000       958495   -6884.7662    597.54276    -7482.309    4320.2126   -11802.522     109.7827   -800.36563    -961.3781   -597.11585    99.743388    197.74078   -233.51966      46.7237      46.7237      46.7237           90           90           90     102002.7   -786.28652 
  960000       959495    -6893.641    605.63279   -7499.2738    4280.1208   -11779.395    111.26903   -866.80177    -925.6329   -535.90154    -76.24027   -101.43964    212.07456      46.7237      46.7237      46.7237           90           90           90     102002.7   -776.11207 
  961000       960495   -6881.7599     592.0102   -7473.7701    4307.5964   -11781.366    108.76624    -1223.995   -692.39426   -571.63384   -81.213973   -86.264174    208.28821      46.7237      46.7237      46.7237           90           90           90     102002.7   -829.34105 
  962000       961495   -6895.2007    612.99454   -7508.1952    4293.6143   -11801.809    112.62156   -831.71098   -896.40047   -549.81417   -25.219431     116.5801    98.342409      46.7237      46.7237      46.7237           90           90           90     102002.7   -759.30854 
  963000       962495   -6905.1163    594.57052   -7499.6868    4304.1727   -11803.859    109.23663   -569.25383   -970.85486   -515.16932    89.839579   -26.010992    42.767416      46.7237      46.7237      46.7237           90           90           90     102002.7   -685.09267 
  964000       963495   -6891.4127     607.4285   -7498.8412    4274.8006   -11773.642    111.59895   -556.91618   -501.89742   -653.61082    204.09267    42.026562    66.064296      46.7237      46.7237      46.7237           90           90           90     102002.7   -570.80814 
  965000       964495   -6903.3089    597.12724   -7500.4362    4309.4696   -11809.906    109.70636   -726.02319   -974.31403    -678.4083   -79.473934    128.24206   -70.558834      46.7237      46.7237      46.7237           90           90           90     102002.7   -792.91517 
  966000       965495    -6914.876    590.69807    -7505.574    4292.9161    -11798.49    108.52517   -666.57095   -1279.8498   -874.99788    69.064986     36.72037   -141.93237      46.7237      46.7237      46.7237           90           90           90     102002.7   -940.47287 
  967000       966495   -6902.2385    604.31952    -7506.558    4294.1237   -11800.682    111.02775   -680.55942   -675.91678   -608.51272    38.838478    146.60065    148.71914      46.7237      46.7237      46.7237           90           90           90     102002.7   -654.99631 
  968000       967495   -6921.0336    599.31056   -7520.3442    4263.4921   -11783.836    110.10749   -719.55308   -868.23936   -909.71314   -23.646195    59.151147   -235.66479      46.7237      46.7237      46.7237           90           90           90     102002.7   -832.50186 
  969000       968495   -6888.1361    608.34106   -7496.4772    4303.3816   -11799.859     111.7666   -1117.0443   -800.22205   -576.09753   -10.734222   -24.125141    36.085208      46.7237      46.7237      46.7237           90           90           90     102002.7   -831.12131 
  970000       969495   -6863.5278    610.91336   -7474.4411    4333.6492    -11808.09     112.2392   -670.71658   -907.08961   -1117.3281   -180.05508    -135.7229    80.040739      46.7237      46.7237      46.7237           90           90           90     102002.7    -898.3781 
  971000       970495   -6898.1869    595.99353   -7494.1805    4290.5306   -11784.711    109.49807   -989.69371   -500.45127   -509.49562    96.585718    68.699228   -269.38655      46.7237      46.7237      46.7237           90           90           90     102002.7   -666.54686 
  972000       971495   -6888.6883    600.74663   -7489.4349     4304.662   -11794.097    110.37133   -498.75383   -347.98775   -561.62809   -120.46417    112.34323    87.535774      46.7237      46.7237      46.7237           90           90           90     102002.7   -469.45656 
  973000       972495   -6936.6563    571.71468    -7508.371    4302.7979   -11811.169    105.03747   -800.62107   -1166.4581   -748.75342    225.45533   -126.05515    115.58138      46.7237      46.7237      46.7237           90           90           90     102002.7   -905.27753 
  974000       973495   -6908.1181     589.1045   -7497.2226    4319.2376    -11816.46    108.23239   -668.02514   -674.07683   -524.24593    157.97753    90.814731    98.716198      46.7237      46.7237      46.7237           90           90           90     102002.7   -622.11597 
  975000       974495   -6884.0105     606.2463   -7490.2568    4311.2594   -11801.516    111.38175   -356.09712   -389.86049   -557.47142   -53.466401    113.57084    188.84608      46.7237      46.7237      46.7237           90           90           90     102002.7   -434.47635 
  976000       975495   -6892.5406    602.38404   -7494.9246     4299.595    -11794.52    110.67216   -676.25649   -888.19587   -1002.3903   -73.319364    201.66101   0.86716696      46.7237      46.7237      46.7237           90           90           90     102002.7   -855.61422 
  977000       976495   -6913.0401    584.53058   -7497.5707    4297.2374   -11794.808    107.39206   -934.66559   -963.56109    -684.4688    46.866995   -189.20184   -58.678718      46.7237      46.7237      46.7237           90           90           90     102002.7   -860.89849 
  978000       977495   -6895.8655    590.82565   -7486.6912    4296.2905   -11782.982    108.54861   -729.94988   -648.19509   -862.54344   -116.53417    22.738523   -102.89781      46.7237      46.7237      46.7237           90           90           90     102002.7   -746.89614 
  979000       978495   -6895.7991    599.76682   -7495.5659    4289.0565   -11784.622    110.19131   -1130.3654   -306.27299   -1028.2957   -128.44218    52.078129    49.525018      46.7237      46.7237      46.7237           90           90           90     102002.7   -821.64469 
  980000       979495   -6908.7077    584.41831    -7493.126    4312.9742     -11806.1    107.37143   -709.66523   -934.06398   -510.97389   -1.2251788   -188.26617    -113.6007      46.7237      46.7237      46.7237           90           90           90     102002.7   -718.23437 
  981000       980495    -6874.053    617.63709   -7491.6901    4307.5901    -11799.28     113.4745   -577.97353   -775.66545   -1035.7032   -22.456608   -84.297843    135.56181      46.7237      46.7237      46.7237           90           90           90     102002.7    -796.4474 
  982000       981495   -6899.7583     606.1878   -7505.9461    4304.0141    -11809.96      111.371   -858.64992   -873.58207   -657.96344   -28.217018   -213.59043    -14.87573      46.7237      46.7237      46.7237           90           90           90     102002.7   -796.73181 
  983000       982495   -6844.3996    628.62817   -7473.0278    4325.5085   -11798.536    115.49383   -1086.2581   -1065.7377   -863.19998    256.17641    19.566261   -13.414815      46.7237      46.7237      46.7237           90           90           90     102002.7   -1005.0652 
  984000       983495   -6917.1554    575.38188   -7492.5373    4316.2279   -11808.765    105.71123   -718.33177   -1349.7366   -835.25457    49.929713     58.52602    306.82238      46.7237      46.7237      46.7237           90           90           90     102002.7    -967.7743 
  985000       984495   -6885.2577    607.82396   -7493.0817    4324.4801   -11817.562     111.6716   -1027.5569   -916.79574   -896.26451    -48.63374    -26.07074   -42.813895      46.7237      46.7237      46.7237           90           90           90     102002.7   -946.87237 
  986000       985495   -6854.7865    618.82635   -7473.6129    4305.2783   -11778.891      113.693   -559.95125   -537.43634   -779.24496   -205.87616    5.2069782    89.018636      46.7237      46.7237      46.7237           90           90           90     102002.7   -625.54418 
  987000       986495   -6907.5982     585.7234   -7493.3216    4295.5566   -11788.878    107.61121    -612.0871   -696.66116   -665.05329   -287.76062    28.165107   -274.91488      46.7237      46.7237      46.7237           90           90           90     102002.7   -657.93385 
  988000       987495   -6899.6743      605.947   -7505.6213    4293.2217   -11798.843    111.32676   -870.99667   -513.70369   -671.99075    160.72843    26.921722    -44.95052      46.7237      46.7237      46.7237           90           90           90     102002.7    -685.5637 
  989000       988495   -6880.4054    612.06687   -7492.4723    4290.3075    -11782.78    112.45112   -326.62971   -622.24897   -873.67769    232.20911    50.119215   -129.45057      46.7237      46.7237      46.7237           90           90           90     102002.7   -607.51879 
  990000       989495   -6923.3447    584.66673   -7508.0114    4293.3669   -11801.378    107.41707   -684.63708   -724.07191   -962.13169   -19.798566   -132.35374   -187.34593      46.7237      46.7237      46.7237           90           90           90     102002.7   -790.28023 
  991000       990495   -6886.1353    607.30112   -7493.4365    4300.8501   -11794.287    111.57554    -1169.692   -669.18911   -1011.6326    89.386976    207.19565   -81.641113      46.7237      46.7237      46.7237           90           90           90     102002.7   -950.17122 
  992000       991495   -6883.7334     593.9871   -7477.7205    4314.8945   -11792.615    109.12944   -1358.4519    -796.2507   -904.26205    174.51047    52.454518    96.078371      46.7237      46.7237      46.7237           90           90           90     102002.7   -1019.6549 
  993000       992495   -6886.8929    599.21153   -7486.1045    4305.5151    -11791.62    110.08929   -339.58787   -360.27973   -1058.3727     285.6569   -229.55325   -165.20654      46.7237      46.7237      46.7237           90           90           90     102002.7    -586.0801 
  994000       993495   -6918.7778    577.78585   -7496.5636    4301.7451   -11798.309    106.15289   -987.99015   -635.69789    -863.1648   -76.800748    180.36468   -68.768858      46.7237      46.7237      46.7237           90           90           90     102002.7   -828.95094 
  995000       994495   -6901.4277     594.1979   -7495.6256    4301.9212   -11797.547    109.16817    -1143.741   -503.94775   -325.94337    113.84823   -40.636454    284.20868      46.7237      46.7237      46.7237           90           90           90     102002.7   -657.87737 
  996000       995495   -6928.5234    579.85786   -7508.3813    4311.1867   -11819.568    106.53357   -991.98096   -485.35534   -505.09505     214.3291     85.10576   -102.64921      46.7237      46.7237      46.7237           90           90           90     102002.7   -660.81045 
  997000       996495   -6906.9332    600.07812   -7507.0113    4305.1518   -11812.163    110.24851   -387.50741   -649.82365   -956.83415   -173.76819   -32.641683   -88.254662      46.7237      46.7237      46.7237           90           90           90     102002.7   -664.72174 
  998000       997495   -6886.7419     618.5331    -7505.275    4307.3327   -11812.608    113.63912   -1357.4551   -763.54816   -817.76746   -200.20207   -40.116567    227.11807      46.7237      46.7237      46.7237           90           90           90     102002.7   -979.59025 
  999000       998495   -6905.6907    596.83214   -7502.5228    4290.4196   -11792.942    109.65214   -821.60214   -854.91033   -1038.1966   -105.86816   -40.041015   -83.068515      46.7237      46.7237      46.7237           90           90           90     102002.7   -904.90303 
 1000000       999495   -6905.2882    586.30316   -7491.5914    4316.4363   -11808.028    107.71772   -906.42432   -635.08793   -709.01407   -252.55491    64.691907    126.27133      46.7237      46.7237      46.7237           90           90           90     102002.7   -750.17544 
 1000505      1000000    -6893.977    596.18412   -7490.1612    4311.7623   -11801.923    109.53309   -965.28713   -661.75518    -634.6007    56.993264    57.914941   -28.374464      46.7237      46.7237      46.7237           90           90           90     102002.7     -753.881 
Loop time of 609.811 on 24 procs for 500000 steps with 1827 atoms

Performance: 70.842 ns/day, 0.339 hours/ns, 819.926 timesteps/s
99.7% CPU use with 24 MPI tasks x no OpenMP threads

MPI task timing breakdown:
Section |  min time  |  avg time  |  max time  |%varavg| %total
---------------------------------------------------------------
Pair    | 259.8      | 319.81     | 367.59     | 149.8 | 52.44
Bond    | 52.814     | 82.221     | 109.48     | 223.6 | 13.48
Neigh   | 2.4224     | 2.4421     | 2.4556     |   0.8 |  0.40
Comm    | 121.75     | 189.05     | 268.11     | 286.4 | 31.00
Output  | 0.35386    | 0.37802    | 0.37922    |   0.8 |  0.06
Modify  | 12.082     | 12.627     | 13.302     |  12.1 |  2.07
Other   |            | 3.28       |            |       |  0.54

Nlocal:    76.125 ave 113 max 48 min
Histogram: 3 3 2 4 3 2 3 1 1 2
Nghost:    2078.29 ave 2247 max 1973 min
Histogram: 7 6 3 0 0 0 0 1 2 5
Neighs:    7637.92 ave 10692 max 4210 min
Histogram: 1 4 0 3 1 3 5 4 0 3

Total # of neighbors = 183310
Ave neighs/atom = 100.334
Ave special neighs/atom = 6.30542
Neighbor list builds = 4035
Dangerous builds = 0
Total wall time: 0:19:26
