LAMMPS (30 Mar 2018)
Reading data file ...
  orthogonal box = (0 0 0) to (46.7237 46.7237 46.7237)
  2 by 2 by 4 MPI processor grid
  reading atoms ...
  2010 atoms
  scanning bonds ...
  5 = max bonds/atom
  scanning angles ...
  10 = max angles/atom
  scanning dihedrals ...
  32 = max dihedrals/atom
  scanning impropers ...
  3 = max impropers/atom
  reading bonds ...
  2064 bonds
  reading angles ...
  3696 angles
  reading dihedrals ...
  6240 dihedrals
  reading impropers ...
  1008 impropers
Finding 1-2 1-3 1-4 neighbors ...
  special bond factors lj:   0          0          0         
  special bond factors coul: 0          0          0         
  5 = max # of 1-2 neighbors
  8 = max # of 1-3 neighbors
  20 = max # of 1-4 neighbors
  19 = max # of special neighbors
Finding 1-2 1-3 1-4 neighbors ...
  special bond factors lj:   0          0          1         
  special bond factors coul: 1          1          1         
  5 = max # of 1-2 neighbors
  8 = max # of 1-3 neighbors
  19 = max # of special neighbors
WARNING: Using 'neigh_modify every 1 delay 0 check yes' setting during minimization (../min.cpp:168)
Neighbor list info ...
  update every 1 steps, delay 0 steps, check yes
  max neighbors/atom: 2000, page size: 100000
  master list distance cutoff = 16
  ghost atom cutoff = 16
  binsize = 8, bins = 6 6 6
  3 neighbor lists, perpetual/occasional/extra = 3 0 0
  (1) pair buck6d/coul/gauss/dsf, perpetual, skip from (3)
      attributes: half, newton on
      pair build: skip
      stencil: none
      bin: none
  (2) pair lj/cut, perpetual, skip from (3)
      attributes: half, newton on
      pair build: skip
      stencil: none
      bin: none
  (3) neighbor class addition, perpetual
      attributes: half, newton on
      pair build: half/bin/newton
      stencil: half/bin/3d/newton
      bin: standard
Setting up cg style minimization ...
  Unit style    : real
  Current step  : 0
WARNING: Inconsistent image flags (../domain.cpp:786)
Per MPI rank memory allocation (min/avg/max) = 22.91 | 23.37 | 23.81 Mbytes
Step Temp E_pair E_mol TotEng Press 
       0            0   -12427.329    6482.8914   -5944.4374    6091.3161 
     502            0   -12508.196    3729.1313   -8779.0642   -672.75049 
Loop time of 3.15558 on 16 procs for 502 steps with 2010 atoms

99.8% CPU use with 16 MPI tasks x no OpenMP threads

Minimization stats:
  Stopping criterion = max force evaluations
  Energy initial, next-to-last, final = 
        -5944.43737607     -8779.05083277     -8779.06421759
  Force two-norm initial, final = 2575.01 5.52445
  Force max component initial, final = 151.933 0.468548
  Final line search alpha, max atom move = 0.0118414 0.00554828
  Iterations, force evaluations = 502 1001

MPI task timing breakdown:
Section |  min time  |  avg time  |  max time  |%varavg| %total
---------------------------------------------------------------
Pair    | 1.1563     | 1.829      | 2.3493     |  26.0 | 57.96
Bond    | 0.27359    | 0.36027    | 0.44266    |   7.3 | 11.42
Neigh   | 0.019756   | 0.019801   | 0.019871   |   0.0 |  0.63
Comm    | 0.34717    | 0.90552    | 1.6134     |  38.7 | 28.70
Output  | 0          | 0          | 0          |   0.0 |  0.00
Modify  | 0          | 0          | 0          |   0.0 |  0.00
Other   |            | 0.04104    |            |       |  1.30

Nlocal:    125.625 ave 150 max 99 min
Histogram: 1 1 2 1 1 3 2 3 1 1
Nghost:    2460.62 ave 2493 max 2437 min
Histogram: 1 1 3 5 2 0 1 2 0 1
Neighs:    11453.1 ave 17259 max 6773 min
Histogram: 4 0 2 2 1 1 2 2 0 2

Total # of neighbors = 183249
Ave neighs/atom = 91.1687
Ave special neighs/atom = 5.73134
Neighbor list builds = 12
Dangerous builds = 0
Neighbor list info ...
  update every 1 steps, delay 10 steps, check yes
  max neighbors/atom: 2000, page size: 100000
  master list distance cutoff = 16
  ghost atom cutoff = 16
  binsize = 8, bins = 6 6 6
  3 neighbor lists, perpetual/occasional/extra = 3 0 0
  (1) pair buck6d/coul/gauss/dsf, perpetual, skip from (3)
      attributes: half, newton on
      pair build: skip
      stencil: none
      bin: none
  (2) pair lj/cut, perpetual, skip from (3)
      attributes: half, newton on
      pair build: skip
      stencil: none
      bin: none
  (3) neighbor class addition, perpetual
      attributes: half, newton on
      pair build: half/bin/newton
      stencil: half/bin/3d/newton
      bin: standard
Setting up Verlet run ...
  Unit style    : real
  Current step  : 502
  Time step     : 1
WARNING: Inconsistent image flags (../domain.cpp:786)
Per MPI rank memory allocation (min/avg/max) = 22.56 | 22.65 | 22.87 Mbytes
Step Temp PotEng TotEng Press Volume Lx Ly Lz 
     502           91   -8779.0642   -8234.1155   -428.53297     102002.7      46.7237      46.7237      46.7237 
    1000    78.901662   -8298.0776   -7825.5792   -640.20467     102002.7      46.7237      46.7237      46.7237 
    2000     98.85272   -8210.0534   -7618.0791   -838.30035     102002.7      46.7237      46.7237      46.7237 
    3000    86.214098   -8187.4735   -7671.1849   -736.48864     102002.7      46.7237      46.7237      46.7237 
    4000    89.964739   -8185.0968   -7646.3477   -643.82286     102002.7      46.7237      46.7237      46.7237 
    5000    94.098448   -8226.8163   -7663.3127   -659.51445     102002.7      46.7237      46.7237      46.7237 
    6000    93.845653   -8209.5178   -7647.5281    -540.2895     102002.7      46.7237      46.7237      46.7237 
    7000    91.618825   -8213.6828   -7665.0283   -434.06401     102002.7      46.7237      46.7237      46.7237 
    8000    91.745116    -8194.145   -7644.7342   -560.39336     102002.7      46.7237      46.7237      46.7237 
    9000    88.188136   -8217.8673   -7689.7573   -621.16035     102002.7      46.7237      46.7237      46.7237 
   10000    93.202958   -8207.1353   -7648.9943   -481.81838     102002.7      46.7237      46.7237      46.7237 
   11000    90.971034    -8206.911   -7662.1358   -477.66006     102002.7      46.7237      46.7237      46.7237 
   12000    92.040116    -8210.697   -7659.5196   -393.99851     102002.7      46.7237      46.7237      46.7237 
   13000    91.231207    -8199.956   -7653.6227   -732.10642     102002.7      46.7237      46.7237      46.7237 
   14000    91.418852   -8184.2121   -7636.7551   -539.43572     102002.7      46.7237      46.7237      46.7237 
   15000    91.181969   -8187.5823   -7641.5439    -513.0476     102002.7      46.7237      46.7237      46.7237 
   16000     92.50091   -8211.0605   -7657.1237   -703.20631     102002.7      46.7237      46.7237      46.7237 
   17000    91.774573   -8189.9566   -7640.3694    -857.4227     102002.7      46.7237      46.7237      46.7237 
   18000     93.43756   -8209.2076   -7649.6617   -688.49739     102002.7      46.7237      46.7237      46.7237 
   19000    92.062673   -8216.0399   -7664.7274   -755.69287     102002.7      46.7237      46.7237      46.7237 
   20000    91.851023   -8220.4696   -7670.4246    -736.8196     102002.7      46.7237      46.7237      46.7237 
   21000    90.554002   -8214.4801   -7672.2022   -974.34865     102002.7      46.7237      46.7237      46.7237 
   22000    86.721148    -8195.169   -7675.8439   -687.43031     102002.7      46.7237      46.7237      46.7237 
   23000    92.812233    -8183.051   -7627.2499   -883.10039     102002.7      46.7237      46.7237      46.7237 
   24000    90.417533   -8210.8157   -7669.3551   -727.23557     102002.7      46.7237      46.7237      46.7237 
   25000    96.123326   -8177.5514   -7601.9219   -956.47538     102002.7      46.7237      46.7237      46.7237 
   26000     91.13385   -8214.1313   -7668.3811   -673.51597     102002.7      46.7237      46.7237      46.7237 
   27000    88.509683   -8212.1408   -7682.1052   -593.61379     102002.7      46.7237      46.7237      46.7237 
   28000    92.265829   -8201.8492   -7649.3201   -635.62219     102002.7      46.7237      46.7237      46.7237 
   29000    89.591414   -8204.5078   -7667.9943   -858.24766     102002.7      46.7237      46.7237      46.7237 
   30000    91.163783   -8188.7065    -7642.777   -821.65174     102002.7      46.7237      46.7237      46.7237 
   31000    89.599244   -8209.9696   -7673.4093    -756.3424     102002.7      46.7237      46.7237      46.7237 
   32000    91.828621   -8206.5996   -7656.6888    -1161.081     102002.7      46.7237      46.7237      46.7237 
   33000    96.028011   -8195.6524   -7620.5937   -733.23845     102002.7      46.7237      46.7237      46.7237 
   34000    89.098629   -8200.1038   -7666.5414   -670.28607     102002.7      46.7237      46.7237      46.7237 
   35000    90.120837   -8193.7739     -7654.09   -806.29346     102002.7      46.7237      46.7237      46.7237 
   36000     91.39277   -8203.4934   -7656.1926   -994.64374     102002.7      46.7237      46.7237      46.7237 
   37000    92.134766   -8202.6058   -7650.8616   -968.31048     102002.7      46.7237      46.7237      46.7237 
   38000    91.476704   -8204.7561   -7656.9527   -826.14854     102002.7      46.7237      46.7237      46.7237 
   39000    92.921566   -8193.7949    -7637.339   -865.52634     102002.7      46.7237      46.7237      46.7237 
   40000    92.562001   -8193.9429   -7639.6403    -776.3576     102002.7      46.7237      46.7237      46.7237 
   41000    90.621493   -8214.2915   -7671.6095   -856.74736     102002.7      46.7237      46.7237      46.7237 
   42000    92.747157   -8206.8776   -7651.4661   -684.19976     102002.7      46.7237      46.7237      46.7237 
   43000    90.627559   -8203.4131   -7660.6948   -893.83475     102002.7      46.7237      46.7237      46.7237 
   44000    90.418912   -8203.0219    -7661.553   -775.82434     102002.7      46.7237      46.7237      46.7237 
   45000     92.08979   -8199.6896   -7648.2147   -148.86376     102002.7      46.7237      46.7237      46.7237 
   46000    91.418132   -8183.2064   -7635.7538   -769.79779     102002.7      46.7237      46.7237      46.7237 
   47000    94.900033   -8205.5441   -7637.2403   -836.56251     102002.7      46.7237      46.7237      46.7237 
   48000    89.702683   -8198.2718    -7661.092   -816.70205     102002.7      46.7237      46.7237      46.7237 
   49000    89.500107   -8201.9181   -7665.9514    -738.8222     102002.7      46.7237      46.7237      46.7237 
   50000    92.055457   -8196.1669   -7644.8976   -710.55065     102002.7      46.7237      46.7237      46.7237 
   51000    89.174811   -8211.8576   -7677.8389   -644.72555     102002.7      46.7237      46.7237      46.7237 
   52000    92.207358   -8174.0696   -7621.8907   -660.38115     102002.7      46.7237      46.7237      46.7237 
   53000     87.27667   -8198.0607   -7675.4089   -537.45308     102002.7      46.7237      46.7237      46.7237 
   54000    91.027722    -8193.859   -7648.7443    -1016.903     102002.7      46.7237      46.7237      46.7237 
   55000    88.653527   -8195.7717   -7664.8747   -791.81195     102002.7      46.7237      46.7237      46.7237 
   56000    89.747141   -8187.9215   -7650.4754   -640.94072     102002.7      46.7237      46.7237      46.7237 
   57000    90.484851   -8200.3236   -7658.4599    -600.7726     102002.7      46.7237      46.7237      46.7237 
   58000    91.727045   -8217.3765   -7668.0739   -697.72912     102002.7      46.7237      46.7237      46.7237 
   59000    92.078517   -8204.6962   -7653.2889   -970.94908     102002.7      46.7237      46.7237      46.7237 
   60000    91.806365   -8207.2697   -7657.4921   -771.47311     102002.7      46.7237      46.7237      46.7237 
   61000     92.09343   -8214.7844   -7663.2877    -997.8591     102002.7      46.7237      46.7237      46.7237 
   62000    92.303059   -8213.4186   -7660.6666   -901.19351     102002.7      46.7237      46.7237      46.7237 
   63000    92.891834    -8202.338   -7646.0601   -624.62711     102002.7      46.7237      46.7237      46.7237 
   64000    91.903907   -8210.4498   -7660.0881   -775.04806     102002.7      46.7237      46.7237      46.7237 
   65000     92.41082   -8182.9154   -7629.5181   -727.50637     102002.7      46.7237      46.7237      46.7237 
   66000    92.646772   -8210.1011   -7655.2908   -808.21525     102002.7      46.7237      46.7237      46.7237 
   67000     91.14651   -8224.1228   -7678.2967   -519.60242     102002.7      46.7237      46.7237      46.7237 
   68000    92.105044   -8204.6461   -7653.0799   -600.99641     102002.7      46.7237      46.7237      46.7237 
   69000    91.653327    -8201.394   -7652.5328   -429.64981     102002.7      46.7237      46.7237      46.7237 
   70000    94.306842   -8207.4032   -7642.6517   -661.89222     102002.7      46.7237      46.7237      46.7237 
   71000    93.823218   -8188.2819   -7626.4265   -701.65611     102002.7      46.7237      46.7237      46.7237 
   72000    93.641726   -8210.3458   -7649.5773   -489.04712     102002.7      46.7237      46.7237      46.7237 
   73000    94.168092   -8203.0838   -7639.1632   -843.79736     102002.7      46.7237      46.7237      46.7237 
   74000    91.784624    -8206.883   -7657.2357   -516.54642     102002.7      46.7237      46.7237      46.7237 
   75000    88.653217   -8214.9381   -7684.0429   -957.36789     102002.7      46.7237      46.7237      46.7237 
   76000    90.129434   -8193.3621   -7653.6267   -489.25266     102002.7      46.7237      46.7237      46.7237 
   77000     91.29382   -8184.8741   -7638.1658   -537.25571     102002.7      46.7237      46.7237      46.7237 
   78000    89.933254   -8214.9087   -7676.3481   -743.65161     102002.7      46.7237      46.7237      46.7237 
   79000    91.083346   -8205.8973   -7660.4494   -682.82626     102002.7      46.7237      46.7237      46.7237 
   80000    89.576979   -8208.9153   -7672.4883   -566.12831     102002.7      46.7237      46.7237      46.7237 
   81000    93.740236   -8191.9921   -7630.6336    -635.6243     102002.7      46.7237      46.7237      46.7237 
   82000    90.596066   -8219.4636   -7676.9338   -646.47278     102002.7      46.7237      46.7237      46.7237 
   83000    88.487122   -8204.4133   -7674.5128   -664.92751     102002.7      46.7237      46.7237      46.7237 
   84000    90.115581   -8197.4921   -7657.8397   -576.65562     102002.7      46.7237      46.7237      46.7237 
   85000    90.664969   -8200.3997   -7657.4573   -558.24336     102002.7      46.7237      46.7237      46.7237 
   86000    92.533592    -8201.106   -7646.9735   -1003.9272     102002.7      46.7237      46.7237      46.7237 
   87000    92.925362   -8194.5059   -7638.0273   -671.00279     102002.7      46.7237      46.7237      46.7237 
   88000    88.721827   -8203.5379   -7672.2319   -796.60473     102002.7      46.7237      46.7237      46.7237 
   89000    93.263462    -8185.636   -7627.1327   -876.90334     102002.7      46.7237      46.7237      46.7237 
   90000    89.442592   -8199.9124   -7664.2901   -797.03343     102002.7      46.7237      46.7237      46.7237 
   91000    90.636524   -8208.1913   -7665.4192   -589.02951     102002.7      46.7237      46.7237      46.7237 
   92000    92.770484   -8210.2844   -7654.7333   -755.97996     102002.7      46.7237      46.7237      46.7237 
   93000    93.218772   -8197.0332   -7638.7975    -509.5493     102002.7      46.7237      46.7237      46.7237 
   94000    90.507234   -8193.6562   -7651.6584   -817.62588     102002.7      46.7237      46.7237      46.7237 
   95000    91.469647   -8198.9609   -7651.1998   -819.41998     102002.7      46.7237      46.7237      46.7237 
   96000      90.3215   -8201.0731   -7660.1876   -879.49499     102002.7      46.7237      46.7237      46.7237 
   97000    92.071546   -8190.3207   -7638.9551   -647.79239     102002.7      46.7237      46.7237      46.7237 
   98000    89.992355   -8203.1525    -7664.238   -826.89322     102002.7      46.7237      46.7237      46.7237 
   99000    91.478943   -8221.0638   -7673.2469   -743.97347     102002.7      46.7237      46.7237      46.7237 
  100000     92.28829   -8188.6276    -7635.964   -570.70071     102002.7      46.7237      46.7237      46.7237 
  101000    90.769059   -8191.6203   -7648.0545   -772.46965     102002.7      46.7237      46.7237      46.7237 
  102000    89.462926     -8202.55    -7666.806   -851.21866     102002.7      46.7237      46.7237      46.7237 
  103000    88.387541   -8200.9247   -7671.6206    -771.3568     102002.7      46.7237      46.7237      46.7237 
  104000    90.893211   -8208.6347   -7664.3255   -734.82331     102002.7      46.7237      46.7237      46.7237 
  105000    91.561098   -8200.0818    -7651.773   -732.86557     102002.7      46.7237      46.7237      46.7237 
  106000    88.775578   -8194.4776   -7662.8497   -752.70995     102002.7      46.7237      46.7237      46.7237 
  107000    94.849606   -8207.7257   -7639.7238   -636.35211     102002.7      46.7237      46.7237      46.7237 
  108000    92.442279   -8202.6539   -7649.0682   -811.89575     102002.7      46.7237      46.7237      46.7237 
  109000    91.533283    -8217.457   -7669.3147   -660.09128     102002.7      46.7237      46.7237      46.7237 
  110000    90.469546   -8203.1753   -7661.4032   -840.83841     102002.7      46.7237      46.7237      46.7237 
  111000    91.410406   -8195.8981   -7648.4917    -1087.975     102002.7      46.7237      46.7237      46.7237 
  112000    92.666986   -8197.1555   -7642.2241   -749.07558     102002.7      46.7237      46.7237      46.7237 
  113000    89.303121   -8190.4425   -7655.6554   -680.21358     102002.7      46.7237      46.7237      46.7237 
  114000    92.483972    -8195.156   -7641.3206   -861.49093     102002.7      46.7237      46.7237      46.7237 
  115000    91.508654   -8191.4353   -7643.4405   -592.58172     102002.7      46.7237      46.7237      46.7237 
  116000     90.65709   -8179.3886   -7636.4934   -663.54264     102002.7      46.7237      46.7237      46.7237 
  117000    89.443523   -8202.2918    -7666.664   -744.09927     102002.7      46.7237      46.7237      46.7237 
  118000    90.044791   -8196.7558   -7657.5273   -563.55819     102002.7      46.7237      46.7237      46.7237 
  119000    94.493577   -8177.5473   -7611.6774   -700.13733     102002.7      46.7237      46.7237      46.7237 
  120000    87.493052   -8191.4389   -7667.4914   -550.77123     102002.7      46.7237      46.7237      46.7237 
  121000    90.075386   -8191.3679   -7651.9561   -630.40343     102002.7      46.7237      46.7237      46.7237 
  122000      92.9053   -8208.2585      -7651.9   -679.57311     102002.7      46.7237      46.7237      46.7237 
  123000    93.980058   -8192.5252   -7629.7306    -502.3806     102002.7      46.7237      46.7237      46.7237 
  124000     95.45606   -8217.9293   -7646.2957   -556.45183     102002.7      46.7237      46.7237      46.7237 
  125000    90.179194   -8189.3269   -7649.2935   -733.94562     102002.7      46.7237      46.7237      46.7237 
  126000    88.934514   -8202.9181   -7670.3384   -589.66605     102002.7      46.7237      46.7237      46.7237 
  127000    91.031702   -8181.1294   -7635.9909   -767.77152     102002.7      46.7237      46.7237      46.7237 
  128000    87.327741   -8205.3071   -7682.3495   -601.45428     102002.7      46.7237      46.7237      46.7237 
  129000    91.262503   -8206.4934   -7659.9727   -692.51829     102002.7      46.7237      46.7237      46.7237 
  130000    93.328217   -8184.9004   -7626.0093   -727.03922     102002.7      46.7237      46.7237      46.7237 
  131000    89.757675   -8194.2399   -7656.7308    -643.1069     102002.7      46.7237      46.7237      46.7237 
  132000    91.665421   -8212.8669   -7663.9334   -937.79662     102002.7      46.7237      46.7237      46.7237 
  133000    93.562214   -8192.3613   -7632.0689   -767.77433     102002.7      46.7237      46.7237      46.7237 
  134000    90.653549   -8190.9231   -7648.0491   -594.10422     102002.7      46.7237      46.7237      46.7237 
  135000    91.464368    -8206.545   -7658.8155    -503.8442     102002.7      46.7237      46.7237      46.7237 
  136000    92.214066   -8203.1964   -7650.9773   -778.34332     102002.7      46.7237      46.7237      46.7237 
  137000    89.719072   -8205.7257   -7668.4477   -1129.4969     102002.7      46.7237      46.7237      46.7237 
  138000    92.105219   -8202.5409   -7650.9737   -823.09265     102002.7      46.7237      46.7237      46.7237 
  139000    89.642275   -8208.6723   -7671.8542   -924.74206     102002.7      46.7237      46.7237      46.7237 
  140000    90.919372   -8201.3188    -7656.853   -816.25353     102002.7      46.7237      46.7237      46.7237 
  141000    94.390201   -8206.8034   -7641.5527   -827.23039     102002.7      46.7237      46.7237      46.7237 
  142000    90.283289   -8211.4156   -7670.7588   -825.06947     102002.7      46.7237      46.7237      46.7237 
  143000    89.018074   -8191.3233   -7658.2433    -796.4087     102002.7      46.7237      46.7237      46.7237 
  144000    93.248189    -8194.872   -7636.4601   -780.78809     102002.7      46.7237      46.7237      46.7237 
  145000    91.680066   -8185.6839   -7636.6627   -1098.5163     102002.7      46.7237      46.7237      46.7237 
  146000     90.49406   -8186.6406   -7644.7217   -774.12435     102002.7      46.7237      46.7237      46.7237 
  147000    89.156322   -8201.7751   -7667.8671   -504.73513     102002.7      46.7237      46.7237      46.7237 
  148000    93.703947   -8211.2076   -7650.0664   -763.57002     102002.7      46.7237      46.7237      46.7237 
  149000    92.539671   -8200.1759   -7646.0069   -826.61987     102002.7      46.7237      46.7237      46.7237 
  150000    91.140031   -8226.9699   -7681.1826   -773.59847     102002.7      46.7237      46.7237      46.7237 
  151000    91.788927   -8198.9978   -7649.3246   -680.92582     102002.7      46.7237      46.7237      46.7237 
  152000    91.614864   -8199.3133   -7650.6825   -999.27986     102002.7      46.7237      46.7237      46.7237 
  153000    96.187598   -8205.9887   -7629.9744   -602.30799     102002.7      46.7237      46.7237      46.7237 
  154000    90.152311   -8207.3453    -7667.473   -903.16401     102002.7      46.7237      46.7237      46.7237 
  155000    91.283298   -8192.4806   -7645.8354   -874.80898     102002.7      46.7237      46.7237      46.7237 
  156000    92.765362   -8184.9613   -7629.4408   -937.39191     102002.7      46.7237      46.7237      46.7237 
  157000    90.268477   -8202.9161   -7662.3481   -749.24739     102002.7      46.7237      46.7237      46.7237 
  158000    88.322824   -8191.4288   -7662.5122   -710.67237     102002.7      46.7237      46.7237      46.7237 
  159000    92.806476   -8188.5963   -7632.8296   -620.92103     102002.7      46.7237      46.7237      46.7237 
  160000    88.665495   -8196.3004   -7665.3318   -608.53541     102002.7      46.7237      46.7237      46.7237 
  161000    87.365977   -8186.3294   -7663.1428   -729.86083     102002.7      46.7237      46.7237      46.7237 
  162000    92.464092   -8197.4863   -7643.7699   -661.99106     102002.7      46.7237      46.7237      46.7237 
  163000    90.449711   -8163.2831   -7621.6298    -615.2391     102002.7      46.7237      46.7237      46.7237 
  164000    89.461873   -8203.3024   -7667.5647   -773.64784     102002.7      46.7237      46.7237      46.7237 
  165000    90.900496   -8189.7998    -7645.447   -851.49817     102002.7      46.7237      46.7237      46.7237 
  166000    90.165921   -8174.8073   -7634.8535   -1063.2118     102002.7      46.7237      46.7237      46.7237 
  167000    91.750338   -8190.2451    -7640.803   -979.15389     102002.7      46.7237      46.7237      46.7237 
  168000    90.262724   -8206.7984   -7666.2648    -859.0079     102002.7      46.7237      46.7237      46.7237 
  169000    90.625461   -8195.3721   -7652.6663   -1037.3925     102002.7      46.7237      46.7237      46.7237 
  170000    90.605228   -8214.9523   -7672.3677    -880.0877     102002.7      46.7237      46.7237      46.7237 
  171000    87.832344   -8176.5561   -7650.5767   -1004.5542     102002.7      46.7237      46.7237      46.7237 
  172000    91.230688   -8185.8848   -7639.5546   -773.18163     102002.7      46.7237      46.7237      46.7237 
  173000    88.487834   -8201.4408   -7671.5361   -851.50056     102002.7      46.7237      46.7237      46.7237 
  174000    94.424648   -8178.4165   -7612.9595    -866.9909     102002.7      46.7237      46.7237      46.7237 
  175000    95.964198   -8215.5419   -7640.8654   -580.46434     102002.7      46.7237      46.7237      46.7237 
  176000    91.604926   -8196.1427   -7647.5714   -853.89595     102002.7      46.7237      46.7237      46.7237 
  177000    88.046877   -8193.0352   -7665.7711    -652.3192     102002.7      46.7237      46.7237      46.7237 
  178000     90.74283   -8201.5507    -7658.142   -617.92922     102002.7      46.7237      46.7237      46.7237 
  179000     90.75961   -8180.2453   -7636.7362   -480.90554     102002.7      46.7237      46.7237      46.7237 
  180000    90.275131   -8214.1693   -7673.5614   -458.74809     102002.7      46.7237      46.7237      46.7237 
  181000    92.187292   -8213.2056   -7661.1468   -752.54516     102002.7      46.7237      46.7237      46.7237 
  182000     90.56638   -8216.2935   -7673.9415   -860.38442     102002.7      46.7237      46.7237      46.7237 
  183000    92.846089   -8215.7872   -7659.7833   -824.01922     102002.7      46.7237      46.7237      46.7237 
  184000    93.230809   -8201.9827   -7643.6749   -577.63829     102002.7      46.7237      46.7237      46.7237 
  185000    93.148858   -8194.5774   -7636.7604   -541.13913     102002.7      46.7237      46.7237      46.7237 
  186000    89.593216   -8194.4385   -7657.9143   -763.25013     102002.7      46.7237      46.7237      46.7237 
  187000     91.16156   -8185.6198   -7639.7036   -938.25716     102002.7      46.7237      46.7237      46.7237 
  188000    87.868011   -8201.2019   -7675.0089   -828.03967     102002.7      46.7237      46.7237      46.7237 
  189000    92.060825   -8218.1931   -7666.8917   -676.46927     102002.7      46.7237      46.7237      46.7237 
  190000    91.298205   -8192.3758   -7645.6413   -623.05746     102002.7      46.7237      46.7237      46.7237 
  191000    90.079036   -8204.6554   -7665.2219   -846.47631     102002.7      46.7237      46.7237      46.7237 
  192000    92.151495   -8216.4592   -7664.6148   -1013.5186     102002.7      46.7237      46.7237      46.7237 
  193000    87.670089   -8214.5755   -7689.5678   -506.84532     102002.7      46.7237      46.7237      46.7237 
  194000    92.428996   -8198.6371   -7645.1309   -835.11446     102002.7      46.7237      46.7237      46.7237 
  195000    91.536937   -8205.9123   -7657.7481   -1014.7906     102002.7      46.7237      46.7237      46.7237 
  196000    88.454238   -8215.3163   -7685.6128   -725.96151     102002.7      46.7237      46.7237      46.7237 
  197000    93.223176   -8195.4758   -7637.2137   -845.68357     102002.7      46.7237      46.7237      46.7237 
  198000    92.461945   -8213.1795    -7659.476   -704.87162     102002.7      46.7237      46.7237      46.7237 
  199000    88.706378   -8210.0109   -7678.7974   -800.67906     102002.7      46.7237      46.7237      46.7237 
  200000    89.292473   -8182.2445   -7647.5212   -604.64433     102002.7      46.7237      46.7237      46.7237 
  201000    91.590458   -8207.9895   -7659.5049   -871.04882     102002.7      46.7237      46.7237      46.7237 
  202000    92.749667   -8174.9514   -7619.5249   -691.97973     102002.7      46.7237      46.7237      46.7237 
  203000    91.973492   -8216.9363   -7666.1579   -817.08747     102002.7      46.7237      46.7237      46.7237 
  204000    93.994466   -8186.3923   -7623.5113   -917.04822     102002.7      46.7237      46.7237      46.7237 
  205000    92.381632   -8205.4399   -7652.2174   -720.33826     102002.7      46.7237      46.7237      46.7237 
  206000    89.951124   -8190.4466   -7651.7791   -699.67352     102002.7      46.7237      46.7237      46.7237 
  207000    90.277877   -8213.7681   -7673.1437   -651.49174     102002.7      46.7237      46.7237      46.7237 
  208000    90.990826   -8204.1337   -7659.2399   -864.82635     102002.7      46.7237      46.7237      46.7237 
  209000    88.909292   -8194.9954   -7662.5667   -833.23086     102002.7      46.7237      46.7237      46.7237 
  210000    91.877699   -8197.7958    -7647.591   -809.15327     102002.7      46.7237      46.7237      46.7237 
  211000    90.018024   -8180.5852    -7641.517   -865.65821     102002.7      46.7237      46.7237      46.7237 
  212000    93.383318   -8196.9048   -7637.6837   -808.21433     102002.7      46.7237      46.7237      46.7237 
  213000    89.678649   -8198.8019    -7661.766   -818.50968     102002.7      46.7237      46.7237      46.7237 
  214000    92.310098   -8195.7397   -7642.9455   -659.46272     102002.7      46.7237      46.7237      46.7237 
  215000    90.289866   -8188.9963   -7648.3002   -921.94263     102002.7      46.7237      46.7237      46.7237 
  216000    89.541804   -8210.9518   -7674.7354   -1172.8978     102002.7      46.7237      46.7237      46.7237 
  217000    92.681659   -8185.9306   -7630.9114   -935.71512     102002.7      46.7237      46.7237      46.7237 
  218000    89.650333   -8193.5897   -7656.7234   -854.82918     102002.7      46.7237      46.7237      46.7237 
  219000    90.054817   -8205.2669   -7665.9784   -1085.8051     102002.7      46.7237      46.7237      46.7237 
  220000    93.309443   -8200.1514   -7641.3727   -759.79747     102002.7      46.7237      46.7237      46.7237 
  221000    93.950513   -8191.3264   -7628.7087   -1012.0845     102002.7      46.7237      46.7237      46.7237 
  222000    90.581134   -8196.7223   -7654.2819   -814.41405     102002.7      46.7237      46.7237      46.7237 
  223000    87.604588   -8183.5575   -7658.9421   -887.97148     102002.7      46.7237      46.7237      46.7237 
  224000    92.643727   -8184.8848   -7630.0927    -665.9938     102002.7      46.7237      46.7237      46.7237 
  225000    92.259669   -8186.3927   -7633.9005   -828.40436     102002.7      46.7237      46.7237      46.7237 
  226000    90.288119   -8199.9395   -7659.2539   -935.02103     102002.7      46.7237      46.7237      46.7237 
  227000    95.012706   -8162.7675   -7593.7889   -833.75057     102002.7      46.7237      46.7237      46.7237 
  228000    89.987894   -8199.9022   -7661.0145   -964.34396     102002.7      46.7237      46.7237      46.7237 
  229000    89.197887   -8180.8006   -7646.6437   -645.65183     102002.7      46.7237      46.7237      46.7237 
  230000    88.505552   -8199.0652   -7669.0544   -792.78177     102002.7      46.7237      46.7237      46.7237 
  231000    90.251376   -8181.4356     -7640.97   -527.34626     102002.7      46.7237      46.7237      46.7237 
  232000    91.264567   -8186.4415   -7639.9084   -486.89062     102002.7      46.7237      46.7237      46.7237 
  233000    86.424103   -8205.3106   -7687.7644   -809.32982     102002.7      46.7237      46.7237      46.7237 
  234000    90.546853   -8178.1307   -7635.8957   -870.69098     102002.7      46.7237      46.7237      46.7237 
  235000    87.318399   -8197.8935   -7674.9919    -752.0857     102002.7      46.7237      46.7237      46.7237 
  236000    88.554031   -8183.0706   -7652.7694   -750.55334     102002.7      46.7237      46.7237      46.7237 
  237000    92.122938   -8171.6584    -7619.985    -602.4635     102002.7      46.7237      46.7237      46.7237 
  238000    89.362328    -8188.299   -7653.1574   -765.74886     102002.7      46.7237      46.7237      46.7237 
  239000    91.906768   -8189.8047   -7639.4259   -658.07093     102002.7      46.7237      46.7237      46.7237 
  240000    94.287625    -8185.304   -7620.6675   -526.63283     102002.7      46.7237      46.7237      46.7237 
  241000    94.633589   -8207.6508   -7640.9426   -507.40336     102002.7      46.7237      46.7237      46.7237 
  242000    93.302749   -8200.2375   -7641.4989   -784.47316     102002.7      46.7237      46.7237      46.7237 
  243000    89.254654   -8198.1351   -7663.6383   -702.37603     102002.7      46.7237      46.7237      46.7237 
  244000    91.125711   -8177.4977   -7631.7962   -735.83471     102002.7      46.7237      46.7237      46.7237 
  245000    93.517042   -8217.0854   -7657.0635   -425.31694     102002.7      46.7237      46.7237      46.7237 
  246000    91.816865   -8202.7572   -7652.9167   -941.96507     102002.7      46.7237      46.7237      46.7237 
  247000    90.242822   -8176.4068   -7635.9924   -548.52196     102002.7      46.7237      46.7237      46.7237 
  248000    90.587219   -8189.7594   -7647.2826   -700.48141     102002.7      46.7237      46.7237      46.7237 
  249000    90.771101   -8208.5509    -7664.973   -418.65559     102002.7      46.7237      46.7237      46.7237 
  250000    92.366849   -8211.0203   -7657.8863   -706.93667     102002.7      46.7237      46.7237      46.7237 
  251000    91.409829   -8191.6052   -7644.2022   -875.04728     102002.7      46.7237      46.7237      46.7237 
  252000    90.960621   -8174.8521   -7630.1392   -835.74931     102002.7      46.7237      46.7237      46.7237 
  253000    88.392171   -8172.4516   -7643.1197   -828.39803     102002.7      46.7237      46.7237      46.7237 
  254000    91.774877   -8192.3598   -7642.7708   -739.35023     102002.7      46.7237      46.7237      46.7237 
  255000    93.392168   -8199.9644   -7640.6903   -690.84165     102002.7      46.7237      46.7237      46.7237 
  256000    89.299816   -8193.8913    -7659.124   -716.48631     102002.7      46.7237      46.7237      46.7237 
  257000    91.332627   -8204.8863   -7657.9457   -954.70751     102002.7      46.7237      46.7237      46.7237 
  258000    91.123912   -8197.6873   -7651.9965   -569.50935     102002.7      46.7237      46.7237      46.7237 
  259000    92.839932   -8182.7731   -7626.8061   -859.95481     102002.7      46.7237      46.7237      46.7237 
  260000    90.930905   -8197.8845   -7653.3496   -573.63319     102002.7      46.7237      46.7237      46.7237 
  261000    89.905294   -8189.1409   -7650.7478   -838.51591     102002.7      46.7237      46.7237      46.7237 
  262000    88.033369   -8188.4057   -7661.2225   -559.84818     102002.7      46.7237      46.7237      46.7237 
  263000    91.368719   -8219.8926   -7672.7358   -587.59207     102002.7      46.7237      46.7237      46.7237 
  264000    90.145368   -8220.0918    -7680.261    -830.6548     102002.7      46.7237      46.7237      46.7237 
  265000    89.617542   -8191.9548   -7655.2848   -551.42445     102002.7      46.7237      46.7237      46.7237 
  266000    91.981077   -8210.8882   -7660.0643    -867.5661     102002.7      46.7237      46.7237      46.7237 
  267000     91.58797   -8212.9981   -7664.5283   -609.73816     102002.7      46.7237      46.7237      46.7237 
  268000    94.007097   -8202.4379   -7639.4814   -893.56532     102002.7      46.7237      46.7237      46.7237 
  269000    89.992599   -8199.5674   -7660.6515   -956.97405     102002.7      46.7237      46.7237      46.7237 
  270000    90.460331   -8174.1677   -7632.4508    -835.7492     102002.7      46.7237      46.7237      46.7237 
  271000    93.713132   -8206.9181   -7645.7219   -983.22949     102002.7      46.7237      46.7237      46.7237 
  272000    89.910025   -8215.8637   -7677.4422   -804.38383     102002.7      46.7237      46.7237      46.7237 
  273000    92.941152   -8198.1087   -7641.5355   -784.88858     102002.7      46.7237      46.7237      46.7237 
  274000     91.73235   -8185.9029   -7636.5685   -766.58271     102002.7      46.7237      46.7237      46.7237 
  275000    90.446107   -8199.5785   -7657.9468    -660.4625     102002.7      46.7237      46.7237      46.7237 
  276000    92.691433   -8190.8417   -7635.7639   -807.94417     102002.7      46.7237      46.7237      46.7237 
  277000    90.228606   -8194.3947   -7654.0655    -597.4751     102002.7      46.7237      46.7237      46.7237 
  278000     92.79364   -8203.4332   -7647.7434   -717.47985     102002.7      46.7237      46.7237      46.7237 
  279000    92.534232   -8193.9687   -7639.8323   -776.75967     102002.7      46.7237      46.7237      46.7237 
  280000    90.992559   -8202.5587   -7657.6546   -801.28531     102002.7      46.7237      46.7237      46.7237 
  281000    93.266766   -8201.3358   -7642.8127   -872.28433     102002.7      46.7237      46.7237      46.7237 
  282000    94.227526   -8190.8933   -7626.6167   -733.13251     102002.7      46.7237      46.7237      46.7237 
  283000     94.44151   -8193.8884   -7628.3304   -995.25078     102002.7      46.7237      46.7237      46.7237 
  284000     89.92988   -8198.5249   -7659.9845   -665.50153     102002.7      46.7237      46.7237      46.7237 
  285000    90.801502    -8211.713    -7667.953   -617.69731     102002.7      46.7237      46.7237      46.7237 
  286000    91.189469   -8204.6089   -7658.5255   -817.99991     102002.7      46.7237      46.7237      46.7237 
  287000    90.694569   -8206.0158   -7662.8962   -907.52157     102002.7      46.7237      46.7237      46.7237 
  288000    91.000527   -8201.8476   -7656.8958   -962.96896     102002.7      46.7237      46.7237      46.7237 
  289000    93.527169    -8196.432   -7636.3495   -886.26762     102002.7      46.7237      46.7237      46.7237 
  290000    89.929008   -8196.3568   -7657.8217    -503.2801     102002.7      46.7237      46.7237      46.7237 
  291000    88.646617   -8206.4687   -7675.6131   -646.88524     102002.7      46.7237      46.7237      46.7237 
  292000    91.658461   -8192.6289    -7643.737   -703.52882     102002.7      46.7237      46.7237      46.7237 
  293000    92.262126   -8203.2429    -7650.736    -1061.868     102002.7      46.7237      46.7237      46.7237 
  294000    89.231352    -8195.674   -7661.3168   -576.48023     102002.7      46.7237      46.7237      46.7237 
  295000    90.168705   -8183.4628   -7643.4923   -785.41681     102002.7      46.7237      46.7237      46.7237 
  296000    92.665515   -8174.7024   -7619.7799   -392.62138     102002.7      46.7237      46.7237      46.7237 
  297000    92.520968   -8200.7902   -7646.7333   -490.92206     102002.7      46.7237      46.7237      46.7237 
  298000    89.821729     -8184.59   -7646.6973   -525.41774     102002.7      46.7237      46.7237      46.7237 
  299000    90.665687   -8210.2756   -7667.3289   -499.90453     102002.7      46.7237      46.7237      46.7237 
  300000    92.708696   -8197.0171    -7641.836   -705.43684     102002.7      46.7237      46.7237      46.7237 
  301000    91.824108   -8210.0947   -7660.2108   -616.72255     102002.7      46.7237      46.7237      46.7237 
  302000    90.309193   -8203.2802   -7662.4684   -839.78477     102002.7      46.7237      46.7237      46.7237 
  303000    87.856321   -8188.9918   -7662.8689    -842.1262     102002.7      46.7237      46.7237      46.7237 
  304000      89.8889   -8206.1506   -7667.8557   -878.57173     102002.7      46.7237      46.7237      46.7237 
  305000    92.001714   -8195.1631   -7644.2157   -891.67223     102002.7      46.7237      46.7237      46.7237 
  306000    91.398543   -8218.1981   -7670.8627   -786.15099     102002.7      46.7237      46.7237      46.7237 
  307000    90.113088   -8189.8986   -7650.2612   -664.78547     102002.7      46.7237      46.7237      46.7237 
  308000    91.094893   -8188.8296   -7643.3126   -794.51103     102002.7      46.7237      46.7237      46.7237 
  309000    90.956819   -8203.0265   -7658.3364    -693.4028     102002.7      46.7237      46.7237      46.7237 
  310000    91.702154   -8202.8859   -7653.7323   -543.34999     102002.7      46.7237      46.7237      46.7237 
  311000    90.492525   -8186.4483   -7644.5386    -829.8846     102002.7      46.7237      46.7237      46.7237 
  312000    91.788696   -8211.0853   -7661.4135   -752.15206     102002.7      46.7237      46.7237      46.7237 
  313000    91.386468   -8185.4968   -7638.2338   -795.82049     102002.7      46.7237      46.7237      46.7237 
  314000     87.38256   -8195.8776   -7672.5917   -625.66232     102002.7      46.7237      46.7237      46.7237 
  315000    90.060676   -8178.8887   -7639.5651   -664.69126     102002.7      46.7237      46.7237      46.7237 
  316000    88.090636   -8198.8433   -7671.3172   -673.27968     102002.7      46.7237      46.7237      46.7237 
  317000    95.275341   -8201.0943   -7630.5429   -523.26144     102002.7      46.7237      46.7237      46.7237 
  318000    91.097952   -8190.4915   -7644.9562   -499.32492     102002.7      46.7237      46.7237      46.7237 
  319000    90.882675   -8193.7329   -7649.4868   -523.85322     102002.7      46.7237      46.7237      46.7237 
  320000    92.442328   -8192.7036   -7639.1176   -489.06866     102002.7      46.7237      46.7237      46.7237 
  321000    87.580489   -8197.8271    -7673.356   -640.43078     102002.7      46.7237      46.7237      46.7237 
  322000    90.352646   -8197.6088   -7656.5367   -647.31745     102002.7      46.7237      46.7237      46.7237 
  323000    90.608759   -8192.6541   -7650.0483   -762.12094     102002.7      46.7237      46.7237      46.7237 
  324000    93.145653    -8199.751   -7641.9531   -899.53013     102002.7      46.7237      46.7237      46.7237 
  325000    90.900422   -8194.2745   -7649.9221   -849.39674     102002.7      46.7237      46.7237      46.7237 
  326000    91.157824   -8193.3976   -7647.5037   -830.15242     102002.7      46.7237      46.7237      46.7237 
  327000    88.576495   -8198.1701   -7667.7344   -582.62693     102002.7      46.7237      46.7237      46.7237 
  328000    91.261552   -8211.8301   -7665.3151   -747.67697     102002.7      46.7237      46.7237      46.7237 
  329000    91.426923    -8199.887   -7652.3817   -776.57856     102002.7      46.7237      46.7237      46.7237 
  330000    91.092436   -8203.9558   -7658.4536   -913.63336     102002.7      46.7237      46.7237      46.7237 
  331000    91.399628   -8183.1235   -7635.7816   -826.31945     102002.7      46.7237      46.7237      46.7237 
  332000    88.974259   -8193.6019   -7660.7842   -935.28031     102002.7      46.7237      46.7237      46.7237 
  333000    92.702132   -8169.7235   -7614.5816    -821.9779     102002.7      46.7237      46.7237      46.7237 
  334000    91.671278   -8203.9064   -7654.9377   -935.61303     102002.7      46.7237      46.7237      46.7237 
  335000    91.734337   -8186.9708   -7637.6246   -708.74069     102002.7      46.7237      46.7237      46.7237 
  336000    90.517605   -8183.9151   -7641.8552    -687.9825     102002.7      46.7237      46.7237      46.7237 
  337000    91.910551   -8211.5236   -7661.1221   -900.94998     102002.7      46.7237      46.7237      46.7237 
  338000    89.390181   -8205.5236   -7670.2152   -931.65611     102002.7      46.7237      46.7237      46.7237 
  339000     88.60508   -8183.7841   -7653.1772   -715.17934     102002.7      46.7237      46.7237      46.7237 
  340000     89.54453   -8189.8836   -7653.6509   -753.41056     102002.7      46.7237      46.7237      46.7237 
  341000    90.132321   -8183.9809   -7644.2282   -803.34321     102002.7      46.7237      46.7237      46.7237 
  342000    89.054924   -8191.7657    -7658.465   -937.06395     102002.7      46.7237      46.7237      46.7237 
  343000    93.528137    -8178.365   -7618.2767   -711.78026     102002.7      46.7237      46.7237      46.7237 
  344000    91.714535   -8208.0926   -7658.8649   -680.76564     102002.7      46.7237      46.7237      46.7237 
  345000    92.313991   -8198.9859   -7646.1685   -964.60227     102002.7      46.7237      46.7237      46.7237 
  346000    91.855768   -8209.4417   -7659.3683   -538.26834     102002.7      46.7237      46.7237      46.7237 
  347000    90.742194   -8199.2913   -7655.8864   -744.55113     102002.7      46.7237      46.7237      46.7237 
  348000    90.733914   -8209.6873    -7666.332   -678.89344     102002.7      46.7237      46.7237      46.7237 
  349000    94.756239   -8188.4007    -7620.958   -686.30322     102002.7      46.7237      46.7237      46.7237 
  350000    93.041454     -8204.97   -7647.7962   -677.05179     102002.7      46.7237      46.7237      46.7237 
  351000    89.678777   -8193.4421   -7656.4055   -757.59533     102002.7      46.7237      46.7237      46.7237 
  352000    92.941018   -8196.0096   -7639.4372   -709.29046     102002.7      46.7237      46.7237      46.7237 
  353000    92.003453   -8221.4106   -7670.4527   -640.58702     102002.7      46.7237      46.7237      46.7237 
  354000    88.911903   -8179.0318   -7646.5875   -770.10582     102002.7      46.7237      46.7237      46.7237 
  355000    92.134779   -8197.6308   -7645.8865   -698.11515     102002.7      46.7237      46.7237      46.7237 
  356000    88.192833   -8190.8628   -7662.7247   -772.19241     102002.7      46.7237      46.7237      46.7237 
  357000    88.656934   -8199.2174      -7668.3   -927.19152     102002.7      46.7237      46.7237      46.7237 
  358000    89.638518   -8192.2537   -7655.4582   -769.32605     102002.7      46.7237      46.7237      46.7237 
  359000    89.796507   -8194.1261   -7656.3844    -840.1982     102002.7      46.7237      46.7237      46.7237 
  360000    90.458976   -8195.9192   -7654.2103   -625.05088     102002.7      46.7237      46.7237      46.7237 
  361000    92.076276   -8214.4879   -7663.0939   -801.00821     102002.7      46.7237      46.7237      46.7237 
  362000    91.093004   -8206.2879   -7660.7823    -771.2989     102002.7      46.7237      46.7237      46.7237 
  363000    87.820249   -8185.7637   -7659.8568   -840.36391     102002.7      46.7237      46.7237      46.7237 
  364000    91.796816   -8177.8776   -7628.1572   -1168.2523     102002.7      46.7237      46.7237      46.7237 
  365000    90.711687   -8220.5097   -7677.2875   -546.27901     102002.7      46.7237      46.7237      46.7237 
  366000    90.579141   -8180.1257   -7637.6973   -545.21806     102002.7      46.7237      46.7237      46.7237 
  367000    89.067287   -8206.6711   -7673.2964   -650.48895     102002.7      46.7237      46.7237      46.7237 
  368000    89.395065   -8185.2968   -7649.9592   -576.98246     102002.7      46.7237      46.7237      46.7237 
  369000    91.054045   -8193.9939   -7648.7215   -760.69742     102002.7      46.7237      46.7237      46.7237 
  370000    93.458467   -8196.1242   -7636.4531   -729.65833     102002.7      46.7237      46.7237      46.7237 
  371000    96.641237   -8225.3288   -7646.5979   -672.20348     102002.7      46.7237      46.7237      46.7237 
  372000    91.984955   -8218.4611    -7667.614   -1017.2831     102002.7      46.7237      46.7237      46.7237 
  373000    94.066662   -8202.8241   -7639.5109   -592.57727     102002.7      46.7237      46.7237      46.7237 
  374000    90.918849   -8205.6989   -7661.2362   -559.90059     102002.7      46.7237      46.7237      46.7237 
  375000     90.22993     -8207.81   -7667.4728   -824.09755     102002.7      46.7237      46.7237      46.7237 
  376000     91.95304   -8194.3801   -7643.7241   -829.16115     102002.7      46.7237      46.7237      46.7237 
  377000     91.97199   -8200.8861   -7650.1166    -763.4509     102002.7      46.7237      46.7237      46.7237 
  378000    91.070789    -8203.811   -7658.4384   -592.33766     102002.7      46.7237      46.7237      46.7237 
  379000    91.553715   -8211.6302   -7663.3656   -762.77426     102002.7      46.7237      46.7237      46.7237 
  380000     94.02127   -8214.3618   -7651.3203   -561.71413     102002.7      46.7237      46.7237      46.7237 
  381000    90.670067   -8178.4537   -7635.4808    -472.0602     102002.7      46.7237      46.7237      46.7237 
  382000    93.377532   -8194.8573   -7635.6709   -782.25741     102002.7      46.7237      46.7237      46.7237 
  383000    91.131433   -8177.7813   -7632.0455   -490.42685     102002.7      46.7237      46.7237      46.7237 
  384000    90.009625   -8195.3179      -7656.3   -471.55939     102002.7      46.7237      46.7237      46.7237 
  385000    91.571321   -8185.7225   -7637.3525   -693.27843     102002.7      46.7237      46.7237      46.7237 
  386000    90.101419   -8190.2174   -7650.6498   -859.80766     102002.7      46.7237      46.7237      46.7237 
  387000    88.556612   -8200.7718   -7670.4552   -540.57242     102002.7      46.7237      46.7237      46.7237 
  388000    91.039556    -8185.484   -7640.2984   -697.63436     102002.7      46.7237      46.7237      46.7237 
  389000    91.656978   -8208.1116   -7659.2286    -502.3389     102002.7      46.7237      46.7237      46.7237 
  390000    89.752901    -8177.193   -7639.7125   -528.73105     102002.7      46.7237      46.7237      46.7237 
  391000    89.091604   -8202.3519   -7668.8315   -740.56628     102002.7      46.7237      46.7237      46.7237 
  392000    90.092796   -8179.1281   -7639.6121   -609.35374     102002.7      46.7237      46.7237      46.7237 
  393000    91.479151   -8205.4125   -7657.5944   -801.87235     102002.7      46.7237      46.7237      46.7237 
  394000      91.8883    -8192.189   -7641.9207   -921.18822     102002.7      46.7237      46.7237      46.7237 
  395000    92.009567   -8188.7177   -7637.7232   -750.38477     102002.7      46.7237      46.7237      46.7237 
  396000    90.696719    -8200.019   -7656.8865   -792.32036     102002.7      46.7237      46.7237      46.7237 
  397000    92.117531   -8183.3155   -7631.6745   -713.58443     102002.7      46.7237      46.7237      46.7237 
  398000    87.932122   -8175.2089    -7648.632   -738.57544     102002.7      46.7237      46.7237      46.7237 
  399000    93.457222   -8183.5214   -7623.8578   -877.00015     102002.7      46.7237      46.7237      46.7237 
  400000    89.627499   -8174.9561   -7638.2266   -541.72425     102002.7      46.7237      46.7237      46.7237 
  401000    90.529503   -8217.8547   -7675.7235   -855.62097     102002.7      46.7237      46.7237      46.7237 
  402000    89.806834   -8192.4042   -7654.6007   -656.71672     102002.7      46.7237      46.7237      46.7237 
  403000    93.077223   -8181.3584   -7623.9704   -857.85899     102002.7      46.7237      46.7237      46.7237 
  404000    89.553771   -8215.5703   -7679.2823     -648.049     102002.7      46.7237      46.7237      46.7237 
  405000    91.238036   -8204.9821   -7658.6079   -683.26575     102002.7      46.7237      46.7237      46.7237 
  406000    92.172868   -8182.4618   -7630.4895   -644.89322     102002.7      46.7237      46.7237      46.7237 
  407000    92.207391   -8212.4971    -7660.318   -870.60298     102002.7      46.7237      46.7237      46.7237 
  408000    90.735213   -8186.1063   -7642.7433   -545.69306     102002.7      46.7237      46.7237      46.7237 
  409000    89.877031   -8197.0788   -7658.8549   -684.49322     102002.7      46.7237      46.7237      46.7237 
  410000    91.431579   -8196.8028   -7649.2696   -655.76307     102002.7      46.7237      46.7237      46.7237 
  411000    89.298837   -8186.3293   -7651.5679   -857.58246     102002.7      46.7237      46.7237      46.7237 
  412000    90.206716   -8178.5599   -7638.3618   -713.37059     102002.7      46.7237      46.7237      46.7237 
  413000    92.068151   -8193.1662    -7641.821   -923.92344     102002.7      46.7237      46.7237      46.7237 
  414000    91.873572    -8199.224    -7649.044   -882.65166     102002.7      46.7237      46.7237      46.7237 
  415000    90.345157   -8206.4398   -7665.4126   -849.96108     102002.7      46.7237      46.7237      46.7237 
  416000    88.786775   -8200.7058   -7669.0109    -719.4854     102002.7      46.7237      46.7237      46.7237 
  417000    91.026431   -8199.0409   -7653.9339   -669.94555     102002.7      46.7237      46.7237      46.7237 
  418000    90.402065   -8192.2741   -7650.9061   -558.07678     102002.7      46.7237      46.7237      46.7237 
  419000    89.871409   -8213.3356   -7675.1454   -667.48308     102002.7      46.7237      46.7237      46.7237 
  420000     91.55114   -8208.5084   -7660.2592   -685.10394     102002.7      46.7237      46.7237      46.7237 
  421000    89.189331   -8176.8778   -7642.7721    -724.7548     102002.7      46.7237      46.7237      46.7237 
  422000    92.563066   -8198.2571    -7643.948   -751.69419     102002.7      46.7237      46.7237      46.7237 
  423000    88.979952   -8195.8917     -7663.04   -659.45534     102002.7      46.7237      46.7237      46.7237 
  424000    91.352539   -8197.3435   -7650.2836   -714.68999     102002.7      46.7237      46.7237      46.7237 
  425000    91.690425   -8209.3126   -7660.2294   -787.23056     102002.7      46.7237      46.7237      46.7237 
  426000    89.427384   -8176.7499   -7641.2187   -730.95544     102002.7      46.7237      46.7237      46.7237 
  427000    91.640091   -8192.2762   -7643.4943   -618.49172     102002.7      46.7237      46.7237      46.7237 
  428000    89.602112   -8184.0982   -7647.5206   -636.97396     102002.7      46.7237      46.7237      46.7237 
  429000    89.787881   -8193.1944   -7655.5044   -704.92365     102002.7      46.7237      46.7237      46.7237 
  430000    94.649406   -8229.0759   -7662.2729   -849.95254     102002.7      46.7237      46.7237      46.7237 
  431000    89.970789   -8198.3348   -7659.5495   -653.74515     102002.7      46.7237      46.7237      46.7237 
  432000    91.497132   -8208.7195   -7660.7937   -808.22703     102002.7      46.7237      46.7237      46.7237 
  433000    90.510507   -8188.2077   -7646.1903   -784.80587     102002.7      46.7237      46.7237      46.7237 
  434000    88.894468   -8193.3831   -7661.0432   -645.55677     102002.7      46.7237      46.7237      46.7237 
  435000    93.647861   -8177.5847   -7616.7794   -693.04104     102002.7      46.7237      46.7237      46.7237 
  436000    91.483264   -8206.8132   -7658.9705   -607.84901     102002.7      46.7237      46.7237      46.7237 
  437000     92.26351   -8187.7825   -7635.2673   -724.61153     102002.7      46.7237      46.7237      46.7237 
  438000    89.732565   -8204.2912   -7666.9325    -686.7241     102002.7      46.7237      46.7237      46.7237 
  439000    91.944667   -8202.0679   -7651.4621   -981.92087     102002.7      46.7237      46.7237      46.7237 
  440000    93.303258    -8192.454   -7633.7124   -1012.8473     102002.7      46.7237      46.7237      46.7237 
  441000     94.21145   -8215.0865   -7650.9062   -712.07403     102002.7      46.7237      46.7237      46.7237 
  442000    90.736017   -8200.8805   -7657.5126    -921.3282     102002.7      46.7237      46.7237      46.7237 
  443000     91.31124   -8207.1395   -7660.3269   -860.65694     102002.7      46.7237      46.7237      46.7237 
  444000    89.471894   -8211.5871   -7675.7894   -635.31755     102002.7      46.7237      46.7237      46.7237 
  445000    89.421222   -8201.1705   -7665.6763   -927.32767     102002.7      46.7237      46.7237      46.7237 
  446000    91.098463   -8190.1936   -7644.6553   -582.63198     102002.7      46.7237      46.7237      46.7237 
  447000     89.16456   -8240.3388   -7706.3815   -800.87589     102002.7      46.7237      46.7237      46.7237 
  448000    89.194815   -8190.7833   -7656.6448    -576.2996     102002.7      46.7237      46.7237      46.7237 
  449000    91.798406   -8203.0634   -7653.3335   -492.90389     102002.7      46.7237      46.7237      46.7237 
  450000    93.186691   -8178.9604   -7620.9168   -598.46949     102002.7      46.7237      46.7237      46.7237 
  451000    93.641692   -8208.0585   -7647.2902   -757.61923     102002.7      46.7237      46.7237      46.7237 
  452000    93.341137   -8168.5831   -7609.6147   -743.58641     102002.7      46.7237      46.7237      46.7237 
  453000    89.992034   -8189.5069   -7650.5944    -610.5375     102002.7      46.7237      46.7237      46.7237 
  454000     89.69932   -8200.8719   -7663.7122   -778.66878     102002.7      46.7237      46.7237      46.7237 
  455000    90.087816   -8176.1089   -7636.6227   -517.72507     102002.7      46.7237      46.7237      46.7237 
  456000    89.850436   -8201.1069   -7663.0422    -708.2494     102002.7      46.7237      46.7237      46.7237 
  457000     91.06187   -8199.1072    -7653.788    -920.8778     102002.7      46.7237      46.7237      46.7237 
  458000    94.924235   -8195.7066   -7627.2578   -383.09224     102002.7      46.7237      46.7237      46.7237 
  459000    90.786104   -8190.6683   -7647.0005   -844.85176     102002.7      46.7237      46.7237      46.7237 
  460000     92.64078   -8212.8376   -7658.0632   -403.24895     102002.7      46.7237      46.7237      46.7237 
  461000     90.92609   -8212.1702   -7667.6641   -740.61647     102002.7      46.7237      46.7237      46.7237 
  462000    90.330627   -8194.0078   -7653.0676   -753.88529     102002.7      46.7237      46.7237      46.7237 
  463000     93.17825   -8224.7952   -7666.8021   -724.38721     102002.7      46.7237      46.7237      46.7237 
  464000    91.826403   -8214.3688   -7664.4712   -934.31493     102002.7      46.7237      46.7237      46.7237 
  465000    91.473319   -8198.3905   -7650.6073   -606.61967     102002.7      46.7237      46.7237      46.7237 
  466000    89.631965   -8197.5334   -7660.7771   -814.28837     102002.7      46.7237      46.7237      46.7237 
  467000    90.955302   -8213.5324   -7668.8513   -655.75432     102002.7      46.7237      46.7237      46.7237 
  468000    91.299753   -8200.9113   -7654.1675   -632.82429     102002.7      46.7237      46.7237      46.7237 
  469000    90.760793   -8210.6469   -7667.1306   -898.09301     102002.7      46.7237      46.7237      46.7237 
  470000    91.486072   -8206.8702   -7659.0107   -824.46807     102002.7      46.7237      46.7237      46.7237 
  471000     90.77868   -8215.7083    -7672.085   -813.61863     102002.7      46.7237      46.7237      46.7237 
  472000    91.956088   -8199.5651   -7648.8909   -580.45633     102002.7      46.7237      46.7237      46.7237 
  473000    91.761137   -8201.1622   -7651.6555   -756.90173     102002.7      46.7237      46.7237      46.7237 
  474000    92.257655   -8224.5289   -7672.0488     -862.235     102002.7      46.7237      46.7237      46.7237 
  475000    93.149282   -8196.9875   -7639.1679   -765.15487     102002.7      46.7237      46.7237      46.7237 
  476000     91.30729   -8190.9839    -7644.195   -615.60167     102002.7      46.7237      46.7237      46.7237 
  477000    89.973859   -8212.0163   -7673.2126   -580.73887     102002.7      46.7237      46.7237      46.7237 
  478000    89.720697   -8190.7536   -7653.4659   -712.35325     102002.7      46.7237      46.7237      46.7237 
  479000    90.765225   -8217.7384   -7674.1956   -764.37355     102002.7      46.7237      46.7237      46.7237 
  480000    90.263227   -8201.6888   -7661.1522   -528.32861     102002.7      46.7237      46.7237      46.7237 
  481000    88.822708   -8195.0688   -7663.1587   -830.82648     102002.7      46.7237      46.7237      46.7237 
  482000    91.586809    -8224.869   -7676.4062   -724.10417     102002.7      46.7237      46.7237      46.7237 
  483000    92.036258   -8207.1989   -7656.0446   -746.56763     102002.7      46.7237      46.7237      46.7237 
  484000    92.920639   -8202.1251   -7645.6748   -841.70481     102002.7      46.7237      46.7237      46.7237 
  485000     90.36144   -8209.3196   -7668.1948   -562.47213     102002.7      46.7237      46.7237      46.7237 
  486000    89.146602   -8188.1939   -7654.3442   -845.83229     102002.7      46.7237      46.7237      46.7237 
  487000    87.885592   -8205.8319   -7679.5337   -560.20148     102002.7      46.7237      46.7237      46.7237 
  488000    91.499685   -8207.7582   -7659.8172   -734.82712     102002.7      46.7237      46.7237      46.7237 
  489000    89.151046   -8205.3575   -7671.4812   -834.41864     102002.7      46.7237      46.7237      46.7237 
  490000    90.181087   -8202.2922   -7662.2475   -961.79202     102002.7      46.7237      46.7237      46.7237 
  491000    94.514866   -8186.7714   -7620.7741   -793.63278     102002.7      46.7237      46.7237      46.7237 
  492000    91.991867   -8204.2473   -7653.3589   -690.95947     102002.7      46.7237      46.7237      46.7237 
  493000    89.847909   -8186.6765    -7648.627   -734.47945     102002.7      46.7237      46.7237      46.7237 
  494000    89.942963   -8202.5918   -7663.9731    -705.3426     102002.7      46.7237      46.7237      46.7237 
  495000     94.77477   -8189.7412   -7622.1874   -631.80156     102002.7      46.7237      46.7237      46.7237 
  496000    92.038793   -8213.5603   -7662.3908   -750.96697     102002.7      46.7237      46.7237      46.7237 
  497000    91.393892   -8204.1812   -7656.8736   -656.95234     102002.7      46.7237      46.7237      46.7237 
  498000    93.428261   -8208.9486   -7649.4584   -538.21839     102002.7      46.7237      46.7237      46.7237 
  499000    88.103429   -8185.4816   -7657.8788    -763.1631     102002.7      46.7237      46.7237      46.7237 
  500000    91.154064   -8232.3215   -7686.4502   -763.22878     102002.7      46.7237      46.7237      46.7237 
  500502    90.799948   -8219.3255   -7675.5748   -890.71188     102002.7      46.7237      46.7237      46.7237 
Loop time of 1374.99 on 16 procs for 500000 steps with 2010 atoms

Performance: 31.418 ns/day, 0.764 hours/ns, 363.638 timesteps/s
99.8% CPU use with 16 MPI tasks x no OpenMP threads

MPI task timing breakdown:
Section |  min time  |  avg time  |  max time  |%varavg| %total
---------------------------------------------------------------
Pair    | 580.41     | 765.51     | 997.26     | 460.1 | 55.67
Bond    | 164.13     | 174.38     | 185.57     |  51.4 | 12.68
Neigh   | 6.0941     | 6.1184     | 6.1415     |   0.6 |  0.44
Comm    | 180.22     | 415.19     | 595.99     | 609.4 | 30.20
Output  | 0.020663   | 0.021167   | 0.024346   |   0.6 |  0.00
Modify  | 7.3175     | 8.2316     | 8.9217     |  18.3 |  0.60
Other   |            | 5.538      |            |       |  0.40

Nlocal:    125.625 ave 152 max 103 min
Histogram: 2 2 3 1 0 1 3 2 1 1
Nghost:    2490.19 ave 2514 max 2461 min
Histogram: 1 2 1 2 1 2 1 1 1 4
Neighs:    11464.2 ave 16057 max 8577 min
Histogram: 2 1 4 2 2 3 0 1 0 1

Total # of neighbors = 183427
Ave neighs/atom = 91.2572
Ave special neighs/atom = 5.73134
Neighbor list builds = 3859
Dangerous builds = 0
Neighbor list info ...
  update every 1 steps, delay 10 steps, check yes
  max neighbors/atom: 2000, page size: 100000
  master list distance cutoff = 16
  ghost atom cutoff = 16
  binsize = 8, bins = 6 6 6
  3 neighbor lists, perpetual/occasional/extra = 3 0 0
  (1) pair buck6d/coul/gauss/dsf, perpetual, skip from (3)
      attributes: half, newton on
      pair build: skip
      stencil: none
      bin: none
  (2) pair lj/cut, perpetual, skip from (3)
      attributes: half, newton on
      pair build: skip
      stencil: none
      bin: none
  (3) neighbor class addition, perpetual
      attributes: half, newton on
      pair build: half/bin/newton
      stencil: half/bin/3d/newton
      bin: standard
Setting up Verlet run ...
  Unit style    : real
  Current step  : 500502
  Time step     : 1
WARNING: Inconsistent image flags (../domain.cpp:786)
Per MPI rank memory allocation (min/avg/max) = 23.16 | 23.34 | 23.36 Mbytes
Step Time TotEng KinEng PotEng E_mol E_pair Temp Pxx Pyy Pzz Pxy Pxz Pyz Cella Cellb Cellc CellAlpha CellBeta CellGamma Volume Press 
  500502       500000   -7675.5748    543.75071   -8219.3255    4172.1454   -12391.471    90.799948   -1316.1941    -830.6063   -525.33526    54.069519    8.1298653    85.040787      46.7237      46.7237      46.7237           90           90           90     102002.7   -890.71188 
  501000       500498   -7654.8927    544.50395   -8199.3966    4193.9318   -12393.328    90.925731   -786.92424   -821.51135   -515.81917   -101.45598   -129.48175   -82.276856      46.7237      46.7237      46.7237           90           90           90     102002.7   -708.08492 
  502000       501498   -7667.4677    543.24678   -8210.7145    4189.2727   -12399.987    90.715797   -1154.6561   -1106.6978    -556.5115   -184.76974    46.454847   -31.485856      46.7237      46.7237      46.7237           90           90           90     102002.7   -939.28847 
  503000       502498   -7671.8991     549.7208   -8221.6199    4197.5979   -12419.218    91.796882   -655.92678   -459.71489   -788.05257   -120.03935    125.14697   -14.492993      46.7237      46.7237      46.7237           90           90           90     102002.7   -634.56474 
  504000       503498   -7677.6557    543.62374   -8221.2794    4174.0443   -12395.324    90.778745   -889.11904   -586.24294   -608.22566   -76.809614    156.79995   -3.6720955      46.7237      46.7237      46.7237           90           90           90     102002.7   -694.52922 
  505000       504498   -7649.2981     546.9403   -8196.2384    4205.7314    -12401.97    91.332571   -994.86375    -799.1769   -799.28009   -19.131217    110.56132   -19.122002      46.7237      46.7237      46.7237           90           90           90     102002.7   -864.44025 
  506000       505498   -7658.3852     544.0747   -8202.4599    4196.4279   -12398.888     90.85405   -838.61657   -804.44409   -376.74369   -248.16642   -101.19635   -67.832709      46.7237      46.7237      46.7237           90           90           90     102002.7   -673.26812 
  507000       506498   -7618.9556    548.40629   -8167.3619    4231.6914   -12399.053    91.577374   -373.78678   -1053.7741   -550.56011    220.43478   -217.64278   -27.938768      46.7237      46.7237      46.7237           90           90           90     102002.7   -659.37368 
  508000       507498   -7666.5016    545.68611   -8212.1877    4173.3705   -12385.558    91.123137   -244.43978   -918.81649   -534.62483    85.935556   -186.91542   -94.443491      46.7237      46.7237      46.7237           90           90           90     102002.7   -565.96037 
  509000       508498     -7648.36    544.49903    -8192.859    4207.9373   -12400.796    90.924909   -896.53287    -957.0933   -720.48138    77.235445    148.46614   -62.369562      46.7237      46.7237      46.7237           90           90           90     102002.7   -858.03585 
  510000       509498   -7671.3522    543.05528   -8214.4075     4177.579   -12391.986    90.683819   -727.62562    -884.8835   -528.71525    92.100524   -161.29477    173.35201      46.7237      46.7237      46.7237           90           90           90     102002.7   -713.74146 
  511000       510498    -7628.329    557.01824   -8185.3472    4222.3962   -12407.743    93.015469    -699.1958   -583.43977   -382.09127   -293.14226   -51.361443    105.49386      46.7237      46.7237      46.7237           90           90           90     102002.7   -554.90895 
  512000       511498   -7648.9038    536.02719    -8184.931    4190.4335   -12375.364    89.510211   -834.77213    -328.5115   -416.86381   -179.01421    149.29565   -57.565292      46.7237      46.7237      46.7237           90           90           90     102002.7   -526.71581 
  513000       512498   -7647.3984    561.43005   -8208.8285    4209.2974   -12418.126    93.752188    -524.4941   -738.14249    -624.4007   -14.719451    64.649517    78.288056      46.7237      46.7237      46.7237           90           90           90     102002.7   -629.01243 
  514000       513498   -7638.7601     556.1956   -8194.9557    4197.9973   -12392.953    92.878098   -553.47508   -1163.4129   -1162.0893    192.45936    65.869007    368.67464      46.7237      46.7237      46.7237           90           90           90     102002.7   -959.65907 
  515000       514498   -7671.8038    526.87636   -8198.6802    4208.0763   -12406.756     87.98213   -975.40506   -418.65303   -828.45438    180.36896   -121.62407   -67.288499      46.7237      46.7237      46.7237           90           90           90     102002.7   -740.83749 
  516000       515498    -7634.038    543.78313   -8177.8211    4208.2987    -12386.12    90.805362   -1038.6638   -435.78403   -688.84544   -120.76754   -248.03623   -118.23068      46.7237      46.7237      46.7237           90           90           90     102002.7   -721.09776 
  517000       516498   -7655.7218    557.42213    -8213.144    4191.5715   -12404.715    93.082913   -751.10346     -741.913   -544.00584     -57.3226   -12.997435   -208.00654      46.7237      46.7237      46.7237           90           90           90     102002.7   -679.00743 
  518000       517498   -7655.1867    549.35881   -8204.5455    4198.3791   -12402.925    91.736434   -554.55741   -834.11338    -682.0033    7.8030505    333.16367   -131.15651      46.7237      46.7237      46.7237           90           90           90     102002.7   -690.22469 
  519000       518498   -7686.8048    534.66821    -8221.473    4183.7033   -12405.176    89.283277   -950.11337   -744.99761   -251.28329    34.822015   -139.37849     153.5736      46.7237      46.7237      46.7237           90           90           90     102002.7   -648.79809 
  520000       519498   -7643.0004    560.95412   -8203.9545    4180.8619   -12384.816    93.672715   -510.55832   -208.32599   -513.77566    156.79807   -40.574141   -11.028159      46.7237      46.7237      46.7237           90           90           90     102002.7   -410.88666 
  521000       520498   -7643.1766    549.30323   -8192.4799    4218.3071   -12410.787    91.727153   -803.45099    -680.9654   -641.90209    79.140787    53.232509    -71.70184      46.7237      46.7237      46.7237           90           90           90     102002.7   -708.77283 
  522000       521498   -7666.0508    543.96982   -8210.0206     4197.751   -12407.772    90.836537   -590.60024    -504.9818    -1280.118    25.175157    135.77391   -77.001729      46.7237      46.7237      46.7237           90           90           90     102002.7       -791.9 
  523000       522498   -7653.8743    546.94457   -8200.8189     4215.154   -12415.973    91.333284   -580.72904   -471.60949   -941.00967    6.4295509    415.46092    105.21321      46.7237      46.7237      46.7237           90           90           90     102002.7    -664.4494 
  524000       523498   -7684.6047    538.26281   -8222.8675    4173.2777   -12396.145    89.883534   -766.62802    -738.5293   -396.20129    106.91618   -14.208358   -29.376004      46.7237      46.7237      46.7237           90           90           90     102002.7    -633.7862 
  525000       524498   -7641.3532    541.70019   -8183.0534    4237.3798   -12420.433    90.457536   -427.65574   -747.26748   -869.15277   -155.29341    117.73714    202.73879      46.7237      46.7237      46.7237           90           90           90     102002.7   -681.35866 
  526000       525498   -7655.6431    537.25929   -8192.9024    4202.7419   -12395.644    89.715957   -545.49554   -1067.3011   -741.61962   -76.759798   -98.525931   -9.9427072      46.7237      46.7237      46.7237           90           90           90     102002.7   -784.80541 
  527000       526498    -7653.923    560.61766   -8214.5407    4193.3603   -12407.901     93.61653     -800.691   -790.18944   -898.69603   -54.676582    102.41973   -100.52483      46.7237      46.7237      46.7237           90           90           90     102002.7   -829.85882 
  528000       527498   -7673.5484    542.19436   -8215.7428    4178.9093   -12394.652    90.540056   -779.12215   -722.29559   -905.68462    -40.70197    221.86917    67.810117      46.7237      46.7237      46.7237           90           90           90     102002.7   -802.36745 
  529000       528498   -7658.5023    545.59382   -8204.0961     4195.724    -12399.82    91.107726   -1077.6055   -755.90959   -625.87875    100.51162    37.347721    263.51868      46.7237      46.7237      46.7237           90           90           90     102002.7   -819.79796 
  530000       529498   -7642.3071    545.11265   -8187.4197    4215.3539   -12402.774    91.027376   -1038.2125   -549.82707   -793.07445   -103.94221   -69.452765   -133.89707      46.7237      46.7237      46.7237           90           90           90     102002.7   -793.70467 
  531000       530498   -7665.3285    538.89859   -8204.2271    4202.1674   -12406.395    89.989702   -755.33476   -442.73622    -736.4948    88.432386    113.07403    43.159863      46.7237      46.7237      46.7237           90           90           90     102002.7   -644.85526 
  532000       531498   -7688.7137    533.14295   -8221.8566    4177.7309   -12399.588    89.028577   -991.97968   -875.94157   -710.87752   -88.282378   -47.382023    75.081503      46.7237      46.7237      46.7237           90           90           90     102002.7   -859.59959 
  533000       532498   -7674.8519    535.81957   -8210.6714    4188.3729   -12399.044    89.475541   -1230.1958   -1110.9897   -1034.6429     24.03742    207.96985   -136.41757      46.7237      46.7237      46.7237           90           90           90     102002.7   -1125.2761 
  534000       533498   -7646.0636    554.43811   -8200.5018    4185.8785    -12386.38    92.584618   -667.04907   -668.69024    -660.4078   -106.74724   -162.02118    21.203259      46.7237      46.7237      46.7237           90           90           90     102002.7   -665.38237 
  535000       534498   -7685.7689    522.61248   -8208.3813    4212.1468   -12420.528    87.270113   -1034.5879   -1199.7953   -564.60626   -23.877033    73.260196    5.8861387      46.7237      46.7237      46.7237           90           90           90     102002.7   -932.99647 
  536000       535498   -7646.5419    556.13578   -8202.6777    4194.1027    -12396.78    92.868108   -648.09882   -878.24892   -760.26139   -139.77186    139.21623   -111.79117      46.7237      46.7237      46.7237           90           90           90     102002.7   -762.20304 
  537000       536498   -7676.0924     551.6311   -8227.7235    4186.6143   -12414.338    92.115879   -542.14115   -509.64354   -798.29914    190.53996    132.28032    -38.54998      46.7237      46.7237      46.7237           90           90           90     102002.7   -616.69461 
  538000       537498   -7649.7596    539.39302   -8189.1526    4217.8735   -12407.026    90.072264   -1192.9533    -959.4302   -1168.6081   -87.165972    62.561438   -141.09212      46.7237      46.7237      46.7237           90           90           90     102002.7   -1106.9972 
  539000       538498   -7678.7637    543.24293   -8222.0067    4178.4403   -12400.447    90.715154   -519.64808   -747.63586   -820.67082    -115.4661   -76.639622   -231.59436      46.7237      46.7237      46.7237           90           90           90     102002.7   -695.98492 
  540000       539498   -7646.4015    550.92878   -8197.3303    4200.1111   -12397.441    91.998601   -867.69588   -849.31528   -929.99467    9.1935515   -59.257862     125.7428      46.7237      46.7237      46.7237           90           90           90     102002.7   -882.33528 
  541000       540498   -7643.9754    545.81534   -8189.7907    4215.3331   -12405.124    91.144716   -1444.5587   -620.61632    -1022.855   -88.575713   -81.509195   -173.16811      46.7237      46.7237      46.7237           90           90           90     102002.7   -1029.3433 
  542000       541498   -7669.5363    547.62442   -8217.1607    4191.8647   -12409.025    91.446811   -1296.5693   -693.83832   -885.85804   -90.969052   -150.98922   -17.997227      46.7237      46.7237      46.7237           90           90           90     102002.7   -958.75522 
  543000       542498   -7654.8362    537.88721   -8192.7235    4217.7777   -12410.501    89.820813   -653.20475   -972.77968   -782.66948   -281.89514    122.63294    80.938155      46.7237      46.7237      46.7237           90           90           90     102002.7   -802.88464 
  544000       543498   -7650.8056    555.09915   -8205.9047    4205.4351    -12411.34    92.695003   -752.80053    -720.8992     -1284.95    -130.2468   -43.923825   -64.325826      46.7237      46.7237      46.7237           90           90           90     102002.7   -919.54992 
  545000       544498   -7656.3409    540.12513   -8196.4661    4206.4191   -12402.885    90.194519   -1018.8482    -577.8455    -226.8033    209.41528   -15.988523   -56.267826      46.7237      46.7237      46.7237           90           90           90     102002.7   -607.83233 
  546000       545498    -7658.105      553.547    -8211.652    4204.9075    -12416.56    92.435812   -810.44103   -863.55141   -482.74765   -5.7382704     71.82627   -193.89607      46.7237      46.7237      46.7237           90           90           90     102002.7   -718.91336 
  547000       546498   -7662.4377    535.15006   -8197.5877    4202.7236   -12400.311     89.36374   -1038.1023   -671.59707    -629.1607    30.290735    120.78811    21.794275      46.7237      46.7237      46.7237           90           90           90     102002.7   -779.62003 
  548000       547498   -7665.1149    543.46476   -8208.5797    4200.9671   -12409.547    90.752197   -537.57855   -576.13975   -1099.5122    185.93017   -60.814284   -120.75125      46.7237      46.7237      46.7237           90           90           90     102002.7   -737.74351 
  549000       548498    -7660.044    548.93091   -8208.9749    4175.4425   -12384.417     91.66498   -1051.5983   -871.31373   -750.86669   -212.32508   -141.50348    78.394463      46.7237      46.7237      46.7237           90           90           90     102002.7   -891.25958 
  550000       549498   -7639.0102    552.48709   -8191.4973    4212.9818   -12404.479    92.258821   -235.89548   -768.24138   -535.83056   -143.60316   -11.990734   -34.688699      46.7237      46.7237      46.7237           90           90           90     102002.7   -513.32247 
  551000       550498   -7625.9552    558.11795   -8184.0732    4194.5019   -12378.575    93.199107   -815.78044   -585.66974   -756.26864   -51.951551   -231.68769   -161.22543      46.7237      46.7237      46.7237           90           90           90     102002.7   -719.23961 
  552000       551498   -7648.5718    531.22456   -8179.7964    4202.8183   -12382.615    88.708229   -670.90925   -539.34844   -228.24388    318.86788   -21.289217    43.317644      46.7237      46.7237      46.7237           90           90           90     102002.7   -479.50052 
  553000       552498   -7647.5572    551.01074    -8198.568    4190.1649   -12388.733    92.012287    -940.2613   -951.48499   -728.96606   -139.99074    59.735757    35.565203      46.7237      46.7237      46.7237           90           90           90     102002.7   -873.57078 
  554000       553498   -7672.0864    532.65196   -8204.7384    4196.6093   -12401.348    88.946587   -825.38338   -700.83153     -1049.76   -213.32821   -86.737821   -59.428274      46.7237      46.7237      46.7237           90           90           90     102002.7    -858.6583 
  555000       554498    -7644.173    547.25543   -8191.4284    4197.5074   -12388.936    91.385194   -312.27677   -913.03317   -306.40764   -98.932637   -56.213026   -221.35445      46.7237      46.7237      46.7237           90           90           90     102002.7   -510.57253 
[...]
  936000       935498   -7678.6868    540.52601   -8219.2128    4174.5231   -12393.736    90.261462   -363.28356   -909.10183   -752.92173     38.38281   -59.520115    41.389918      46.7237      46.7237      46.7237           90           90           90     102002.7   -675.10237 
  937000       936498   -7664.8167    551.93951   -8216.7562    4181.6031   -12398.359    92.167381    56.189619     -688.745   -593.10442    31.923086   -313.92716    124.77494      46.7237      46.7237      46.7237           90           90           90     102002.7   -408.55327 
  938000       937498   -7664.9545    540.63727   -8205.5917    4191.7656   -12397.357     90.28004   -997.71659   -647.44282   -682.24664   -62.437354    42.490353   -62.141428      46.7237      46.7237      46.7237           90           90           90     102002.7   -775.80202 
  939000       938498   -7664.5765    546.16885   -8210.7453    4205.3138   -12416.059    91.203748   -827.65832   -765.27875   -542.09131    153.45634   -34.125843   -164.17094      46.7237      46.7237      46.7237           90           90           90     102002.7   -711.67612 
  940000       939498    -7674.665     529.6985   -8204.3635    4189.2222   -12393.586    88.453395    -846.7033   -590.03659   -417.00741    34.769545    22.552904   -71.667635      46.7237      46.7237      46.7237           90           90           90     102002.7   -617.91577 
  941000       940498   -7639.6461    541.71282   -8181.3589    4203.6523   -12385.011    90.459644    -885.4707   -559.42579    -609.2822   -21.415679   -11.010699   -119.74156      46.7237      46.7237      46.7237           90           90           90     102002.7   -684.72623 
  942000       941498   -7656.3067    537.45435    -8193.761    4196.9939   -12390.755     89.74853   -342.21421   -454.11523   -353.72289     8.692888   -17.426279   -64.203152      46.7237      46.7237      46.7237           90           90           90     102002.7   -383.35078 
  943000       942498   -7644.1056    550.88544    -8194.991     4195.506   -12390.497    91.991364    -379.6394   -541.07811    -302.3092    150.62568    266.61119   -187.31364      46.7237      46.7237      46.7237           90           90           90     102002.7   -407.67557 
  944000       943498   -7634.1898    554.40789   -8188.5977    4199.5654   -12388.163    92.579572   -846.40454   -626.45482   -711.54851     75.69778    211.21735   -66.722905      46.7237      46.7237      46.7237           90           90           90     102002.7   -728.13596 
  945000       944498    -7654.687    537.71608   -8192.4031    4201.8421   -12394.245    89.792236   -517.21659    -747.1319   -887.75432   -82.510963    63.949625    65.385486      46.7237      46.7237      46.7237           90           90           90     102002.7    -717.3676 
  946000       945498   -7673.0755    535.94992   -8209.0254    4180.6807   -12389.706    89.497308   -585.28026   -1047.6564   -521.07652   -87.252115   -19.718755    252.89025      46.7237      46.7237      46.7237           90           90           90     102002.7   -718.00439 
  947000       946498   -7643.0104    555.80367   -8198.8141    4192.1867   -12391.001     92.81265   -355.42916    -297.5373   -559.74192     -135.992    91.966015   -15.104894      46.7237      46.7237      46.7237           90           90           90     102002.7   -404.23613 
  948000       947498   -7651.6445    548.10174   -8199.7462    4196.5239    -12396.27    91.526518   -738.46471   -849.33733   -575.12615    29.939142    129.03834    172.89536      46.7237      46.7237      46.7237           90           90           90     102002.7   -720.97607 
  949000       948498    -7666.272    541.93296    -8208.205    4179.0459   -12387.251    90.496405   -577.80648   -784.04297   -896.48947    106.41228    61.311193   -293.47209      46.7237      46.7237      46.7237           90           90           90     102002.7   -752.77964 
  950000       949498   -7656.0804    543.59839   -8199.6788    4188.0249   -12387.704    90.774512    -382.7647   -815.77716   -1028.5259    158.65375   -138.36974   -271.81873      46.7237      46.7237      46.7237           90           90           90     102002.7   -742.35591 
  951000       950498   -7618.2184    558.50587   -8176.7243    4211.2596   -12387.984    93.263885   -875.06475   -880.67316   -605.45421    213.31338    117.16631    18.893322      46.7237      46.7237      46.7237           90           90           90     102002.7   -787.06404 
  952000       951498   -7649.7624    554.12025   -8203.8826    4201.7284   -12405.611    92.531538   -883.78301   -469.29679   -376.42525   -142.13983    191.28782    185.04117      46.7237      46.7237      46.7237           90           90           90     102002.7   -576.50169 
  953000       952498   -7657.7639      540.142   -8197.9059    4194.0447   -12391.951    90.197335   -666.18043   -437.12651   -877.86228   -233.72693   -136.15248    21.787391      46.7237      46.7237      46.7237           90           90           90     102002.7   -660.38974 
  954000       953498   -7630.9069    545.56668   -8176.4735    4194.9492   -12371.423    91.103194   -684.66554   -380.54838   -394.80065    26.569569    67.644142    39.067736      46.7237      46.7237      46.7237           90           90           90     102002.7   -486.67152 
  955000       954498    -7635.497    558.93864   -8194.4356    4196.3154   -12390.751    93.336153   -904.59359   -675.58839   -431.64352   -172.30111    16.059789    60.369907      46.7237      46.7237      46.7237           90           90           90     102002.7    -670.6085 
  956000       955498   -7637.7439    557.44733   -8195.1912     4205.463   -12400.654    93.087122   -708.29284    -827.9637   -822.89419    53.060285     27.49557   -66.242927      46.7237      46.7237      46.7237           90           90           90     102002.7   -786.38357 
  957000       956498   -7642.1746     552.3459   -8194.5205    4194.2647   -12388.785    92.235243   -474.97929   -783.76903   -616.98638   -196.32318   -22.197672    89.388083      46.7237      46.7237      46.7237           90           90           90     102002.7    -625.2449 
  958000       957498   -7659.1807    535.92141   -8195.1021    4196.1826   -12391.285    89.492547   -950.04097    -553.7572   -1224.3633   -122.89818   -151.72378     46.43463      46.7237      46.7237      46.7237           90           90           90     102002.7   -909.38717 
  959000       958498   -7631.8772    553.98056   -8185.8578    4210.5973   -12396.455    92.508213   -881.16895   -880.28435   -881.75788    68.538214     46.52194    93.340537      46.7237      46.7237      46.7237           90           90           90     102002.7   -881.07039 
  960000       959498   -7656.6269     546.3666   -8202.9935     4188.307     -12391.3     91.23677   -584.40264   -664.96548   -412.01624    76.706091   -146.34367    228.63777      46.7237      46.7237      46.7237           90           90           90     102002.7   -553.79479 
  961000       960498   -7648.5306    536.57018   -8185.1007      4210.18   -12395.281    89.600884   -810.67688    -775.2679   -695.75678    -85.37618    83.150532   -145.79555      46.7237      46.7237      46.7237           90           90           90     102002.7   -760.56719 
  962000       961498     -7670.35    546.98957   -8217.3396     4181.858   -12399.198      91.3408   -403.93725   -837.58367   -920.26488    204.72609   -96.698241   -61.244863      46.7237      46.7237      46.7237           90           90           90     102002.7   -720.59527 
  963000       962498   -7665.4833    536.15459   -8201.6379    4189.3029   -12390.941    89.531485   -765.52281   -1163.7725   -953.02837   -224.34678   -307.71532   -162.06268      46.7237      46.7237      46.7237           90           90           90     102002.7   -960.77456 
  964000       963498   -7640.4727    544.05937   -8184.5321    4215.5834   -12400.115     90.85149   -1045.3187   -1330.8084   -1235.6657   -3.0868498   -18.640567    218.48226      46.7237      46.7237      46.7237           90           90           90     102002.7   -1203.9309 
  965000       964498   -7666.4435    537.54361   -8203.9871     4188.845   -12392.832    89.763436   -279.56526   -340.80691   -542.46012   -75.176458    36.157647    119.93585      46.7237      46.7237      46.7237           90           90           90     102002.7   -387.61076 
  966000       965498     -7629.65    555.88031   -8185.5303    4207.5273   -12393.058    92.825448   -676.20424   -737.99847    -712.5662   -71.632782    208.71861    240.94726      46.7237      46.7237      46.7237           90           90           90     102002.7   -708.92297 
  967000       966498   -7650.6704    542.90454   -8193.5749    4206.7872   -12400.362    90.658648   -706.16973   -655.67054   -703.10138   -66.345036    280.15233    246.53576      46.7237      46.7237      46.7237           90           90           90     102002.7   -688.31388 
  968000       967498   -7641.3158     555.6306   -8196.9464    4208.7136    -12405.66    92.783749   -910.39685     -995.205   -1158.1025   -32.086719   -145.45787   -60.583486      46.7237      46.7237      46.7237           90           90           90     102002.7   -1021.2348 
  969000       968498    -7663.779    538.25753   -8202.0366    4208.8581   -12410.895    89.882651    -986.6345   -1352.0961   -1006.7071   -72.347882    149.22909   -30.651668      46.7237      46.7237      46.7237           90           90           90     102002.7   -1115.1459 
  970000       969498   -7675.1642    532.99537   -8208.1596    4206.1632   -12414.323    89.003933   -745.61632   -796.96388    -771.6074   -83.519209   -9.7824484    48.785284      46.7237      46.7237      46.7237           90           90           90     102002.7   -771.39587 
  971000       970498   -7656.0372    551.97739   -8208.0146    4211.2689   -12419.284    92.173707   -859.64385   -1006.7705   -770.53292    54.420945   -85.771496   -95.853636      46.7237      46.7237      46.7237           90           90           90     102002.7   -878.98242 
  972000       971498   -7635.6602    566.31954   -8201.9798    4196.5233   -12398.503    94.568675   -629.13467   -758.67044   -742.30103    92.093427    248.20882   -7.1527304      46.7237      46.7237      46.7237           90           90           90     102002.7   -710.03538 
  973000       972498   -7651.8999    547.41821   -8199.3181    4207.4931   -12406.811    91.412377   -945.51232   -836.72196   -481.52914   -343.95961    -221.5599   -66.239159      46.7237      46.7237      46.7237           90           90           90     102002.7   -754.58781 
  974000       973498   -7663.9333    544.29401   -8208.2273    4204.4407   -12412.668    90.890672   -596.82124   -1359.1591   -1275.4594    189.17297   -168.70248    33.944249      46.7237      46.7237      46.7237           90           90           90     102002.7   -1077.1466 
  975000       974498   -7643.7162    541.84254   -8185.5588    4213.0363   -12398.595    90.481306   -929.50887   -475.24241   -451.03054    112.65131   -62.243756    109.28745      46.7237      46.7237      46.7237           90           90           90     102002.7   -618.59394 
  976000       975498   -7670.6031    531.10955   -8201.7127    4187.6364   -12389.349    88.689023   -788.02807   -466.90725   -918.95468   -15.461532    133.10267    7.6300617      46.7237      46.7237      46.7237           90           90           90     102002.7      -724.63 
  977000       976498   -7658.7457    548.94969   -8207.6954    4183.2675   -12390.963    91.668116   -902.41423   -475.49205   -491.54963     79.10478   -51.183707   -178.87615      46.7237      46.7237      46.7237           90           90           90     102002.7   -623.15197 
  978000       977498   -7621.0177    549.46931    -8170.487    4209.6394   -12380.126    91.754886   -689.51619   -671.43913   -657.25169    144.81085    99.352301   -126.84605      46.7237      46.7237      46.7237           90           90           90     102002.7   -672.73567 
  979000       978498   -7690.1409    539.44752   -8229.5884    4179.7151   -12409.303    90.081365   -1147.7906   -888.92959   -563.61832     11.46705     -86.9191   -82.770184      46.7237      46.7237      46.7237           90           90           90     102002.7    -866.7795 
  980000       979498   -7647.9888    538.05911   -8186.0479    4198.8915   -12384.939    89.849517   -862.34292   -490.75013   -741.43485   -166.52039   -29.015232   -98.203406      46.7237      46.7237      46.7237           90           90           90     102002.7   -698.17597 
  981000       980498   -7654.4374    540.81093   -8195.2483    4204.3732   -12399.622    90.309038   -1339.6265    -747.1229   -519.15086    19.385867   -11.096137    208.64766      46.7237      46.7237      46.7237           90           90           90     102002.7   -868.63343 
  982000       981498   -7633.3932    566.50779    -8199.901      4187.27   -12387.171    94.600111   -979.13687   -872.24033   -423.92677    -42.36569   -99.872115    -241.8711      46.7237      46.7237      46.7237           90           90           90     102002.7   -758.43466 
  983000       982498   -7638.7873    560.56136   -8199.3486    4197.4926   -12396.841    93.607127   -1089.4147   -865.95091   -868.75669    2.9247474    74.648008    111.33161      46.7237      46.7237      46.7237           90           90           90     102002.7   -941.37411 
  984000       983498   -7658.3096     547.2521   -8205.5617    4186.5254   -12392.087    91.384639   -979.09402   -823.59518   -1042.1801    69.943004   -56.584559    7.9407299      46.7237      46.7237      46.7237           90           90           90     102002.7   -948.28977 
  985000       984498   -7655.3343    537.95827   -8193.2926    4186.8353   -12380.128    89.832679   -882.22024   -620.39112   -420.26508   -21.160853    32.470527    95.253196      46.7237      46.7237      46.7237           90           90           90     102002.7   -640.95881 
  986000       985498   -7652.5768    536.69774   -8189.2745    4216.0558    -12405.33    89.622186   -737.12708   -917.58778   -827.27022     90.16293    58.735565    -187.7683      46.7237      46.7237      46.7237           90           90           90     102002.7   -827.32836 
  987000       986498   -7612.9628    566.31699   -8179.2798     4214.438   -12393.718    94.568251   -845.64803    -841.4093   -386.37091    99.606222    51.733054   -29.331667      46.7237      46.7237      46.7237           90           90           90     102002.7   -691.14275 
  988000       987498   -7650.9513    562.33486   -8213.2862    4179.5639    -12392.85    93.903281   -882.36483   -870.53714   -479.12809    82.771325    -199.7357    2.0704458      46.7237      46.7237      46.7237           90           90           90     102002.7   -744.01002 
  989000       988498   -7637.3073    543.47646   -8180.7837    4197.6258    -12378.41    90.754151   -574.28069   -706.58894   -817.79538   -8.6649782   -38.154598    -127.0845      46.7237      46.7237      46.7237           90           90           90     102002.7     -699.555 
  990000       989498   -7652.8895    547.43701   -8200.3265    4187.2666   -12387.593    91.415516   -444.13514   -778.12565   -544.36892    109.67934   -235.64084    125.32186      46.7237      46.7237      46.7237           90           90           90     102002.7   -588.87657 
  991000       990498   -7671.1091    533.02532   -8204.1344    4176.0666   -12380.201    89.008934   -771.23937   -913.89721   -711.57122   -157.53544    213.93674    100.75539      46.7237      46.7237      46.7237           90           90           90     102002.7    -798.9026 
  992000       991498   -7660.5739    541.95785   -8202.5317    4181.2814   -12383.813    90.500561   -882.04167   -488.69025   -690.52137      32.5492    21.760115   -72.330905      46.7237      46.7237      46.7237           90           90           90     102002.7   -687.08443 
  993000       992498   -7670.2169    528.71229   -8198.9292    4188.5606    -12387.49     88.28871   -1193.5979   -459.17514   -877.49725   -29.391599    8.1753798    130.63444      46.7237      46.7237      46.7237           90           90           90     102002.7   -843.42343 
  994000       993498   -7651.5779    546.47424   -8198.0521    4194.6964   -12392.749    91.254745   -791.66645   -832.80315   -815.49257    36.839166      137.958    265.71317      46.7237      46.7237      46.7237           90           90           90     102002.7   -813.32072 
  995000       994498   -7661.3404    539.32279   -8200.6632    4192.4328   -12393.096    90.060538   -959.96557   -699.65619   -944.92324    35.598411   -298.79324    114.37333      46.7237      46.7237      46.7237           90           90           90     102002.7   -868.18167 
  996000       995498   -7632.6818    548.49366   -8181.1755    4217.0438   -12398.219    91.591965   -1049.3709   -933.79726   -914.26349   -69.742278    -57.08925     80.71596      46.7237      46.7237      46.7237           90           90           90     102002.7   -965.81056 
  997000       996498   -7660.1318    543.32623   -8203.4581    4202.7635   -12406.222    90.729065   -872.24225   -876.74104   -923.70487   -50.823814    127.09052    144.29578      46.7237      46.7237      46.7237           90           90           90     102002.7   -890.89605 
  998000       997498   -7654.0796    548.94741    -8203.027    4199.8119   -12402.839    91.667735   -352.84298   -725.50124   -514.04162    65.456753    36.422032   -20.841743      46.7237      46.7237      46.7237           90           90           90     102002.7   -530.79528 
  999000       998498   -7653.5394    549.84346   -8203.3829    4190.6025   -12393.985    91.817366   -609.41493   -349.21494   -787.33348   -42.002223   -29.943761    -154.9804      46.7237      46.7237      46.7237           90           90           90     102002.7   -581.98778 
 1000000       999498   -7645.7273    551.36148   -8197.0888    4201.3708    -12398.46    92.070857   -693.01464   -426.33806   -1051.6957   -137.77771    80.723016     250.2627      46.7237      46.7237      46.7237           90           90           90     102002.7    -723.6828 
 1000502      1000000   -7635.0272     557.1451   -8192.1723    4192.3466   -12384.519    93.036653   -799.49391   -767.20207   -696.46481   -22.353268   -88.740884    135.27663      46.7237      46.7237      46.7237           90           90           90     102002.7   -754.38693 
Loop time of 1563.14 on 16 procs for 500000 steps with 2010 atoms

Performance: 27.637 ns/day, 0.868 hours/ns, 319.869 timesteps/s
99.9% CPU use with 16 MPI tasks x no OpenMP threads

MPI task timing breakdown:
Section |  min time  |  avg time  |  max time  |%varavg| %total
---------------------------------------------------------------
Pair    | 691.19     | 891.74     | 1154.1     | 485.0 | 57.05
Bond    | 172.87     | 183.58     | 199.72     |  63.2 | 11.74
Neigh   | 6.0024     | 6.0121     | 6.0307     |   0.3 |  0.38
Comm    | 187.9      | 453.71     | 650.22     | 661.5 | 29.03
Output  | 0.10393    | 0.10941    | 0.10999    |   0.4 |  0.01
Modify  | 21.651     | 22.483     | 23.24      |  10.6 |  1.44
Other   |            | 5.512      |            |       |  0.35

Nlocal:    125.625 ave 148 max 103 min
Histogram: 1 3 1 0 4 0 1 3 1 2
Nghost:    2509.88 ave 2532 max 2484 min
Histogram: 2 1 1 1 3 0 3 0 2 3
Neighs:    11449.2 ave 15735 max 7566 min
Histogram: 2 1 2 1 5 0 0 2 1 2

Total # of neighbors = 183188
Ave neighs/atom = 91.1383
Ave special neighs/atom = 5.73134
Neighbor list builds = 3843
Dangerous builds = 0
Total wall time: 0:49:01
