LAMMPS (30 Mar 2018)
Reading data file ...
  orthogonal box = (0 0 0) to (46.7237 46.7237 46.7237)
  2 by 2 by 4 MPI processor grid
  reading atoms ...
  1746 atoms
  scanning bonds ...
  5 = max bonds/atom
  scanning angles ...
  10 = max angles/atom
  scanning dihedrals ...
  32 = max dihedrals/atom
  scanning impropers ...
  3 = max impropers/atom
  reading bonds ...
  2064 bonds
  reading angles ...
  3696 angles
  reading dihedrals ...
  6240 dihedrals
  reading impropers ...
  1008 impropers
Finding 1-2 1-3 1-4 neighbors ...
  special bond factors lj:   0          0          0         
  special bond factors coul: 0          0          0         
  5 = max # of 1-2 neighbors
  8 = max # of 1-3 neighbors
  20 = max # of 1-4 neighbors
  19 = max # of special neighbors
Finding 1-2 1-3 1-4 neighbors ...
  special bond factors lj:   0          0          1         
  special bond factors coul: 1          1          1         
  5 = max # of 1-2 neighbors
  8 = max # of 1-3 neighbors
  19 = max # of special neighbors
WARNING: Using 'neigh_modify every 1 delay 0 check yes' setting during minimization (../min.cpp:168)
Neighbor list info ...
  update every 1 steps, delay 0 steps, check yes
  max neighbors/atom: 2000, page size: 100000
  master list distance cutoff = 16
  ghost atom cutoff = 16
  binsize = 8, bins = 6 6 6
  3 neighbor lists, perpetual/occasional/extra = 3 0 0
  (1) pair buck6d/coul/gauss/dsf, perpetual, skip from (3)
      attributes: half, newton on
      pair build: skip
      stencil: none
      bin: none
  (2) pair lj/cut, perpetual, skip from (3)
      attributes: half, newton on
      pair build: skip
      stencil: none
      bin: none
  (3) neighbor class addition, perpetual
      attributes: half, newton on
      pair build: half/bin/newton
      stencil: half/bin/3d/newton
      bin: standard
Setting up cg style minimization ...
  Unit style    : real
  Current step  : 0
WARNING: Inconsistent image flags (../domain.cpp:786)
Per MPI rank memory allocation (min/avg/max) = 22.89 | 23.35 | 23.79 Mbytes
Step Temp E_pair E_mol TotEng Press 
       0            0   -11567.131    6482.8914   -5084.2399    6263.5011 
     506            0   -11590.253    3735.6981   -7854.5549   -482.16255 
Loop time of 2.72357 on 16 procs for 506 steps with 1746 atoms

99.9% CPU use with 16 MPI tasks x no OpenMP threads

Minimization stats:
  Stopping criterion = max force evaluations
  Energy initial, next-to-last, final = 
        -5084.23985289     -7854.55217856     -7854.55487534
  Force two-norm initial, final = 2576.85 2.58707
  Force max component initial, final = 151.971 0.33763
  Final line search alpha, max atom move = 0.029915 0.0101002
  Iterations, force evaluations = 506 1001

MPI task timing breakdown:
Section |  min time  |  avg time  |  max time  |%varavg| %total
---------------------------------------------------------------
Pair    | 1.1919     | 1.5826     | 1.9601     |  16.9 | 58.11
Bond    | 0.31808    | 0.36096    | 0.42517    |   4.4 | 13.25
Neigh   | 0.010859   | 0.010892   | 0.010935   |   0.0 |  0.40
Comm    | 0.33341    | 0.72991    | 1.124      |  24.4 | 26.80
Output  | 0          | 0          | 0          |   0.0 |  0.00
Modify  | 0          | 0          | 0          |   0.0 |  0.00
Other   |            | 0.03917    |            |       |  1.44

Nlocal:    109.125 ave 131 max 94 min
Histogram: 1 2 1 5 4 1 0 0 1 1
Nghost:    2202.38 ave 2218 max 2180 min
Histogram: 1 1 0 0 2 3 4 3 1 1
Neighs:    11435.9 ave 14961 max 7551 min
Histogram: 2 1 1 3 2 0 1 0 5 1

Total # of neighbors = 182975
Ave neighs/atom = 104.797
Ave special neighs/atom = 6.59794
Neighbor list builds = 9
Dangerous builds = 0
Neighbor list info ...
  update every 1 steps, delay 10 steps, check yes
  max neighbors/atom: 2000, page size: 100000
  master list distance cutoff = 16
  ghost atom cutoff = 16
  binsize = 8, bins = 6 6 6
  3 neighbor lists, perpetual/occasional/extra = 3 0 0
  (1) pair buck6d/coul/gauss/dsf, perpetual, skip from (3)
      attributes: half, newton on
      pair build: skip
      stencil: none
      bin: none
  (2) pair lj/cut, perpetual, skip from (3)
      attributes: half, newton on
      pair build: skip
      stencil: none
      bin: none
  (3) neighbor class addition, perpetual
      attributes: half, newton on
      pair build: half/bin/newton
      stencil: half/bin/3d/newton
      bin: standard
Setting up Verlet run ...
  Unit style    : real
  Current step  : 506
  Time step     : 1
WARNING: Inconsistent image flags (../domain.cpp:786)
Per MPI rank memory allocation (min/avg/max) = 22.54 | 22.62 | 22.97 Mbytes
Step Temp PotEng TotEng Press Volume Lx Ly Lz 
     506           91   -7854.5549   -7381.2171   -270.03734     102002.7      46.7237      46.7237      46.7237 
    1000    78.101842   -7423.6479   -7017.4002   -804.19669     102002.7      46.7237      46.7237      46.7237 
    2000    88.631117   -7352.7793   -6891.7634    -750.4306     102002.7      46.7237      46.7237      46.7237 
    3000    86.502034   -7358.0502   -6908.1087   -901.81674     102002.7      46.7237      46.7237      46.7237 
    4000    89.677862   -7377.3903   -6910.9297   -567.69226     102002.7      46.7237      46.7237      46.7237 
    5000    92.802342   -7371.1568   -6888.4442   -738.06639     102002.7      46.7237      46.7237      46.7237 
    6000    88.898501   -7370.2088    -6907.802   -556.98253     102002.7      46.7237      46.7237      46.7237 
    7000    89.277028    -7371.547   -6907.1713   -653.62576     102002.7      46.7237      46.7237      46.7237 
    8000    94.844458    -7377.589   -6884.2542   -623.13969     102002.7      46.7237      46.7237      46.7237 
    9000    89.155859   -7378.9337   -6915.1883   -573.08385     102002.7      46.7237      46.7237      46.7237 
   10000     92.62136    -7366.125   -6884.3538   -452.34216     102002.7      46.7237      46.7237      46.7237 
   11000    90.828276   -7367.1023   -6894.6578   -717.79347     102002.7      46.7237      46.7237      46.7237 
   12000    90.285919    -7363.932   -6894.3086   -496.05193     102002.7      46.7237      46.7237      46.7237 
   13000    91.600699     -7389.82   -6913.3578   -582.07142     102002.7      46.7237      46.7237      46.7237 
   14000    90.777596   -7372.2154   -6900.0345   -739.76112     102002.7      46.7237      46.7237      46.7237 
   15000    92.303617   -7374.4351   -6894.3165   -735.04263     102002.7      46.7237      46.7237      46.7237 
   16000    90.957764    -7362.679   -6889.5609    -778.6016     102002.7      46.7237      46.7237      46.7237 
   17000    89.981823   -7368.5929   -6900.5512   -856.65638     102002.7      46.7237      46.7237      46.7237 
   18000    87.064422    -7366.497   -6913.6302   -437.70927     102002.7      46.7237      46.7237      46.7237 
   19000    89.066961   -7364.9242   -6901.6412   -728.51594     102002.7      46.7237      46.7237      46.7237 
   20000    92.637843   -7369.9726   -6888.1156   -870.82337     102002.7      46.7237      46.7237      46.7237 
   21000    93.954415   -7377.7205   -6889.0153   -828.95955     102002.7      46.7237      46.7237      46.7237 
   22000    90.766557   -7377.3259   -6905.2024   -633.56404     102002.7      46.7237      46.7237      46.7237 
   23000    89.803027   -7375.5732   -6908.4615   -495.40121     102002.7      46.7237      46.7237      46.7237 
   24000    95.518417   -7352.0629   -6855.2226   -701.22983     102002.7      46.7237      46.7237      46.7237 
   25000    89.250258   -7367.6419   -6903.4055   -620.43755     102002.7      46.7237      46.7237      46.7237 
   26000    90.157732   -7362.7689   -6893.8123   -681.70605     102002.7      46.7237      46.7237      46.7237 
   27000    93.424975   -7355.6856   -6869.7343   -953.12548     102002.7      46.7237      46.7237      46.7237 
   28000    92.006825   -7382.9598   -6904.3851   -991.04715     102002.7      46.7237      46.7237      46.7237 
   29000    95.250546   -7374.4318   -6878.9848    -892.1671     102002.7      46.7237      46.7237      46.7237 
   30000     91.22335   -7380.3358   -6905.8363   -548.54799     102002.7      46.7237      46.7237      46.7237 
   31000    90.075132   -7367.4864   -6898.9594    -587.3039     102002.7      46.7237      46.7237      46.7237 
   32000    89.762498   -7376.7483   -6909.8475   -762.02707     102002.7      46.7237      46.7237      46.7237 
   33000    92.068334   -7384.3562   -6905.4615   -353.94499     102002.7      46.7237      46.7237      46.7237 
   34000    92.082083   -7383.7493   -6904.7831    -608.5803     102002.7      46.7237      46.7237      46.7237 
   35000    92.309836   -7384.2037   -6904.0528   -513.09144     102002.7      46.7237      46.7237      46.7237 
   36000    91.188666    -7347.319        -6873   -733.62051     102002.7      46.7237      46.7237      46.7237 
   37000     92.78004   -7374.3076   -6891.7109   -408.40859     102002.7      46.7237      46.7237      46.7237 
   38000    91.049625     -7374.55   -6900.9541   -375.00062     102002.7      46.7237      46.7237      46.7237 
   39000    89.448422   -7361.7101   -6896.4429   -573.10344     102002.7      46.7237      46.7237      46.7237 
   40000    91.902104   -7365.7168   -6887.6867   -637.51257     102002.7      46.7237      46.7237      46.7237 
   41000    91.463858      -7387.3   -6911.5495   -572.36649     102002.7      46.7237      46.7237      46.7237 
   42000    89.965958    -7367.687   -6899.7279   -487.19277     102002.7      46.7237      46.7237      46.7237 
   43000    90.271769   -7368.2984   -6898.7486   -699.07996     102002.7      46.7237      46.7237      46.7237 
   44000     92.37995    -7365.116   -6884.6004   -666.34651     102002.7      46.7237      46.7237      46.7237 
   45000    90.285746   -7370.0779   -6900.4553   -599.14839     102002.7      46.7237      46.7237      46.7237 
   46000    89.292721   -7383.6442   -6919.1869   -788.49048     102002.7      46.7237      46.7237      46.7237 
   47000    91.911519   -7373.5813   -6895.5023   -364.80033     102002.7      46.7237      46.7237      46.7237 
   48000    91.761896    -7358.843   -6881.5423   -727.34729     102002.7      46.7237      46.7237      46.7237 
   49000     90.42655   -7373.8091   -6903.4542   -656.18194     102002.7      46.7237      46.7237      46.7237 
   50000     89.52831   -7371.5641   -6905.8814   -584.47853     102002.7      46.7237      46.7237      46.7237 
   51000    91.583931   -7355.6656   -6879.2905    -862.9288     102002.7      46.7237      46.7237      46.7237 
   52000    92.606755   -7372.7905   -6891.0952   -675.29508     102002.7      46.7237      46.7237      46.7237 
   53000    90.056212   -7372.9514   -6904.5228   -528.61149     102002.7      46.7237      46.7237      46.7237 
   54000    94.192481   -7366.7861   -6876.8426   -799.07149     102002.7      46.7237      46.7237      46.7237 
   55000    92.517077   -7386.4981   -6905.2692   -459.46628     102002.7      46.7237      46.7237      46.7237 
   56000    95.169883   -7380.4387   -6885.4113   -612.88794     102002.7      46.7237      46.7237      46.7237 
   57000    92.377646      -7391.4   -6910.8964   -722.16458     102002.7      46.7237      46.7237      46.7237 
   58000    91.970816   -7359.9871   -6881.5996   -557.40614     102002.7      46.7237      46.7237      46.7237 
   59000    91.750563    -7374.502   -6897.2602    -608.7506     102002.7      46.7237      46.7237      46.7237 
   60000    90.087874    -7369.697   -6901.1037   -568.93373     102002.7      46.7237      46.7237      46.7237 
   61000    91.515989    -7385.002   -6908.9804    -296.3413     102002.7      46.7237      46.7237      46.7237 
   62000    93.217987   -7367.5377   -6882.6631   -449.33828     102002.7      46.7237      46.7237      46.7237 
   63000    89.484863   -7380.7373   -6915.2806   -447.00614     102002.7      46.7237      46.7237      46.7237 
   64000    92.731449   -7378.3037   -6895.9598   -643.67599     102002.7      46.7237      46.7237      46.7237 
   65000    92.426371    -7370.455   -6889.6979    -655.3636     102002.7      46.7237      46.7237      46.7237 
   66000    90.529036   -7374.9317   -6904.0437   -508.26325     102002.7      46.7237      46.7237      46.7237 
   67000    91.841345   -7374.4341   -6896.7201   -617.79911     102002.7      46.7237      46.7237      46.7237 
   68000    92.771251    -7371.178   -6888.6271   -491.41716     102002.7      46.7237      46.7237      46.7237 
   69000    88.937232   -7391.9465   -6929.3383   -633.31195     102002.7      46.7237      46.7237      46.7237 
   70000    90.875678   -7362.3604   -6889.6693   -593.30572     102002.7      46.7237      46.7237      46.7237 
   71000    92.205093   -7377.4712   -6897.8652   -533.32359     102002.7      46.7237      46.7237      46.7237 
   72000    90.511722   -7385.0923   -6914.2944   -661.20653     102002.7      46.7237      46.7237      46.7237 
   73000    93.082514   -7370.0131   -6885.8431    -513.6785     102002.7      46.7237      46.7237      46.7237 
   74000    93.021072   -7360.5822   -6876.7319   -666.94423     102002.7      46.7237      46.7237      46.7237 
   75000    91.868461   -7375.6924   -6897.8373   -608.53601     102002.7      46.7237      46.7237      46.7237 
   76000    88.125705   -7374.5974   -6916.2103    -671.5077     102002.7      46.7237      46.7237      46.7237 
   77000    92.686051   -7354.5429   -6872.4352    -857.8795     102002.7      46.7237      46.7237      46.7237 
   78000    94.705554   -7386.9781   -6894.3659   -755.11371     102002.7      46.7237      46.7237      46.7237 
   79000    91.553375   -7386.4608   -6910.2447   -664.33969     102002.7      46.7237      46.7237      46.7237 
   80000    91.235974    -7364.696   -6890.1309   -513.57953     102002.7      46.7237      46.7237      46.7237 
   81000    93.477816   -7381.5171    -6895.291   -680.36878     102002.7      46.7237      46.7237      46.7237 
   82000     92.82827   -7368.5142   -6885.6667   -776.22436     102002.7      46.7237      46.7237      46.7237 
   83000    94.496672   -7396.3599   -6904.8342   -443.16974     102002.7      46.7237      46.7237      46.7237 
   84000    88.249412   -7387.1824   -6928.1519   -608.02059     102002.7      46.7237      46.7237      46.7237 
   85000     92.66475    -7372.539    -6890.542   -652.08509     102002.7      46.7237      46.7237      46.7237 
   86000    92.937803   -7368.6564   -6885.2392   -166.64361     102002.7      46.7237      46.7237      46.7237 
   87000    89.739002   -7368.3564   -6901.5778   -588.91119     102002.7      46.7237      46.7237      46.7237 
   88000    94.882791    -7384.418   -6890.8839   -586.76673     102002.7      46.7237      46.7237      46.7237 
   89000    89.807122   -7369.0575   -6901.9245   -638.09513     102002.7      46.7237      46.7237      46.7237 
   90000     91.53378   -7377.9462   -6901.8321   -657.52759     102002.7      46.7237      46.7237      46.7237 
   91000    92.639232   -7379.0029   -6897.1387   -587.93269     102002.7      46.7237      46.7237      46.7237 
   92000    90.312747   -7385.1214   -6915.3584   -663.34052     102002.7      46.7237      46.7237      46.7237 
   93000    90.752662   -7366.9167   -6894.8654    -727.1345     102002.7      46.7237      46.7237      46.7237 
   94000    88.078471   -7380.8756   -6922.7342   -658.66343     102002.7      46.7237      46.7237      46.7237 
   95000    92.652109   -7376.6219   -6894.6907   -798.38941     102002.7      46.7237      46.7237      46.7237 
   96000    89.852699   -7373.9929   -6906.6229   -677.24502     102002.7      46.7237      46.7237      46.7237 
   97000    90.050593   -7383.2204   -6914.8211    -830.8359     102002.7      46.7237      46.7237      46.7237 
   98000    89.528499   -7358.1131   -6892.4294   -550.68061     102002.7      46.7237      46.7237      46.7237 
   99000    88.426099   -7370.9866    -6911.037   -595.93585     102002.7      46.7237      46.7237      46.7237 
  100000     89.24179   -7376.0066   -6911.8142   -548.24021     102002.7      46.7237      46.7237      46.7237 
  101000     88.39045   -7355.9261    -6896.162   -791.40584     102002.7      46.7237      46.7237      46.7237 
  102000    86.509797   -7377.7584   -6927.7766   -478.23722     102002.7      46.7237      46.7237      46.7237 
  103000     93.16235   -7379.5099   -6894.9247   -813.20795     102002.7      46.7237      46.7237      46.7237 
  104000    88.594726   -7360.3199   -6899.4933   -773.62991     102002.7      46.7237      46.7237      46.7237 
  105000    92.711501   -7389.5355   -6907.2954   -422.74668     102002.7      46.7237      46.7237      46.7237 
  106000    95.027271    -7364.764   -6870.4784   -845.36253     102002.7      46.7237      46.7237      46.7237 
  107000    93.548179   -7388.6416   -6902.0495    -672.9652     102002.7      46.7237      46.7237      46.7237 
  108000    93.599782    -7367.063   -6880.2025   -873.59987     102002.7      46.7237      46.7237      46.7237 
  109000    89.393409   -7380.9775   -6915.9965   -748.85499     102002.7      46.7237      46.7237      46.7237 
  110000    90.465294   -7383.9836   -6913.4271   -905.34122     102002.7      46.7237      46.7237      46.7237 
  111000    92.488024   -7359.9753   -6878.8976   -744.98324     102002.7      46.7237      46.7237      46.7237 
  112000    91.441453   -7363.5152   -6887.8813   -784.88115     102002.7      46.7237      46.7237      46.7237 
  113000    91.617205   -7385.9725   -6909.4243   -853.65101     102002.7      46.7237      46.7237      46.7237 
  114000    90.551738   -7357.0424   -6886.0363   -724.60933     102002.7      46.7237      46.7237      46.7237 
  115000    92.851815   -7357.8125   -6874.8425   -838.05993     102002.7      46.7237      46.7237      46.7237 
  116000    90.242927   -7380.1684   -6910.7686   -859.19409     102002.7      46.7237      46.7237      46.7237 
  117000    90.828739   -7373.8218   -6901.3749   -740.22903     102002.7      46.7237      46.7237      46.7237 
  118000    92.429071   -7369.1171    -6888.346   -772.97281     102002.7      46.7237      46.7237      46.7237 
  119000    91.796743   -7385.0755   -6907.5935   -717.90817     102002.7      46.7237      46.7237      46.7237 
  120000    91.172938   -7360.7483    -6886.511   -739.45563     102002.7      46.7237      46.7237      46.7237 
  121000    88.187432   -7364.9638   -6906.2557   -812.05591     102002.7      46.7237      46.7237      46.7237 
  122000    89.456465   -7385.1261   -6919.8171   -695.73239     102002.7      46.7237      46.7237      46.7237 
  123000    91.006725   -7368.6679   -6895.2952    -844.8738     102002.7      46.7237      46.7237      46.7237 
  124000     88.50813   -7366.0091   -6905.6329   -705.50313     102002.7      46.7237      46.7237      46.7237 
  125000    92.066763   -7373.2204   -6894.3338   -780.19182     102002.7      46.7237      46.7237      46.7237 
  126000    90.598506    -7385.416   -6914.1666    -738.9508     102002.7      46.7237      46.7237      46.7237 
  127000    91.921984   -7371.1617   -6893.0283   -800.84839     102002.7      46.7237      46.7237      46.7237 
  128000    93.036821   -7391.6947   -6907.7624   -391.22891     102002.7      46.7237      46.7237      46.7237 
  129000    90.238238   -7373.8057   -6904.4303   -817.63583     102002.7      46.7237      46.7237      46.7237 
  130000    88.865579   -7367.4741   -6905.2386   -522.83584     102002.7      46.7237      46.7237      46.7237 
  131000    89.028691   -7369.8884   -6906.8044    -861.9361     102002.7      46.7237      46.7237      46.7237 
  132000     87.30367   -7379.7905   -6925.6793    -703.8622     102002.7      46.7237      46.7237      46.7237 
  133000     91.23675   -7375.4452   -6900.8761   -770.64782     102002.7      46.7237      46.7237      46.7237 
  134000    89.651344   -7361.6754   -6895.3528   -772.50086     102002.7      46.7237      46.7237      46.7237 
  135000    89.597495   -7380.8048   -6914.7623    -458.9211     102002.7      46.7237      46.7237      46.7237 
  136000    92.986784   -7359.0197   -6875.3477   -754.28385     102002.7      46.7237      46.7237      46.7237 
  137000    91.984866   -7382.1541   -6903.6936   -501.68551     102002.7      46.7237      46.7237      46.7237 
  138000    90.521202   -7368.2317   -6897.3844   -551.94311     102002.7      46.7237      46.7237      46.7237 
  139000    93.470375   -7373.3908   -6887.2034   -720.18821     102002.7      46.7237      46.7237      46.7237 
  140000     91.87522   -7381.2165   -6903.3263   -566.44585     102002.7      46.7237      46.7237      46.7237 
  141000    92.118213    -7358.423   -6879.2689   -434.04174     102002.7      46.7237      46.7237      46.7237 
  142000    91.304589   -7373.1813   -6898.2592   -396.53438     102002.7      46.7237      46.7237      46.7237 
  143000    91.652957   -7379.8157   -6903.0816   -675.53268     102002.7      46.7237      46.7237      46.7237 
  144000    89.400013   -7360.9992   -6895.9839   -709.05651     102002.7      46.7237      46.7237      46.7237 
  145000    88.555829   -7369.1036   -6908.4793   -733.94196     102002.7      46.7237      46.7237      46.7237 
  146000    94.888126   -7377.8819   -6884.3201   -1016.3246     102002.7      46.7237      46.7237      46.7237 
  147000    91.237484   -7382.3707   -6907.7977    -622.2708     102002.7      46.7237      46.7237      46.7237 
  148000    89.937867    -7368.996    -6901.183   -649.41736     102002.7      46.7237      46.7237      46.7237 
  149000    95.385226   -7369.4158   -6873.2682    -865.0252     102002.7      46.7237      46.7237      46.7237 
  150000    91.129757   -7373.1543   -6899.1416   -518.20767     102002.7      46.7237      46.7237      46.7237 
  151000    88.959695   -7365.7381   -6903.0131   -991.29725     102002.7      46.7237      46.7237      46.7237 
  152000    89.916557   -7372.3765   -6904.6743   -678.59937     102002.7      46.7237      46.7237      46.7237 
  153000    92.077671   -7361.4623    -6882.519   -631.86481     102002.7      46.7237      46.7237      46.7237 
  154000    89.997631   -7374.6108   -6906.4869   -912.82809     102002.7      46.7237      46.7237      46.7237 
  155000    91.842829   -7351.9015   -6874.1798     -680.286     102002.7      46.7237      46.7237      46.7237 
  156000     89.06851   -7367.8607   -6904.5697    -710.3744     102002.7      46.7237      46.7237      46.7237 
  157000    91.534564   -7388.2183   -6912.1001   -677.93437     102002.7      46.7237      46.7237      46.7237 
  158000    92.362589    -7373.152   -6892.7267   -416.56033     102002.7      46.7237      46.7237      46.7237 
  159000    88.033765   -7376.8351   -6918.9263   -683.50474     102002.7      46.7237      46.7237      46.7237 
  160000    90.432564   -7371.1972    -6900.811   -537.59347     102002.7      46.7237      46.7237      46.7237 
  161000    90.472475   -7361.1428    -6890.549   -733.15224     102002.7      46.7237      46.7237      46.7237 
  162000    87.804245   -7372.9278   -6916.2128   -579.91614     102002.7      46.7237      46.7237      46.7237 
  163000    91.925408    -7359.046   -6880.8948   -580.17768     102002.7      46.7237      46.7237      46.7237 
  164000    91.134283   -7368.1676   -6894.1314    -545.3947     102002.7      46.7237      46.7237      46.7237 
  165000    90.957601   -7373.6672     -6900.55   -512.00024     102002.7      46.7237      46.7237      46.7237 
  166000    89.199068   -7353.0801     -6889.11   -713.08038     102002.7      46.7237      46.7237      46.7237 
  167000    88.211306   -7360.2034   -6901.3711   -621.47226     102002.7      46.7237      46.7237      46.7237 
  168000    88.520343   -7368.5806   -6908.1408   -657.72187     102002.7      46.7237      46.7237      46.7237 
  169000    90.655553   -7380.7175   -6909.1714   -891.64573     102002.7      46.7237      46.7237      46.7237 
  170000    92.446385   -7382.7337   -6901.8726     -778.232     102002.7      46.7237      46.7237      46.7237 
  171000     89.60443   -7377.6209   -6911.5422   -892.47808     102002.7      46.7237      46.7237      46.7237 
  172000    92.446805   -7389.3606   -6908.4973    -895.5962     102002.7      46.7237      46.7237      46.7237 
  173000    90.937836   -7356.8678   -6883.8534   -606.25231     102002.7      46.7237      46.7237      46.7237 
  174000    91.108463   -7373.1058   -6899.2039   -785.54359     102002.7      46.7237      46.7237      46.7237 
  175000    91.533947   -7368.4926   -6892.3776   -861.63662     102002.7      46.7237      46.7237      46.7237 
  176000    92.871889   -7367.7383   -6884.6639   -503.82474     102002.7      46.7237      46.7237      46.7237 
  177000     88.44927   -7371.8408   -6911.7707   -546.72649     102002.7      46.7237      46.7237      46.7237 
  178000    91.292436   -7364.0012   -6889.1423   -704.70596     102002.7      46.7237      46.7237      46.7237 
  179000    93.505441   -7391.6613   -6905.2915   -633.04276     102002.7      46.7237      46.7237      46.7237 
  180000    91.284577   -7378.6142   -6903.7963   -525.16996     102002.7      46.7237      46.7237      46.7237 
  181000    92.773522   -7373.5906   -6891.0279   -793.67427     102002.7      46.7237      46.7237      46.7237 
  182000    89.368549   -7386.3181   -6921.4663   -589.23932     102002.7      46.7237      46.7237      46.7237 
  183000     93.54023    -7380.643   -6894.0922   -889.77393     102002.7      46.7237      46.7237      46.7237 
  184000    90.829206   -7372.9959   -6900.5465   -567.43655     102002.7      46.7237      46.7237      46.7237 
  185000    90.337395   -7378.0472   -6908.1561   -701.47569     102002.7      46.7237      46.7237      46.7237 
  186000    92.070008   -7381.9213   -6903.0179   -1046.5024     102002.7      46.7237      46.7237      46.7237 
  187000    92.631208    -7365.196   -6883.3735    -703.2145     102002.7      46.7237      46.7237      46.7237 
  188000    95.180667   -7371.1292   -6876.0457   -757.18042     102002.7      46.7237      46.7237      46.7237 
  189000    89.818687   -7373.5482   -6906.3551   -598.76892     102002.7      46.7237      46.7237      46.7237 
  190000    92.818384   -7371.6107   -6888.8146   -684.19753     102002.7      46.7237      46.7237      46.7237 
  191000    87.508333   -7381.6601   -6926.4843   -905.01908     102002.7      46.7237      46.7237      46.7237 
  192000    90.288067   -7361.4016   -6891.7669   -458.55688     102002.7      46.7237      46.7237      46.7237 
  193000    89.632351   -7377.7457   -6911.5218   -664.84909     102002.7      46.7237      46.7237      46.7237 
  194000    91.214292   -7367.9259   -6893.4735   -455.53629     102002.7      46.7237      46.7237      46.7237 
  195000    89.205597   -7368.7186   -6904.7145   -438.31024     102002.7      46.7237      46.7237      46.7237 
  196000    93.164611   -7366.5652   -6881.9682   -692.40303     102002.7      46.7237      46.7237      46.7237 
  197000    88.727098   -7384.2912    -6922.776   -697.60933     102002.7      46.7237      46.7237      46.7237 
  198000    88.704827   -7369.1098   -6907.7104   -773.25708     102002.7      46.7237      46.7237      46.7237 
  199000    90.331584   -7381.0453   -6911.1844   -861.70777     102002.7      46.7237      46.7237      46.7237 
  200000    92.717541   -7366.9095   -6884.6379   -587.12756     102002.7      46.7237      46.7237      46.7237 
  201000    93.655136   -7356.2294   -6869.0809   -583.71995     102002.7      46.7237      46.7237      46.7237 
  202000    87.498336   -7364.1332   -6909.0094    -743.2767     102002.7      46.7237      46.7237      46.7237 
  203000    92.642358     -7356.91   -6875.0295   -784.79252     102002.7      46.7237      46.7237      46.7237 
  204000    90.678604   -7362.1543   -6890.4883   -612.69526     102002.7      46.7237      46.7237      46.7237 
  205000    88.130308     -7386.25    -6927.839   -642.09697     102002.7      46.7237      46.7237      46.7237 
  206000    89.739288   -7365.8561    -6899.076    -545.9533     102002.7      46.7237      46.7237      46.7237 
  207000    93.360081   -7370.0096   -6884.3959   -609.44464     102002.7      46.7237      46.7237      46.7237 
  208000    89.474948   -7382.3383   -6916.9332   -859.20555     102002.7      46.7237      46.7237      46.7237 
  209000    93.109226   -7362.4722   -6878.1633   -498.27575     102002.7      46.7237      46.7237      46.7237 
  210000    90.938219   -7374.1695   -6901.1531   -439.49701     102002.7      46.7237      46.7237      46.7237 
  211000    90.588058   -7363.0817   -6891.8867   -395.21638     102002.7      46.7237      46.7237      46.7237 
  212000    86.149414   -7369.2327   -6921.1254   -660.77549     102002.7      46.7237      46.7237      46.7237 
  213000    91.927572   -7375.1577   -6896.9952   -748.72385     102002.7      46.7237      46.7237      46.7237 
  214000    94.220363   -7358.0317   -6867.9432   -600.62965     102002.7      46.7237      46.7237      46.7237 
  215000    92.203715   -7391.2129   -6911.6141   -528.29526     102002.7      46.7237      46.7237      46.7237 
  216000    91.057715   -7355.2715   -6881.6335   -703.22652     102002.7      46.7237      46.7237      46.7237 
  217000    93.080392   -7370.1074   -6885.9485   -658.73599     102002.7      46.7237      46.7237      46.7237 
  218000    89.961359   -7371.4974   -6903.5622   -657.19773     102002.7      46.7237      46.7237      46.7237 
  219000    89.394046   -7364.7116   -6899.7273   -688.15602     102002.7      46.7237      46.7237      46.7237 
  220000    91.349476    -7384.788   -6909.6324   -579.37101     102002.7      46.7237      46.7237      46.7237 
  221000    90.712101   -7359.0756   -6887.2354   -762.80113     102002.7      46.7237      46.7237      46.7237 
  222000    91.318359    -7371.326   -6896.3323   -642.41373     102002.7      46.7237      46.7237      46.7237 
  223000     89.78244   -7370.2388   -6903.2342   -669.52516     102002.7      46.7237      46.7237      46.7237 
  224000    92.405881   -7366.5279   -6885.8775   -624.85064     102002.7      46.7237      46.7237      46.7237 
  225000    91.436596   -7381.6534   -6906.0447   -640.19579     102002.7      46.7237      46.7237      46.7237 
  226000    88.736793   -7360.5438   -6898.9781   -791.48029     102002.7      46.7237      46.7237      46.7237 
  227000    89.595155   -7393.6646   -6927.6342    -903.4894     102002.7      46.7237      46.7237      46.7237 
  228000    91.896129   -7374.1611   -6896.1621   -648.29117     102002.7      46.7237      46.7237      46.7237 
  229000    92.154367   -7363.5064   -6884.1642   -709.77657     102002.7      46.7237      46.7237      46.7237 
  230000     92.93747   -7375.7761   -6892.3606   -581.13641     102002.7      46.7237      46.7237      46.7237 
  231000    91.117429    -7362.141   -6888.1925   -881.52843     102002.7      46.7237      46.7237      46.7237 
  232000    90.557928   -7387.9973    -6916.959   -715.81278     102002.7      46.7237      46.7237      46.7237 
  233000    89.449428   -7364.6881   -6899.4157   -568.04111     102002.7      46.7237      46.7237      46.7237 
  234000    93.318558   -7371.4688   -6886.0711   -540.60202     102002.7      46.7237      46.7237      46.7237 
  235000    90.219949   -7375.8969   -6906.6167   -592.88121     102002.7      46.7237      46.7237      46.7237 
  236000    89.654015    -7378.106   -6911.7694   -703.65171     102002.7      46.7237      46.7237      46.7237 
  237000    91.255799   -7363.5815   -6888.9132   -620.55955     102002.7      46.7237      46.7237      46.7237 
  238000     88.70786   -7377.2838   -6915.8686   -996.74608     102002.7      46.7237      46.7237      46.7237 
  239000    92.101483   -7368.8194   -6889.7523   -711.03917     102002.7      46.7237      46.7237      46.7237 
  240000    89.548449   -7371.5462   -6905.7587   -837.11644     102002.7      46.7237      46.7237      46.7237 
  241000    89.867718   -7387.4845   -6920.0364   -831.08946     102002.7      46.7237      46.7237      46.7237 
  242000    92.134637   -7372.2874   -6893.0478   -607.50359     102002.7      46.7237      46.7237      46.7237 
  243000    88.172085   -7366.2354   -6907.6071   -792.18431     102002.7      46.7237      46.7237      46.7237 
  244000    96.068049   -7368.3698   -6868.6705   -513.36626     102002.7      46.7237      46.7237      46.7237 
  245000    88.802082    -7367.248   -6905.3428   -793.79861     102002.7      46.7237      46.7237      46.7237 
  246000    90.476562   -7385.0348   -6914.4197   -517.44324     102002.7      46.7237      46.7237      46.7237 
  247000     95.16466   -7369.7687   -6874.7685   -793.90133     102002.7      46.7237      46.7237      46.7237 
  248000    90.500138   -7368.2682   -6897.5305   -644.89095     102002.7      46.7237      46.7237      46.7237 
  249000    88.656937   -7378.8679   -6917.7176   -617.00175     102002.7      46.7237      46.7237      46.7237 
  250000    93.421156   -7374.5854    -6888.654   -640.10614     102002.7      46.7237      46.7237      46.7237 
  251000    88.980988   -7383.0683   -6920.2325   -560.95135     102002.7      46.7237      46.7237      46.7237 
  252000     93.17937   -7367.5063   -6882.8325   -855.35168     102002.7      46.7237      46.7237      46.7237 
  253000    89.959223   -7382.2611    -6914.337   -827.66628     102002.7      46.7237      46.7237      46.7237 
  254000    92.979288   -7354.3596   -6870.7265   -673.42064     102002.7      46.7237      46.7237      46.7237 
  255000    92.531404   -7373.8468   -6892.5435   -674.78144     102002.7      46.7237      46.7237      46.7237 
  256000    90.096029   -7368.7817    -6900.146   -599.75988     102002.7      46.7237      46.7237      46.7237 
  257000    92.985061   -7379.0045   -6895.3414   -560.78928     102002.7      46.7237      46.7237      46.7237 
  258000    87.594196   -7361.3495   -6905.7271   -554.87168     102002.7      46.7237      46.7237      46.7237 
  259000    92.419467    -7381.511   -6900.7899   -633.47528     102002.7      46.7237      46.7237      46.7237 
  260000    91.321217   -7368.9377   -6893.9291   -538.13381     102002.7      46.7237      46.7237      46.7237 
  261000    90.835213    -7378.818   -6906.3374    -746.9626     102002.7      46.7237      46.7237      46.7237 
  262000    91.821938   -7367.6425   -6890.0295   -629.30006     102002.7      46.7237      46.7237      46.7237 
  263000    89.175967   -7361.7526   -6897.9026   -635.10291     102002.7      46.7237      46.7237      46.7237 
  264000    92.315684   -7374.8256   -6894.6443   -749.08007     102002.7      46.7237      46.7237      46.7237 
  265000     92.45231   -7359.5959   -6878.7039   -557.15062     102002.7      46.7237      46.7237      46.7237 
  266000    90.005273   -7373.2848   -6905.1211   -663.49847     102002.7      46.7237      46.7237      46.7237 
  267000    92.002469   -7367.6953   -6889.1433   -404.96944     102002.7      46.7237      46.7237      46.7237 
  268000    91.336855   -7369.5324   -6894.4425   -552.92166     102002.7      46.7237      46.7237      46.7237 
  269000    90.220155   -7378.3163    -6909.035   -418.69091     102002.7      46.7237      46.7237      46.7237 
  270000    89.864213   -7353.9414   -6886.5115   -896.53759     102002.7      46.7237      46.7237      46.7237 
  271000    90.582637   -7373.4559   -6902.2891   -696.91926     102002.7      46.7237      46.7237      46.7237 
  272000    92.424968   -7377.8043   -6897.0546    -667.9693     102002.7      46.7237      46.7237      46.7237 
  273000    91.442423   -7388.2938   -6912.6548   -898.70808     102002.7      46.7237      46.7237      46.7237 
  274000    91.424312   -7364.7383   -6889.1935   -521.17648     102002.7      46.7237      46.7237      46.7237 
  275000    87.463361   -7370.8438   -6915.9019   -755.38073     102002.7      46.7237      46.7237      46.7237 
  276000    90.810533   -7367.5934   -6895.2412    -572.7524     102002.7      46.7237      46.7237      46.7237 
  277000    86.047457   -7378.7374   -6931.1604    -633.9251     102002.7      46.7237      46.7237      46.7237 
  278000    95.092274   -7381.6818    -6887.058   -499.54301     102002.7      46.7237      46.7237      46.7237 
  279000    91.671442   -7383.0476   -6906.2173   -501.92201     102002.7      46.7237      46.7237      46.7237 
  280000    94.458568   -7384.2293   -6892.9018   -851.69697     102002.7      46.7237      46.7237      46.7237 
  281000    90.709362   -7369.3052   -6897.4792   -555.47367     102002.7      46.7237      46.7237      46.7237 
  282000    89.023922   -7369.3913   -6906.3322   -816.87843     102002.7      46.7237      46.7237      46.7237 
  283000      92.7329   -7372.5428   -6890.1914   -687.26773     102002.7      46.7237      46.7237      46.7237 
  284000    90.547442   -7387.0721   -6916.0884   -686.79848     102002.7      46.7237      46.7237      46.7237 
  285000    89.982585   -7360.8103   -6892.7647   -1017.6481     102002.7      46.7237      46.7237      46.7237 
  286000    87.741945   -7380.3848   -6923.9938   -626.37577     102002.7      46.7237      46.7237      46.7237 
  287000    92.660392   -7368.6413    -6886.667   -878.41265     102002.7      46.7237      46.7237      46.7237 
  288000    90.126128   -7385.6172   -6916.8249   -470.52141     102002.7      46.7237      46.7237      46.7237 
  289000    90.982479   -7371.4926    -6898.246   -848.06851     102002.7      46.7237      46.7237      46.7237 
  290000    90.366174     -7370.68   -6900.6391   -831.65306     102002.7      46.7237      46.7237      46.7237 
  291000    93.090262   -7388.9808   -6904.7706    -809.4473     102002.7      46.7237      46.7237      46.7237 
  292000    90.493177   -7360.2618   -6889.5603   -1049.1521     102002.7      46.7237      46.7237      46.7237 
  293000     92.51665   -7388.0444   -6906.8178   -240.24005     102002.7      46.7237      46.7237      46.7237 
  294000    93.799521   -7365.2124   -6877.3129   -854.09481     102002.7      46.7237      46.7237      46.7237 
  295000    90.721162   -7368.1779   -6896.2906   -709.82576     102002.7      46.7237      46.7237      46.7237 
  296000    92.676295   -7389.2336   -6907.1766   -825.91846     102002.7      46.7237      46.7237      46.7237 
  297000    89.451031   -7366.9966   -6901.7158   -593.91018     102002.7      46.7237      46.7237      46.7237 
  298000    94.741545   -7384.0147   -6891.2153   -616.62637     102002.7      46.7237      46.7237      46.7237 
  299000    91.383607   -7372.3607   -6897.0276   -873.67112     102002.7      46.7237      46.7237      46.7237 
  300000    90.311211   -7386.9726   -6917.2177   -623.37173     102002.7      46.7237      46.7237      46.7237 
  301000    88.878576   -7353.4044   -6891.1013   -631.85759     102002.7      46.7237      46.7237      46.7237 
  302000    89.242513   -7373.2412    -6909.045   -823.63836     102002.7      46.7237      46.7237      46.7237 
  303000    91.965815   -7381.4569   -6903.0955   -616.97858     102002.7      46.7237      46.7237      46.7237 
  304000     88.66667   -7371.9208     -6910.72   -517.22542     102002.7      46.7237      46.7237      46.7237 
  305000    95.400846   -7381.1557   -6884.9269   -447.46616     102002.7      46.7237      46.7237      46.7237 
  306000    91.912475   -7386.7298   -6908.6458   -635.01566     102002.7      46.7237      46.7237      46.7237 
  307000    91.751619   -7367.8699   -6890.6226   -577.91385     102002.7      46.7237      46.7237      46.7237 
  308000    90.934832   -7375.6758   -6902.6771   -657.01267     102002.7      46.7237      46.7237      46.7237 
  309000    90.190942    -7364.913   -6895.7836   -829.47068     102002.7      46.7237      46.7237      46.7237 
  310000    91.281436   -7359.3894   -6884.5878   -631.48242     102002.7      46.7237      46.7237      46.7237 
  311000    90.737033   -7372.5767   -6900.6068   -930.04493     102002.7      46.7237      46.7237      46.7237 
  312000    90.136172   -7382.6211   -6913.7766   -452.30109     102002.7      46.7237      46.7237      46.7237 
  313000    89.668484   -7374.8789    -6908.467   -678.24562     102002.7      46.7237      46.7237      46.7237 
  314000    91.905571   -7360.3671    -6882.319     -676.356     102002.7      46.7237      46.7237      46.7237 
  315000    86.177582   -7380.4232   -6932.1693   -696.77052     102002.7      46.7237      46.7237      46.7237 
  316000    91.131967   -7356.9122    -6882.888   -756.52901     102002.7      46.7237      46.7237      46.7237 
  317000    89.997303   -7374.6284   -6906.5062   -623.70934     102002.7      46.7237      46.7237      46.7237 
  318000    91.706714   -7368.1032   -6891.0894   -500.79554     102002.7      46.7237      46.7237      46.7237 
  319000    87.549055   -7366.8325   -6911.4449   -555.64532     102002.7      46.7237      46.7237      46.7237 
  320000    92.201367   -7384.9999   -6905.4132   -366.28589     102002.7      46.7237      46.7237      46.7237 
  321000    92.140292   -7382.3331   -6903.0641   -463.35866     102002.7      46.7237      46.7237      46.7237 
  322000    88.487873   -7368.7546   -6908.4837   -702.73045     102002.7      46.7237      46.7237      46.7237 
  323000    90.653134   -7355.3239   -6883.7904   -694.33824     102002.7      46.7237      46.7237      46.7237 
  324000    90.220854   -7380.8842   -6911.5992   -746.24706     102002.7      46.7237      46.7237      46.7237 
  325000    93.172713   -7373.4072   -6888.7681   -720.27985     102002.7      46.7237      46.7237      46.7237 
  326000    90.176859   -7383.6762   -6914.6201   -429.46108     102002.7      46.7237      46.7237      46.7237 
  327000    89.179653     -7369.93   -6906.0608   -599.30901     102002.7      46.7237      46.7237      46.7237 
  328000     90.85585    -7361.898     -6889.31   -501.27932     102002.7      46.7237      46.7237      46.7237 
  329000    88.550446   -7378.0705   -6917.4742   -464.90477     102002.7      46.7237      46.7237      46.7237 
  330000    91.999166   -7374.4591   -6895.9242   -624.40611     102002.7      46.7237      46.7237      46.7237 
  331000    91.505334   -7359.5599   -6883.5936   -432.93765     102002.7      46.7237      46.7237      46.7237 
  332000    91.855902   -7372.5138    -6894.724   -879.00872     102002.7      46.7237      46.7237      46.7237 
  333000    92.215715   -7381.9801   -6902.3188   -515.97894     102002.7      46.7237      46.7237      46.7237 
  334000    89.368208   -7378.2813   -6913.4313   -1050.2113     102002.7      46.7237      46.7237      46.7237 
  335000    92.021743   -7362.2873   -6883.6349   -481.70375     102002.7      46.7237      46.7237      46.7237 
  336000    88.008315    -7365.731   -6907.9545   -299.26985     102002.7      46.7237      46.7237      46.7237 
  337000    89.152451   -7386.7632   -6923.0355   -653.25612     102002.7      46.7237      46.7237      46.7237 
  338000    90.509872   -7374.4265   -6903.6382   -550.86857     102002.7      46.7237      46.7237      46.7237 
  339000    89.854315   -7354.6701   -6887.2916   -463.81689     102002.7      46.7237      46.7237      46.7237 
  340000    93.561881   -7378.5451   -6891.8817    -731.2592     102002.7      46.7237      46.7237      46.7237 
  341000    91.140107   -7374.2347   -6900.1682   -581.70908     102002.7      46.7237      46.7237      46.7237 
  342000    89.015295   -7375.4906   -6912.4763   -696.38737     102002.7      46.7237      46.7237      46.7237 
  343000    91.597406   -7367.6496   -6891.2044   -621.92227     102002.7      46.7237      46.7237      46.7237 
  344000     91.26564   -7385.7302   -6911.0107   -849.14952     102002.7      46.7237      46.7237      46.7237 
  345000      89.5194   -7376.9109   -6911.2746   -701.17792     102002.7      46.7237      46.7237      46.7237 
  346000    93.404266   -7372.7926    -6886.949   -732.28599     102002.7      46.7237      46.7237      46.7237 
  347000    93.226297   -7379.3519    -6894.434   -588.74931     102002.7      46.7237      46.7237      46.7237 
  348000    91.632883   -7375.0056   -6898.3759   -421.67861     102002.7      46.7237      46.7237      46.7237 
  349000    92.575693   -7382.4263   -6900.8925   -877.49175     102002.7      46.7237      46.7237      46.7237 
  350000    91.065668   -7370.1979   -6896.5186   -402.29804     102002.7      46.7237      46.7237      46.7237 
  351000    90.047366   -7358.6072   -6890.2246   -678.32239     102002.7      46.7237      46.7237      46.7237 
  352000    89.894195   -7377.4372   -6909.8513   -482.36401     102002.7      46.7237      46.7237      46.7237 
  353000    91.917624   -7376.8384   -6898.7276   -610.95377     102002.7      46.7237      46.7237      46.7237 
  354000    90.122536   -7389.3908   -6920.6172   -575.94096     102002.7      46.7237      46.7237      46.7237 
  355000    91.068934   -7374.7459   -6901.0496   -451.75914     102002.7      46.7237      46.7237      46.7237 
  356000    91.551842   -7374.2193   -6898.0111   -679.57496     102002.7      46.7237      46.7237      46.7237 
  357000    91.821589    -7387.795   -6910.1837   -564.98668     102002.7      46.7237      46.7237      46.7237 
  358000     89.94658   -7384.4713   -6916.6129   -597.20252     102002.7      46.7237      46.7237      46.7237 
  359000    90.324886   -7364.3735   -6894.5474   -750.39558     102002.7      46.7237      46.7237      46.7237 
  360000    93.185411   -7364.7213   -6880.0161   -657.67132     102002.7      46.7237      46.7237      46.7237 
  361000    89.722304   -7372.0184   -6905.3266   -737.86967     102002.7      46.7237      46.7237      46.7237 
  362000    89.930854   -7356.9075   -6889.1309   -971.55906     102002.7      46.7237      46.7237      46.7237 
  363000    93.673825   -7365.4542   -6878.2085    -892.2024     102002.7      46.7237      46.7237      46.7237 
  364000    90.349353   -7359.2191   -6889.2657   -647.67397     102002.7      46.7237      46.7237      46.7237 
  365000    92.134866   -7372.5889   -6893.3482   -677.50273     102002.7      46.7237      46.7237      46.7237 
  366000    89.944364   -7374.7698    -6906.923   -550.11632     102002.7      46.7237      46.7237      46.7237 
  367000     90.07756   -7378.5386   -6909.9989   -555.64545     102002.7      46.7237      46.7237      46.7237 
  368000     91.10799   -7370.9568   -6897.0573   -669.90943     102002.7      46.7237      46.7237      46.7237 
  369000    93.554253   -7397.2939   -6910.6702   -570.85607     102002.7      46.7237      46.7237      46.7237 
  370000    91.516597    -7368.811   -6892.7862   -725.52203     102002.7      46.7237      46.7237      46.7237 
  371000    87.282282   -7369.5613   -6915.5613   -532.41669     102002.7      46.7237      46.7237      46.7237 
  372000    91.749048   -7386.9081   -6909.6742   -571.32949     102002.7      46.7237      46.7237      46.7237 
  373000    90.894333   -7356.4061    -6883.618   -349.44145     102002.7      46.7237      46.7237      46.7237 
  374000    91.497977   -7380.7649    -6904.837   -684.33575     102002.7      46.7237      46.7237      46.7237 
  375000    89.699958   -7363.7609   -6897.1854   -782.80999     102002.7      46.7237      46.7237      46.7237 
  376000    90.551342   -7375.9919   -6904.9879   -744.49934     102002.7      46.7237      46.7237      46.7237 
  377000    92.855952   -7370.4589   -6887.4674   -579.24155     102002.7      46.7237      46.7237      46.7237 
  378000    90.756231   -7372.7489   -6900.6792   -662.19064     102002.7      46.7237      46.7237      46.7237 
  379000    90.784363     -7369.55   -6897.3339   -704.56104     102002.7      46.7237      46.7237      46.7237 
  380000    88.206423   -7380.9155   -6922.1086   -566.24047     102002.7      46.7237      46.7237      46.7237 
  381000    93.650855   -7375.6923   -6888.5661   -785.49967     102002.7      46.7237      46.7237      46.7237 
  382000    89.692375   -7392.1958   -6925.6597   -655.52108     102002.7      46.7237      46.7237      46.7237 
  383000    92.699761   -7372.0724   -6889.8933    -747.3914     102002.7      46.7237      46.7237      46.7237 
  384000    89.800917   -7378.0358   -6910.9351   -854.18879     102002.7      46.7237      46.7237      46.7237 
  385000    90.513867   -7365.5887   -6894.7796   -497.03856     102002.7      46.7237      46.7237      46.7237 
  386000    90.630189    -7396.774   -6925.3599   -761.66936     102002.7      46.7237      46.7237      46.7237 
  387000    89.805613   -7377.8553   -6910.7302   -647.01577     102002.7      46.7237      46.7237      46.7237 
  388000    89.435808    -7354.135   -6888.9335   -690.03095     102002.7      46.7237      46.7237      46.7237 
  389000    89.615322    -7381.137   -6915.0017   -818.69201     102002.7      46.7237      46.7237      46.7237 
  390000    92.349288   -7369.3339   -6888.9778   -790.42955     102002.7      46.7237      46.7237      46.7237 
  391000    92.512566   -7370.2326   -6889.0272   -886.21771     102002.7      46.7237      46.7237      46.7237 
  392000    91.509919   -7373.9156   -6897.9255   -770.32984     102002.7      46.7237      46.7237      46.7237 
  393000    93.130774   -7358.6637   -6874.2427   -591.06245     102002.7      46.7237      46.7237      46.7237 
  394000    91.668924   -7367.1401    -6890.323   -743.76016     102002.7      46.7237      46.7237      46.7237 
  395000    91.385354    -7381.723   -6906.3808    -617.1135     102002.7      46.7237      46.7237      46.7237 
  396000     90.61558   -7363.7321   -6892.3939   -940.72217     102002.7      46.7237      46.7237      46.7237 
  397000    90.308104   -7375.5241   -6905.7853   -826.96353     102002.7      46.7237      46.7237      46.7237 
  398000    89.297338   -7364.4234   -6899.9421   -762.71056     102002.7      46.7237      46.7237      46.7237 
  399000    91.811601   -7353.9755   -6876.4162   -872.14431     102002.7      46.7237      46.7237      46.7237 
  400000    91.237366   -7377.1209   -6902.5485   -639.15361     102002.7      46.7237      46.7237      46.7237 
  401000    91.445132   -7368.6462   -6892.9931   -691.01896     102002.7      46.7237      46.7237      46.7237 
  402000    91.645716   -7359.1475    -6882.451   -584.66188     102002.7      46.7237      46.7237      46.7237 
  403000    92.146657   -7380.1941    -6900.892   -616.78865     102002.7      46.7237      46.7237      46.7237 
  404000      90.7744   -7381.8392    -6909.675   -473.47524     102002.7      46.7237      46.7237      46.7237 
  405000    92.624402   -7378.8616   -6897.0745    -707.8627     102002.7      46.7237      46.7237      46.7237 
  406000    94.382846   -7365.0615   -6874.1279   -744.58149     102002.7      46.7237      46.7237      46.7237 
  407000     91.82553   -7390.1761   -6912.5444   -513.50274     102002.7      46.7237      46.7237      46.7237 
  408000    91.289897   -7371.5789   -6896.7333   -669.43302     102002.7      46.7237      46.7237      46.7237 
  409000    88.165257   -7366.0866   -6907.4938   -428.49051     102002.7      46.7237      46.7237      46.7237 
  410000    93.781111   -7365.4114   -6877.6076   -799.15847     102002.7      46.7237      46.7237      46.7237 
  411000    91.243809   -7388.8819    -6914.276    -697.5762     102002.7      46.7237      46.7237      46.7237 
  412000    91.899546    -7375.288   -6897.2713   -851.95094     102002.7      46.7237      46.7237      46.7237 
  413000    89.133331   -7354.9345   -6891.3063   -742.24499     102002.7      46.7237      46.7237      46.7237 
  414000    90.587151   -7378.7239   -6907.5336   -1029.7431     102002.7      46.7237      46.7237      46.7237 
  415000    93.573361   -7364.1908   -6877.4677   -907.83368     102002.7      46.7237      46.7237      46.7237 
  416000    92.702904   -7378.3684    -6896.173   -871.49271     102002.7      46.7237      46.7237      46.7237 
  417000    87.554505   -7369.4726   -6914.0567    -597.3741     102002.7      46.7237      46.7237      46.7237 
  418000    91.583536   -7362.4305   -6886.0574   -763.86945     102002.7      46.7237      46.7237      46.7237 
  419000    91.263144   -7380.6754   -6905.9689   -682.72179     102002.7      46.7237      46.7237      46.7237 
  420000      93.2148   -7354.4386   -6869.5806   -943.80177     102002.7      46.7237      46.7237      46.7237 
  421000    93.268845   -7381.7672    -6896.628   -687.91573     102002.7      46.7237      46.7237      46.7237 
  422000    90.327378   -7364.7644   -6894.9253   -595.12454     102002.7      46.7237      46.7237      46.7237 
  423000    91.536036   -7372.8451   -6896.7192   -590.79469     102002.7      46.7237      46.7237      46.7237 
  424000    90.057743   -7383.7842   -6915.3476   -465.89067     102002.7      46.7237      46.7237      46.7237 
  425000    90.234372   -7359.6308   -6890.2755   -932.78842     102002.7      46.7237      46.7237      46.7237 
  426000    88.710019   -7379.0378   -6917.6114   -742.58075     102002.7      46.7237      46.7237      46.7237 
  427000    89.781255   -7377.8699   -6910.8715   -712.75769     102002.7      46.7237      46.7237      46.7237 
  428000    92.584324   -7376.7219   -6895.1433   -936.74649     102002.7      46.7237      46.7237      46.7237 
  429000    90.427002   -7359.2432   -6888.8859     -523.183     102002.7      46.7237      46.7237      46.7237 
  430000    91.400702   -7363.2334   -6887.8114   -745.42382     102002.7      46.7237      46.7237      46.7237 
  431000    92.138607   -7364.7211   -6885.4609   -678.17354     102002.7      46.7237      46.7237      46.7237 
  432000    87.374602   -7357.4142    -6902.934   -773.57788     102002.7      46.7237      46.7237      46.7237 
  433000    90.862992   -7380.3079   -6907.6829    -717.5171     102002.7      46.7237      46.7237      46.7237 
  434000    92.358225   -7369.0773   -6888.6748   -940.62679     102002.7      46.7237      46.7237      46.7237 
  435000    89.515956   -7376.7163   -6911.0979   -997.38944     102002.7      46.7237      46.7237      46.7237 
  436000    93.045848   -7381.1254   -6897.1461    -849.7266     102002.7      46.7237      46.7237      46.7237 
  437000    90.487728   -7380.6701   -6909.9969   -952.52129     102002.7      46.7237      46.7237      46.7237 
  438000    92.317143   -7378.0889   -6897.9001   -891.89833     102002.7      46.7237      46.7237      46.7237 
  439000     92.82293   -7374.5912   -6891.7714   -789.89888     102002.7      46.7237      46.7237      46.7237 
  440000    92.573324   -7379.3761   -6897.8547   -765.89354     102002.7      46.7237      46.7237      46.7237 
  441000    92.314124   -7376.0066   -6895.8335   -538.94065     102002.7      46.7237      46.7237      46.7237 
  442000    91.355044   -7366.5179   -6891.3334   -749.43435     102002.7      46.7237      46.7237      46.7237 
  443000    90.591134   -7375.0712   -6903.8602   -607.89389     102002.7      46.7237      46.7237      46.7237 
  444000    90.963716   -7375.7071   -6902.5581   -665.90227     102002.7      46.7237      46.7237      46.7237 
  445000    89.560108   -7367.3284   -6901.4802   -478.15637     102002.7      46.7237      46.7237      46.7237 
  446000    86.380285   -7376.9639   -6927.6557   -474.06243     102002.7      46.7237      46.7237      46.7237 
  447000    93.063277   -7381.0215   -6896.9516   -804.12496     102002.7      46.7237      46.7237      46.7237 
  448000    89.892725   -7384.5496   -6916.9714   -377.71165     102002.7      46.7237      46.7237      46.7237 
  449000    91.568627   -7375.2712   -6898.9758   -738.38199     102002.7      46.7237      46.7237      46.7237 
  450000    92.102699   -7377.6802   -6898.6067   -533.57007     102002.7      46.7237      46.7237      46.7237 
  451000    90.703183    -7372.189   -6900.3952    -523.3515     102002.7      46.7237      46.7237      46.7237 
  452000    92.004635   -7361.4716   -6882.9083   -688.47595     102002.7      46.7237      46.7237      46.7237 
  453000    89.902896   -7368.4053   -6900.7742   -709.11504     102002.7      46.7237      46.7237      46.7237 
  454000    93.756453   -7384.7856   -6897.1102   -561.55428     102002.7      46.7237      46.7237      46.7237 
  455000    91.926888   -7370.2865   -6892.1276   -624.28583     102002.7      46.7237      46.7237      46.7237 
  456000    87.889749   -7383.0921   -6925.9324   -535.44627     102002.7      46.7237      46.7237      46.7237 
  457000    90.111071   -7377.0375   -6908.3235   -823.38659     102002.7      46.7237      46.7237      46.7237 
  458000    89.738959   -7364.7306   -6897.9522    -668.6152     102002.7      46.7237      46.7237      46.7237 
  459000    88.026396   -7385.7545    -6927.884   -574.47524     102002.7      46.7237      46.7237      46.7237 
  460000      90.7285   -7361.8596    -6889.934    -697.8306     102002.7      46.7237      46.7237      46.7237 
  461000    89.880378   -7390.3265   -6922.8125   -583.53414     102002.7      46.7237      46.7237      46.7237 
  462000    90.961422   -7371.3831    -6898.246   -573.02753     102002.7      46.7237      46.7237      46.7237 
  463000    88.722978   -7374.9345   -6913.4408   -572.80768     102002.7      46.7237      46.7237      46.7237 
  464000    92.204386   -7369.8287   -6890.2264   -587.28314     102002.7      46.7237      46.7237      46.7237 
  465000    90.248419   -7368.2838   -6898.8554   -643.66028     102002.7      46.7237      46.7237      46.7237 
  466000    88.972628   -7385.4809   -6922.6886   -698.64026     102002.7      46.7237      46.7237      46.7237 
  467000    93.769605    -7371.647   -6883.9031   -504.86939     102002.7      46.7237      46.7237      46.7237 
  468000    90.259528   -7373.3649   -6903.8788   -813.60722     102002.7      46.7237      46.7237      46.7237 
  469000    91.326845   -7380.1298    -6905.092   -640.63682     102002.7      46.7237      46.7237      46.7237 
  470000    93.377826   -7369.2587   -6883.5527   -695.16424     102002.7      46.7237      46.7237      46.7237 
  471000    90.783045   -7397.4825   -6925.2732    -694.6455     102002.7      46.7237      46.7237      46.7237 
  472000    92.990014    -7382.365   -6898.6762   -270.08557     102002.7      46.7237      46.7237      46.7237 
  473000    92.263366   -7388.6271    -6908.718   -644.77446     102002.7      46.7237      46.7237      46.7237 
  474000    92.099888   -7360.5778    -6881.519   -458.71608     102002.7      46.7237      46.7237      46.7237 
  475000    92.892504   -7387.1803   -6903.9987   -658.59967     102002.7      46.7237      46.7237      46.7237 
  476000    91.714323   -7367.5654   -6890.5121   -701.39047     102002.7      46.7237      46.7237      46.7237 
  477000    90.751384   -7371.9588   -6899.9142    -650.7236     102002.7      46.7237      46.7237      46.7237 
  478000    92.396162   -7384.2378   -6903.6379   -640.46765     102002.7      46.7237      46.7237      46.7237 
  479000    94.833478   -7364.0982   -6870.8206   -830.31602     102002.7      46.7237      46.7237      46.7237 
  480000    93.738151   -7389.6033   -6902.0231   -518.03955     102002.7      46.7237      46.7237      46.7237 
  481000    91.785075   -7369.3131   -6891.8918   -588.83207     102002.7      46.7237      46.7237      46.7237 
  482000    94.859765   -7376.2396   -6882.8252   -758.86431     102002.7      46.7237      46.7237      46.7237 
  483000    90.616429    -7378.169   -6906.8265   -733.52422     102002.7      46.7237      46.7237      46.7237 
  484000    90.801006   -7383.0459   -6910.7432   -521.88936     102002.7      46.7237      46.7237      46.7237 
  485000    89.804479   -7373.3303   -6906.2111   -609.44946     102002.7      46.7237      46.7237      46.7237 
  486000    90.609385   -7360.3765   -6889.0705   -586.80748     102002.7      46.7237      46.7237      46.7237 
  487000    89.330436   -7384.9606   -6920.3072   -772.53231     102002.7      46.7237      46.7237      46.7237 
  488000    92.784722   -7370.0805   -6887.4596   -723.06027     102002.7      46.7237      46.7237      46.7237 
  489000    90.000351   -7366.1202   -6897.9822   -563.12379     102002.7      46.7237      46.7237      46.7237 
  490000     90.69707   -7362.8046   -6891.0426   -910.12051     102002.7      46.7237      46.7237      46.7237 
  491000    89.433914   -7370.2282   -6905.0365   -415.93153     102002.7      46.7237      46.7237      46.7237 
  492000    91.282808   -7374.0974   -6899.2887   -684.61958     102002.7      46.7237      46.7237      46.7237 
  493000    92.367446   -7357.8045    -6877.354   -414.27217     102002.7      46.7237      46.7237      46.7237 
  494000    90.991285   -7367.7948   -6894.5024   -486.87156     102002.7      46.7237      46.7237      46.7237 
  495000    88.522081   -7372.1258    -6911.677    -831.5678     102002.7      46.7237      46.7237      46.7237 
  496000    92.891608   -7368.5365   -6885.3596   -330.96651     102002.7      46.7237      46.7237      46.7237 
  497000    90.342933   -7361.6789   -6891.7589   -617.03859     102002.7      46.7237      46.7237      46.7237 
  498000    90.850996   -7374.8404   -6902.2777   -591.44133     102002.7      46.7237      46.7237      46.7237 
  499000    91.391638   -7385.2314   -6909.8566   -741.02362     102002.7      46.7237      46.7237      46.7237 
  500000    90.931133   -7370.7117   -6897.7322   -628.86787     102002.7      46.7237      46.7237      46.7237 
  500506    91.938739   -7371.5689   -6893.3483   -618.02927     102002.7      46.7237      46.7237      46.7237 
Loop time of 1270.93 on 16 procs for 500000 steps with 1746 atoms

Performance: 33.991 ns/day, 0.706 hours/ns, 393.412 timesteps/s
99.8% CPU use with 16 MPI tasks x no OpenMP threads

MPI task timing breakdown:
Section |  min time  |  avg time  |  max time  |%varavg| %total
---------------------------------------------------------------
Pair    | 480.86     | 686.73     | 847.38     | 473.3 | 54.03
Bond    | 163.82     | 174.31     | 185.16     |  49.9 | 13.72
Neigh   | 3.6675     | 3.6812     | 3.6958     |   0.5 |  0.29
Comm    | 225.36     | 392.89     | 608.28     | 642.4 | 30.91
Output  | 0.020161   | 0.020533   | 0.023141   |   0.5 |  0.00
Modify  | 6.8653     | 8.0133     | 8.5602     |  21.4 |  0.63
Other   |            | 5.283      |            |       |  0.42

Nlocal:    109.125 ave 149 max 85 min
Histogram: 3 3 1 1 2 3 1 1 0 1
Nghost:    2214.62 ave 2243 max 2169 min
Histogram: 1 0 2 0 2 1 2 4 2 2
Neighs:    11452.3 ave 19764 max 5781 min
Histogram: 3 1 1 2 4 2 1 1 0 1

Total # of neighbors = 183237
Ave neighs/atom = 104.947
Ave special neighs/atom = 6.59794
Neighbor list builds = 3123
Dangerous builds = 0
Neighbor list info ...
  update every 1 steps, delay 10 steps, check yes
  max neighbors/atom: 2000, page size: 100000
  master list distance cutoff = 16
  ghost atom cutoff = 16
  binsize = 8, bins = 6 6 6
  3 neighbor lists, perpetual/occasional/extra = 3 0 0
  (1) pair buck6d/coul/gauss/dsf, perpetual, skip from (3)
      attributes: half, newton on
      pair build: skip
      stencil: none
      bin: none
  (2) pair lj/cut, perpetual, skip from (3)
      attributes: half, newton on
      pair build: skip
      stencil: none
      bin: none
  (3) neighbor class addition, perpetual
      attributes: half, newton on
      pair build: half/bin/newton
      stencil: half/bin/3d/newton
      bin: standard
Setting up Verlet run ...
  Unit style    : real
  Current step  : 500506
  Time step     : 1
WARNING: Inconsistent image flags (../domain.cpp:786)
Per MPI rank memory allocation (min/avg/max) = 22.88 | 23.29 | 23.34 Mbytes
Step Time TotEng KinEng PotEng E_mol E_pair Temp Pxx Pyy Pzz Pxy Pxz Pyz Cella Cellb Cellc CellAlpha CellBeta CellGamma Volume Press 
  500506       500000   -6893.3483    478.22059   -7371.5689    4194.7438   -11566.313    91.938739   -882.28444   -332.13643   -639.66695    188.99603   -67.821652   -19.823715      46.7237      46.7237      46.7237           90           90           90     102002.7   -618.02927 
  501000       500494    -6902.991    472.70019   -7375.6912    4205.7168   -11581.408    90.877432   -563.50817   -404.03568   -636.77572    25.609487   -44.133181    161.61191      46.7237      46.7237      46.7237           90           90           90     102002.7   -534.77319 
  502000       501494   -6921.3674    472.25404   -7393.6214    4188.1085    -11581.73    90.791658   -1038.7429   -305.17821   -532.77277    99.813039    82.028035   -125.29737      46.7237      46.7237      46.7237           90           90           90     102002.7   -625.56464 
  503000       502494   -6894.2158    492.81062   -7387.0264    4194.3595   -11581.386    94.743696   -710.83642   -607.60826    -101.7329   -267.59823    71.918947   -104.13479      46.7237      46.7237      46.7237           90           90           90     102002.7   -473.39253 
  504000       503494   -6907.9125    458.20786   -7366.1204    4214.0264   -11580.147    88.091256   -111.50963   -435.18024   -573.03674    107.00014   -82.391905    -265.6661      46.7237      46.7237      46.7237           90           90           90     102002.7   -373.24221 
  505000       504494   -6876.2668    493.14616    -7369.413    4217.1481   -11586.561    94.808204   -884.39805   -705.64767    -411.5076    65.949648   -107.54314   -231.66973      46.7237      46.7237      46.7237           90           90           90     102002.7   -667.18444 
  506000       505494   -6911.0579    470.05818   -7381.1161    4217.1582   -11598.274    90.369501   -751.11346   -452.81074   -702.50811    84.143273   -37.899177   -43.354811      46.7237      46.7237      46.7237           90           90           90     102002.7   -635.47744 
  507000       506494   -6894.9949    474.70362   -7369.6985    4215.0392   -11584.738    91.262594   -151.91249   -476.27449   -739.42505   -48.570018    215.67554   -68.350855      46.7237      46.7237      46.7237           90           90           90     102002.7   -455.87068 
  508000       507494   -6909.3337    466.59942   -7375.9331    4207.0666       -11583    89.704548   -967.57004   -441.99473   -554.50973   -76.792346    109.11908     14.22122      46.7237      46.7237      46.7237           90           90           90     102002.7    -654.6915 
  509000       508494    -6892.198     468.7228   -7360.9208    4213.8156   -11574.736    90.112771    -204.6594   -768.87769   -254.96317    100.51347   -58.888039    231.44294      46.7237      46.7237      46.7237           90           90           90     102002.7   -409.50009 
  510000       509494    -6893.472     475.1901   -7368.6622    4217.0105   -11585.673    91.356122   -626.91099   -695.15416   -312.63454    169.73475     17.58251   -184.21834      46.7237      46.7237      46.7237           90           90           90     102002.7    -544.8999 
  511000       510494   -6908.7272    461.51719   -7370.2444    4190.1447   -11560.389     88.72748   -385.46471   -656.33314   -921.33916    39.590541   -93.204591    58.401196      46.7237      46.7237      46.7237           90           90           90     102002.7     -654.379 
  512000       511494   -6909.1268    466.57468   -7375.7015      4209.23   -11584.931    89.699792    -1142.049   -531.69942   -467.50219    118.47458    -11.16896    15.231905      46.7237      46.7237      46.7237           90           90           90     102002.7   -713.75019 
  513000       512494    -6889.012    485.18868   -7374.2007    4208.6535   -11582.854    93.278365   -281.04498   -979.73313   -838.71214    271.21338   -155.35331    1.7222483      46.7237      46.7237      46.7237           90           90           90     102002.7   -699.83008 
  514000       513494   -6903.8315    467.94361   -7371.7751    4204.5552    -11576.33     89.96297   -379.68264   -583.96853     -831.605   -1.3219636    82.894857    -63.37017      46.7237      46.7237      46.7237           90           90           90     102002.7   -598.41872 
  515000       514494   -6889.5145    481.42284   -7370.9374    4201.9231    -11572.86    92.554377   -589.10563   -366.82122   -839.43428   -51.783221    196.52277   -194.18324      46.7237      46.7237      46.7237           90           90           90     102002.7   -598.45371 
  516000       515494   -6894.4439    482.12185   -7376.5658    4198.9613   -11575.527    92.688763   -791.61593   -826.88405   -779.62913   -62.201102    95.686734   -271.34579      46.7237      46.7237      46.7237           90           90           90     102002.7   -799.37637 
  517000       516494   -6905.4452    469.51371   -7374.9589    4219.0723   -11594.031    90.264825   -665.00262   -789.08322    -850.5073   -207.58806    -79.79791    6.4912527      46.7237      46.7237      46.7237           90           90           90     102002.7   -768.19771 
  518000       517494   -6895.3776    470.58809   -7365.9657    4225.3359   -11591.302    90.471376   -304.33474   -590.00191   -334.26767    283.02743    9.1324649    203.03929      46.7237      46.7237      46.7237           90           90           90     102002.7   -409.53477 
  519000       518494    -6911.284    472.90499    -7384.189     4190.092   -11574.281    90.916805   -393.40424   -497.02914   -275.25146    39.500848   -217.56737     3.090931      46.7237      46.7237      46.7237           90           90           90     102002.7   -388.56161 
  520000       519494   -6888.2056    488.53963   -7376.7453    4204.0876   -11580.833    93.922592   -826.88063   -655.79437   -667.04877   -82.903958   -139.34688    -22.23836      46.7237      46.7237      46.7237           90           90           90     102002.7   -716.57459 
  521000       520494   -6876.0344    481.41702   -7357.4514    4230.4857   -11587.937    92.553256   -455.77257   -431.00608   -514.32588    185.92502    -66.01962    53.426353      46.7237      46.7237      46.7237           90           90           90     102002.7   -467.03484 
  522000       521494   -6895.4887    482.31291   -7377.8016    4201.3909   -11579.192    92.725493   -772.93903   -816.52728   -983.16746    59.411212   -140.70744      18.4211      46.7237      46.7237      46.7237           90           90           90     102002.7   -857.54459 
  523000       522494   -6906.5065    463.75836   -7370.2649     4208.193   -11578.458    89.158349   -743.24456   -709.44167   -530.95516   -199.03963    121.89264    3.0489577      46.7237      46.7237      46.7237           90           90           90     102002.7    -661.2138 
  524000       523494   -6916.1354    471.99462     -7388.13     4190.802   -11578.932    90.741784   -956.56772   -231.97499   -442.37425    40.624483    21.991262   -84.018983      46.7237      46.7237      46.7237           90           90           90     102002.7   -543.63899 
  525000       524494   -6903.7933    470.79226   -7374.5856      4210.64   -11585.226    90.510629   -755.58359   -674.86724   -362.64686   -88.608781    122.76426    79.281254      46.7237      46.7237      46.7237           90           90           90     102002.7   -597.69923 
  526000       525494   -6877.8632    484.17265   -7362.0359    4232.5818   -11594.618    93.083032   -941.60583   0.95708597   -509.29497    119.98342   -61.976353    54.781057      46.7237      46.7237      46.7237           90           90           90     102002.7   -483.31457 
  527000       526494   -6906.4217     464.3564   -7370.7781    4201.8612   -11572.639    89.273322   -766.78102   -1108.2709   -318.68321    168.83553    50.926563    121.47718      46.7237      46.7237      46.7237           90           90           90     102002.7   -731.24505 
  528000       527494   -6917.8259    470.64203    -7388.468    4198.0274   -11586.495    90.481746   -202.51233   -562.91267    -542.2368    -4.883653    143.81169   -18.470125      46.7237      46.7237      46.7237           90           90           90     102002.7   -435.88727 
  529000       528494    -6886.058    474.80028   -7360.8583    4216.1427   -11577.001    91.281178   -609.87503     -807.015   -734.24809     130.5762   -142.37514     141.0377      46.7237      46.7237      46.7237           90           90           90     102002.7   -717.04604 
  530000       529494   -6878.2239    484.91736   -7363.1412    4213.6128   -11576.754    93.226204   -646.34694   -253.95767   -491.96567    34.576173   -3.5900499   -170.62798      46.7237      46.7237      46.7237           90           90           90     102002.7   -464.09009 
  531000       530494   -6901.5952    460.04772   -7361.6429    4227.7382   -11589.381    88.444972   -801.81299   -703.20222   -372.88682    134.27612    134.87226   0.83900353      46.7237      46.7237      46.7237           90           90           90     102002.7   -625.96734 
  532000       531494   -6912.7781    459.00979   -7371.7879    4199.7228   -11571.511    88.245428   -593.29017   -680.11932   -583.58099     50.88073   -166.23869    52.019618      46.7237      46.7237      46.7237           90           90           90     102002.7   -618.99682 
  533000       532494   -6877.0287     481.3996   -7358.4283    4222.9864   -11581.415    92.549909   -810.67166   -602.74305   -560.67552    128.26314   -144.14529   -50.473229      46.7237      46.7237      46.7237           90           90           90     102002.7   -658.03007 
  534000       533494    -6891.499    479.53609   -7371.0351    4218.5271   -11589.562    92.191645   -623.14443   -966.44552   -376.41778    56.646663    94.943572    146.18521      46.7237      46.7237      46.7237           90           90           90     102002.7   -655.33591 
  535000       534494   -6923.7808    463.73158   -7387.5124    4179.6854   -11567.198    89.153201   -770.93852   -531.15619   -720.86318    20.444431    242.53024   0.08887657      46.7237      46.7237      46.7237           90           90           90     102002.7    -674.3193 
  536000       535494   -6897.8347    484.74532     -7382.58    4203.5755   -11586.156    93.193128   -689.45371   -938.51171   -534.75627   -102.18594     85.05784   -102.34825      46.7237      46.7237      46.7237           90           90           90     102002.7   -720.90723 
  537000       536494   -6908.8194    468.27454   -7377.0939     4197.114   -11574.208    90.026593   -538.67241   -869.27561   -1030.1392   -154.30774   -160.46083    129.40557      46.7237      46.7237      46.7237           90           90           90     102002.7   -812.69575 
  538000       537494   -6903.7733    481.90968   -7385.6829     4202.335   -11588.018    92.647971     -637.633    -363.5713   -598.71813     106.1949   -35.242633    254.84984      46.7237      46.7237      46.7237           90           90           90     102002.7   -533.30747 
  539000       538494   -6892.2144    472.08682   -7364.3012    4216.8881   -11581.189     90.75951   -557.61965    -580.8904   -588.84036   -1.0000216   -148.56067   -126.54489      46.7237      46.7237      46.7237           90           90           90     102002.7   -575.78347 
  540000       539494   -6931.0503    452.15687   -7383.2072     4195.098   -11578.305    86.927943   -597.83375   -1010.4175   -564.92632   -132.96351    44.267962   -112.49323      46.7237      46.7237      46.7237           90           90           90     102002.7   -724.39251 
  541000       540494   -6889.1524    473.72414   -7362.8765    4216.3154   -11579.192    91.074287   -842.15847   -743.46584   -421.87128   -8.8391498    70.055458   -120.44667      46.7237      46.7237      46.7237           90           90           90     102002.7   -669.16519 
  542000       541494   -6915.4473    468.57287   -7384.0201     4206.388   -11590.408    90.083946   -1192.0991   -329.05054   -918.01276    -51.70136    42.169881   -3.1731159      46.7237      46.7237      46.7237           90           90           90     102002.7   -813.05414 
  543000       542494   -6911.5865    469.85087   -7381.4374    4207.8115   -11589.249    90.329645   -1015.3525   -1102.2903    -666.9957    176.41224   -139.13072   -5.4755936      46.7237      46.7237      46.7237           90           90           90     102002.7   -928.21283 
  544000       543494    -6883.146    470.32278   -7353.4688    4230.3327   -11583.801    90.420371   -933.33088   -708.87888   -602.26653   -183.51424   -36.627827    39.776434      46.7237      46.7237      46.7237           90           90           90     102002.7   -748.15876 
  545000       544494   -6905.3436    468.16635   -7373.5099    4225.2777   -11598.788    90.005793   -862.29732   -618.36364   -758.46138    44.087161    148.84271    134.96116      46.7237      46.7237      46.7237           90           90           90     102002.7   -746.37411 
  546000       545494    -6902.923    461.23697   -7364.1599    4219.0306   -11583.191    88.673608   -855.50481   -1007.8871    -541.1769      53.0213    -31.14313   -185.45696      46.7237      46.7237      46.7237           90           90           90     102002.7   -801.52295 
  547000       546494   -6907.0485    473.72242   -7380.7709    4203.3911   -11584.162    91.073957   -669.23916   -938.47131   -640.77539   -100.44458    143.95051   -25.266986      46.7237      46.7237      46.7237           90           90           90     102002.7   -749.49529 
  548000       547494   -6919.4446    462.27804   -7381.7226    4212.8247   -11594.547    88.873754   -904.34649   -785.67287    -655.9415    189.14445     59.40676    21.341778      46.7237      46.7237      46.7237           90           90           90     102002.7   -781.98695 
  549000       548494   -6900.6927    466.45874   -7367.1514    4214.3749   -11581.526    89.677503   -388.42305   -951.50051   -654.37739   -99.778276    126.13559   -24.685271      46.7237      46.7237      46.7237           90           90           90     102002.7   -664.76698 
  550000       549494   -6896.8417    468.01974   -7364.8615    4225.7053   -11590.567    89.977606   -934.04374   -979.17173    -494.7763   -33.509334    142.07211    179.90341      46.7237      46.7237      46.7237           90           90           90     102002.7   -802.66392 
  551000       550494   -6919.0222    463.81186   -7382.8341    4191.4184   -11574.252    89.168634   -764.01956   -1151.1808   -801.24454    113.20442   -84.813917    61.273428      46.7237      46.7237      46.7237           90           90           90     102002.7   -905.48162 
  552000       551494   -6915.1118    477.51019    -7392.622     4196.385   -11589.007    91.802162   -500.40042   -897.49631    -410.8371    54.051705    41.880737   -33.729629      46.7237      46.7237      46.7237           90           90           90     102002.7   -602.91128 
  553000       552494   -6894.3063    472.79467    -7367.101    4201.9039   -11569.005    90.895595   -765.97196   -940.84322   -453.71463   -138.71861   -58.131506   -110.73582      46.7237      46.7237      46.7237           90           90           90     102002.7    -720.1766 
  554000       553494   -6903.2535    486.88725   -7390.1407    4202.3926   -11592.533    93.604918   -427.08523   -828.87466   -445.35195   -57.173556     -120.131    29.485856      46.7237      46.7237      46.7237           90           90           90     102002.7   -567.10394 
  555000       554494   -6896.3272    469.65256   -7365.9797    4215.4356   -11581.415     90.29152   -68.526867   -621.97053   -846.04207   -86.919693   -103.77123    51.981987      46.7237      46.7237      46.7237           90           90           90     102002.7   -512.17982 
[...]
  936000       935494   -6881.3216    483.62777   -7364.9494    4206.9603    -11571.91    92.978277   -1175.2831   -733.42511   -437.30487    43.827994    25.075009   -84.489087      46.7237      46.7237      46.7237           90           90           90     102002.7   -782.00437 
  937000       936494   -6886.0725    480.65688   -7366.7294    4217.3411   -11584.071    92.407119   -521.93432   -753.47232   -636.62169   -54.959533   -54.369769   -33.470752      46.7237      46.7237      46.7237           90           90           90     102002.7   -637.34278 
  938000       937494    -6901.839    481.36041   -7383.1994    4213.6095   -11596.809    92.542375    -502.6159   -513.90151   -441.78111    44.267542    128.94978    91.191948      46.7237      46.7237      46.7237           90           90           90     102002.7   -486.09951 
  939000       938494   -6896.0167     478.9171   -7374.9338    4196.9761    -11571.91    92.072643   -251.40354   -484.46858   -756.59489    92.655447   -184.51672   -240.73448      46.7237      46.7237      46.7237           90           90           90     102002.7     -497.489 
  940000       939494   -6899.0679    467.78353   -7366.8514    4214.8428   -11581.694    89.932195   -609.57684   -306.27203   -789.03361   -130.76092    -229.8277    66.583754      46.7237      46.7237      46.7237           90           90           90     102002.7   -568.29416 
  941000       940494    -6879.949    477.36019   -7357.3092    4217.5707    -11574.88    91.773324   -1296.8175   -331.94002   -556.09907   -84.303208    51.198475    73.749188      46.7237      46.7237      46.7237           90           90           90     102002.7   -728.28553 
  942000       941494   -6907.9608     476.8926   -7384.8534    4192.8232   -11577.677    91.683431   -545.33242   -546.71668   -319.03506     102.7471   -65.316835   -147.71638      46.7237      46.7237      46.7237           90           90           90     102002.7   -470.36139 
  943000       942494     -6896.66    474.06115   -7370.7212    4210.7108   -11581.432    91.139079   -993.58915   -1060.9428   -590.85729    150.04733    25.959095   -239.42318      46.7237      46.7237      46.7237           90           90           90     102002.7   -881.79641 
  944000       943494   -6938.1678    464.63171   -7402.7995    4184.1995   -11586.999    89.326253    -768.9619   -645.97561   -551.23799   -93.395189    -167.2814   -112.28118      46.7237      46.7237      46.7237           90           90           90     102002.7   -655.39183 
  945000       944494   -6890.9519      478.688   -7369.6399    4237.3176   -11606.958    92.028599   -1244.9742   -863.79726   -902.54374   -158.96281   -105.21934   -135.38923      46.7237      46.7237      46.7237           90           90           90     102002.7   -1003.7717 
  946000       945494   -6920.7271    456.68889   -7377.4159    4198.9881   -11576.404    87.799231   -870.91416   -512.93205   -997.23066   -48.216669   -65.973624    173.31647      46.7237      46.7237      46.7237           90           90           90     102002.7   -793.69229 
  947000       946494   -6910.8752    459.17559   -7370.0508    4217.8179   -11587.869    88.277303   -975.30647   -711.84953   -658.42698    166.04808    135.79719   -247.82247      46.7237      46.7237      46.7237           90           90           90     102002.7   -781.86099 
  948000       947494   -6903.2728    471.01442   -7374.2872    4214.3226    -11588.61     90.55334   -440.91468   -489.18685   -653.87893    70.468003     70.06446    28.298353      46.7237      46.7237      46.7237           90           90           90     102002.7   -527.99349 
  949000       948494   -6900.3379    476.31549   -7376.6534    4209.6677   -11586.321    91.572479   -755.97852   -875.39948   -713.90741   -202.76114    207.23272   -34.918227      46.7237      46.7237      46.7237           90           90           90     102002.7    -781.7618 
  950000       949494   -6897.5648    483.65523     -7381.22     4215.415   -11596.635    92.983556   -765.39315     -1021.75   -811.38906   -45.833486    142.89166    44.975647      46.7237      46.7237      46.7237           90           90           90     102002.7   -866.17739 
  951000       950494   -6895.0207    473.69247   -7368.7132     4207.018   -11575.731    91.068199   -1133.3094   -689.30374   -360.76462    82.006154    78.527374    167.00683      46.7237      46.7237      46.7237           90           90           90     102002.7   -727.79258 
  952000       951494   -6892.6348    472.83239   -7365.4672    4215.4791   -11580.946    90.902846   -705.90895    -887.3941    -854.2084   -39.498964   -267.59919    127.79331      46.7237      46.7237      46.7237           90           90           90     102002.7   -815.83715 
  953000       952494   -6919.6301    471.78368   -7391.4138    4204.5065    -11595.92    90.701231   -937.53694   -1160.5331   -407.61832    127.59872    29.042618     67.82166      46.7237      46.7237      46.7237           90           90           90     102002.7   -835.22945 
  954000       953494   -6884.4318    470.00433   -7354.4361    4221.4657   -11575.902    90.359148   -1253.6899   -499.80916   -790.20486    178.45273   -30.444522   -74.043698      46.7237      46.7237      46.7237           90           90           90     102002.7   -847.90131 
  955000       954494   -6913.0253    466.38613   -7379.4115     4216.309   -11595.721    89.663543   -982.85314   -1286.1337     -829.123   -131.13852   -131.08094    147.14257      46.7237      46.7237      46.7237           90           90           90     102002.7   -1032.7033 
  956000       955494   -6897.9132    467.84447   -7365.7577    4210.6481   -11576.406     89.94391   -394.22339   -952.09528   -542.14073   -219.87335   -145.68164   -89.188292      46.7237      46.7237      46.7237           90           90           90     102002.7   -629.48646 
  957000       956494   -6887.5613    476.53512   -7364.0964    4228.2389   -11592.335    91.614704   -1027.1667    -786.0866   -670.56683  0.047525413    57.873781    18.976119      46.7237      46.7237      46.7237           90           90           90     102002.7   -827.94003 
  958000       957494   -6900.1548    479.21604   -7379.3708     4196.566   -11575.937    92.130114   -852.55154   -860.14707   -764.71833   -89.459401    142.34453     6.997063      46.7237      46.7237      46.7237           90           90           90     102002.7   -825.80565 
  959000       958494    -6910.926    472.70582   -7383.6318    4193.9707   -11577.602    90.878513   -500.62311   -954.75478   -580.40661    3.6772755    41.985336    -8.308435      46.7237      46.7237      46.7237           90           90           90     102002.7   -678.59483 
  960000       959494   -6900.0952    465.97192   -7366.0672    4222.4112   -11588.478    89.583909   -801.80864   -944.68706   -508.22284   -316.48794   -211.52793   -227.88463      46.7237      46.7237      46.7237           90           90           90     102002.7   -751.57285 
  961000       960494   -6863.1551    499.96225   -7363.1173    4226.3306   -11589.448    96.118609   -927.60549   -671.50195   -840.31483   -14.583606   -45.965086     238.9672      46.7237      46.7237      46.7237           90           90           90     102002.7   -813.14076 
  962000       961494   -6903.4294    476.94708   -7380.3765    4190.3121   -11570.689    91.693903   -578.96008   -699.87228   -651.51429    3.6902181   -367.62115    57.239162      46.7237      46.7237      46.7237           90           90           90     102002.7   -643.44889 
  963000       962494   -6882.2842    470.74998   -7353.0342    4222.8363    -11575.87      90.5025   -830.81195   -610.16396   -712.82695    22.331467    120.59567    71.542841      46.7237      46.7237      46.7237           90           90           90     102002.7   -717.93428 
  964000       963494   -6902.4865    461.07314   -7363.5596    4229.1893   -11592.749    88.642112   -996.85815   -873.12889   -708.24814    64.952895   -125.56463    99.503846      46.7237      46.7237      46.7237           90           90           90     102002.7   -859.41173 
  965000       964494   -6902.2832     474.2897   -7376.5729    4202.1567    -11578.73    91.183017    59.823664   -862.22838    -866.7257   -141.56865   -69.519956   -26.409162      46.7237      46.7237      46.7237           90           90           90     102002.7   -556.37681 
  966000       965494   -6891.7057    479.96246   -7371.6682    4214.0459   -11585.714    92.273615   -665.70601   -924.88229   -657.97994   -76.420344   -5.2883668    112.90276      46.7237      46.7237      46.7237           90           90           90     102002.7   -749.52275 
  967000       966494   -6900.6367    464.15537    -7364.792    4211.4001   -11576.192    89.234674   -996.84563   -896.55251   -480.17413   -117.06253   -11.139853   -98.394358      46.7237      46.7237      46.7237           90           90           90     102002.7   -791.19075 
  968000       967494    -6894.588    467.73787   -7362.3258    4221.5606   -11583.886    89.923416   -530.86677   -405.05266   -523.81826     77.27798    176.34332     95.23775      46.7237      46.7237      46.7237           90           90           90     102002.7   -486.57923 
  969000       968494   -6906.7525     460.6395    -7367.392     4196.848    -11564.24    88.558744   -678.63399   -464.79886   -513.48849    212.23881    90.197697    126.34607      46.7237      46.7237      46.7237           90           90           90     102002.7   -552.30711 
  970000       969494   -6902.3922     468.2134   -7370.6056    4217.3962   -11588.002    90.014838   -442.72868   -374.20283   -497.75951   -84.294321   -62.572407    -126.5225      46.7237      46.7237      46.7237           90           90           90     102002.7   -438.23034 
  971000       970494   -6906.9054    462.74177   -7369.6471    4207.4559   -11577.103    88.962908   -527.15481   -510.57497   -674.57802     113.6591   -254.97389   -171.41954      46.7237      46.7237      46.7237           90           90           90     102002.7   -570.76927 
  972000       971494   -6910.6114    468.21093   -7378.8223    4200.9182   -11579.741    90.014363   -518.64308   -864.81639   -669.52835     10.78906     120.3945   -70.520387      46.7237      46.7237      46.7237           90           90           90     102002.7   -684.32927 
  973000       972494   -6892.8295    469.28608   -7362.1156    4220.1425   -11582.258    90.221063   -524.20859    -395.8967   -543.39191   -35.765296    56.431332    252.41819      46.7237      46.7237      46.7237           90           90           90     102002.7    -487.8324 
  974000       973494   -6897.8311    457.51835   -7355.3495    4216.9518   -11572.301    87.958696   -879.08959   -593.24322   -1067.3496    18.196516    79.882119   -72.175588      46.7237      46.7237      46.7237           90           90           90     102002.7   -846.56079 
  975000       974494   -6888.9734    483.43005   -7372.4035    4223.8488   -11596.252    92.940265     -375.023   -769.90039   -527.78666   -18.102642   -124.56721   -140.12403      46.7237      46.7237      46.7237           90           90           90     102002.7   -557.57002 
  976000       975494   -6895.7312    484.04291   -7379.7742    4185.5901   -11565.364     93.05809   -589.59504   -796.91311   -311.82317   -90.035316      17.1193    -35.53234      46.7237      46.7237      46.7237           90           90           90     102002.7   -566.11044 
  977000       976494   -6876.2426    491.54056   -7367.7831     4220.592   -11588.375    94.499526   -479.20597   -273.42052   -655.09877   -314.08051    75.513311   -114.76401      46.7237      46.7237      46.7237           90           90           90     102002.7   -469.24175 
  978000       977494   -6906.6842    467.28733   -7373.9715    4201.1916   -11575.163    89.836799   -700.34387   -379.30236   -157.66861   -110.79824    1.7596446    186.04773      46.7237      46.7237      46.7237           90           90           90     102002.7   -412.43828 
  979000       978494   -6888.0983    476.88888   -7364.9872     4221.721   -11586.708    91.682714   -719.03876   -820.85773   -661.43151    40.974736    33.524509   -23.493824      46.7237      46.7237      46.7237           90           90           90     102002.7     -733.776 
  980000       979494   -6904.9793     470.5341   -7375.5134    4204.2159   -11579.729    90.460997   -323.18652   -578.39624   -645.25873     121.4578   -138.34606    151.08947      46.7237      46.7237      46.7237           90           90           90     102002.7   -515.61383 
  981000       980494   -6892.4478    475.28863   -7367.7364    4211.8118   -11579.548    91.375064   -359.67449   -415.84603   -742.93233    169.36156    45.777488   -37.905085      46.7237      46.7237      46.7237           90           90           90     102002.7   -506.15095 
  982000       981494   -6912.6894    463.70839   -7376.3978    4205.0764   -11581.474    89.148742   -875.61767   -648.62802   -453.27331   -69.455892   -31.985543    59.191551      46.7237      46.7237      46.7237           90           90           90     102002.7     -659.173 
  983000       982494   -6883.0368    467.00532   -7350.0421     4217.515   -11567.557    89.782584     -337.171   -498.22853   -971.91739    10.310453   -93.227687    4.6243434      46.7237      46.7237      46.7237           90           90           90     102002.7   -602.43898 
  984000       983494   -6914.9189     459.0483   -7373.9672    4196.4622   -11570.429    88.252831   -475.12335   -655.13834   -868.76988    332.45996   -231.46145    91.255738      46.7237      46.7237      46.7237           90           90           90     102002.7   -666.34386 
  985000       984494   -6893.2652    480.44169   -7373.7069     4199.781   -11573.488    92.365748   -952.59009    -883.2704   -738.19511    132.16468    35.066475   -70.417282      46.7237      46.7237      46.7237           90           90           90     102002.7   -858.01854 
  986000       985494   -6902.7398    464.89498   -7367.6348    4209.7595   -11577.394    89.376866   -602.66708   -934.44713   -957.31171   -227.72218    66.757798   -46.578992      46.7237      46.7237      46.7237           90           90           90     102002.7    -831.4753 
  987000       986494   -6920.5853    455.01095   -7375.5963      4204.01   -11579.606    87.476645    -618.4987    -1202.431   -993.25666   -61.236975   -306.66431   -149.35941      46.7237      46.7237      46.7237           90           90           90     102002.7   -938.06212 
  988000       987494   -6895.6291    468.52533   -7364.1544    4213.4165   -11577.571    90.074807   -557.58442   -878.49281   -674.57154   -145.64457    13.006225    113.32364      46.7237      46.7237      46.7237           90           90           90     102002.7   -703.54959 
  989000       988494   -6900.1689    483.51045   -7383.6793    4198.2374   -11581.917    92.955723   -1037.8731    -710.8421   -531.44482    113.73281   -162.09452   -21.404262      46.7237      46.7237      46.7237           90           90           90     102002.7   -760.05334 
  990000       989494   -6896.6812    460.33861   -7357.0198    4227.5591   -11584.579    88.500896    -741.4095   -925.35476   -543.91645   -208.46795    2.2277699   -148.41178      46.7237      46.7237      46.7237           90           90           90     102002.7   -736.89357 
  991000       990494   -6922.4579    458.78966   -7381.2476    4202.9219   -11584.169    88.203108   -360.78791   -494.28605   -538.63565    318.65418    -47.28272    115.85562      46.7237      46.7237      46.7237           90           90           90     102002.7   -464.56987 
  992000       991494   -6899.3595    472.74969   -7372.1092    4210.4975   -11582.607    90.886948    -673.2293   -758.16504   -754.82696    110.80247    155.11361     57.04611      46.7237      46.7237      46.7237           90           90           90     102002.7   -728.74043 
  993000       992494   -6898.8046    471.95145   -7370.7561    4208.3972   -11579.153    90.733484   -361.46756    -611.7714   -749.99145    4.4840122   -47.627595    65.324633      46.7237      46.7237      46.7237           90           90           90     102002.7   -574.41014 
  994000       993494   -6898.0058    461.46782   -7359.4737    4238.2872   -11597.761    88.717989   -563.18434   -254.33731   -748.89397    74.799741    148.54662   -227.80872      46.7237      46.7237      46.7237           90           90           90     102002.7   -522.13854 
  995000       994494   -6884.3826    477.63109   -7362.0137    4223.3507   -11585.364    91.825405   -141.78476   -930.91315   -1314.3298    118.77505    106.94284   -44.237897      46.7237      46.7237      46.7237           90           90           90     102002.7   -795.67589 
  996000       995494   -6883.4323    486.58515   -7370.0175    4221.8082   -11591.826    93.546839   -582.13909   -478.13491    -396.7613   -24.313522   -17.157425    211.67951      46.7237      46.7237      46.7237           90           90           90     102002.7   -485.67844 
  997000       996494    -6892.321    468.81752   -7361.1385    4240.8474   -11601.986    90.130982   -642.13093   -738.00497   -985.17138    96.273452   -42.500696    117.20586      46.7237      46.7237      46.7237           90           90           90     102002.7   -788.43576 
  998000       997494   -6926.5495    464.41596   -7390.9655    4189.7284   -11580.694    89.284774   -365.27244    -342.7359    -545.0201   -108.40132     149.7604   -56.914311      46.7237      46.7237      46.7237           90           90           90     102002.7   -417.67615 
  999000       998494   -6915.9704    462.43924   -7378.4096    4202.7274   -11581.137    88.904745   -654.65188   -745.27001   -482.20993    -38.87625   -334.78813    231.66134      46.7237      46.7237      46.7237           90           90           90     102002.7   -627.37727 
 1000000       999494   -6881.4431    482.32268   -7363.7657    4238.2095   -11601.975    92.727373   -646.55742   -975.97289    -1049.309    92.624252   -18.311275    157.32826      46.7237      46.7237      46.7237           90           90           90     102002.7   -890.61309 
 1000506      1000000   -6897.3042     476.4217   -7373.7258    4201.2533   -11574.979    91.592898   -473.50402   -805.77709   -354.48815    83.319867    96.429112   -62.515748      46.7237      46.7237      46.7237           90           90           90     102002.7   -544.58975 
Loop time of 1460.13 on 16 procs for 500000 steps with 1746 atoms

Performance: 29.586 ns/day, 0.811 hours/ns, 342.435 timesteps/s
99.8% CPU use with 16 MPI tasks x no OpenMP threads

MPI task timing breakdown:
Section |  min time  |  avg time  |  max time  |%varavg| %total
---------------------------------------------------------------
Pair    | 525.26     | 772.45     | 1002.9     | 610.2 | 52.90
Bond    | 162.57     | 183.44     | 202.56     |  99.7 | 12.56
Neigh   | 3.6234     | 3.6385     | 3.6526     |   0.5 |  0.25
Comm    | 227.54     | 473.14     | 740.29     | 834.8 | 32.40
Output  | 0.097575   | 0.10263    | 0.10305    |   0.4 |  0.01
Modify  | 21.365     | 22.19      | 22.979     |  10.6 |  1.52
Other   |            | 5.183      |            |       |  0.35

Nlocal:    109.125 ave 147 max 80 min
Histogram: 1 1 1 2 6 3 1 0 0 1
Nghost:    2213 ave 2239 max 2164 min
Histogram: 1 0 0 0 2 3 3 3 2 2
Neighs:    11458.2 ave 18204 max 5513 min
Histogram: 2 2 1 2 1 1 5 1 0 1

Total # of neighbors = 183332
Ave neighs/atom = 105.001
Ave special neighs/atom = 6.59794
Neighbor list builds = 3071
Dangerous builds = 0
Total wall time: 0:45:33
