LAMMPS (30 Mar 2018)
Reading data file ...
  orthogonal box = (0 0 0) to (46.7237 46.7237 46.7237)
  2 by 2 by 4 MPI processor grid
  reading atoms ...
  1745 atoms
  scanning bonds ...
  5 = max bonds/atom
  scanning angles ...
  10 = max angles/atom
  scanning dihedrals ...
  32 = max dihedrals/atom
  scanning impropers ...
  3 = max impropers/atom
  reading bonds ...
  2064 bonds
  reading angles ...
  3696 angles
  reading dihedrals ...
  6240 dihedrals
  reading impropers ...
  1008 impropers
Finding 1-2 1-3 1-4 neighbors ...
  special bond factors lj:   0          0          0         
  special bond factors coul: 0          0          0         
  5 = max # of 1-2 neighbors
  8 = max # of 1-3 neighbors
  20 = max # of 1-4 neighbors
  19 = max # of special neighbors
Finding 1-2 1-3 1-4 neighbors ...
  special bond factors lj:   0          0          1         
  special bond factors coul: 1          1          1         
  5 = max # of 1-2 neighbors
  8 = max # of 1-3 neighbors
  19 = max # of special neighbors
WARNING: Using 'neigh_modify every 1 delay 0 check yes' setting during minimization (../min.cpp:168)
Neighbor list info ...
  update every 1 steps, delay 0 steps, check yes
  max neighbors/atom: 2000, page size: 100000
  master list distance cutoff = 16
  ghost atom cutoff = 16
  binsize = 8, bins = 6 6 6
  3 neighbor lists, perpetual/occasional/extra = 3 0 0
  (1) pair buck6d/coul/gauss/dsf, perpetual, skip from (3)
      attributes: half, newton on
      pair build: skip
      stencil: none
      bin: none
  (2) pair lj/cut, perpetual, skip from (3)
      attributes: half, newton on
      pair build: skip
      stencil: none
      bin: none
  (3) neighbor class addition, perpetual
      attributes: half, newton on
      pair build: half/bin/newton
      stencil: half/bin/3d/newton
      bin: standard
Setting up cg style minimization ...
  Unit style    : real
  Current step  : 0
WARNING: Inconsistent image flags (../domain.cpp:786)
Per MPI rank memory allocation (min/avg/max) = 22.89 | 23.35 | 23.79 Mbytes
Step Temp E_pair E_mol TotEng Press 
       0            0   -11557.412    6482.8914   -5074.5206    6263.3566 
     504            0   -11590.522    3738.7121   -7851.8101   -513.25867 
Loop time of 2.71399 on 16 procs for 504 steps with 1745 atoms

99.9% CPU use with 16 MPI tasks x no OpenMP threads

Minimization stats:
  Stopping criterion = max force evaluations
  Energy initial, next-to-last, final = 
        -5074.52060736      -7851.8068876     -7851.81009925
  Force two-norm initial, final = 2576.93 2.6963
  Force max component initial, final = 152.013 0.326945
  Final line search alpha, max atom move = 0.037486 0.0122559
  Iterations, force evaluations = 504 1001

MPI task timing breakdown:
Section |  min time  |  avg time  |  max time  |%varavg| %total
---------------------------------------------------------------
Pair    | 1.2011     | 1.5746     | 1.9893     |  18.5 | 58.02
Bond    | 0.29945    | 0.36206    | 0.38882    |   4.5 | 13.34
Neigh   | 0.010669   | 0.01074    | 0.010782   |   0.0 |  0.40
Comm    | 0.29391    | 0.72726    | 1.0918     |  27.1 | 26.80
Output  | 0          | 0          | 0          |   0.0 |  0.00
Modify  | 0          | 0          | 0          |   0.0 |  0.00
Other   |            | 0.03931    |            |       |  1.45

Nlocal:    109.062 ave 115 max 97 min
Histogram: 1 0 1 1 1 2 2 1 2 5
Nghost:    2202.56 ave 2213 max 2195 min
Histogram: 4 1 1 3 0 2 1 3 0 1
Neighs:    11451.4 ave 15353 max 8007 min
Histogram: 4 1 2 1 0 1 1 3 2 1

Total # of neighbors = 183223
Ave neighs/atom = 104.999
Ave special neighs/atom = 6.60172
Neighbor list builds = 9
Dangerous builds = 0
Neighbor list info ...
  update every 1 steps, delay 10 steps, check yes
  max neighbors/atom: 2000, page size: 100000
  master list distance cutoff = 16
  ghost atom cutoff = 16
  binsize = 8, bins = 6 6 6
  3 neighbor lists, perpetual/occasional/extra = 3 0 0
  (1) pair buck6d/coul/gauss/dsf, perpetual, skip from (3)
      attributes: half, newton on
      pair build: skip
      stencil: none
      bin: none
  (2) pair lj/cut, perpetual, skip from (3)
      attributes: half, newton on
      pair build: skip
      stencil: none
      bin: none
  (3) neighbor class addition, perpetual
      attributes: half, newton on
      pair build: half/bin/newton
      stencil: half/bin/3d/newton
      bin: standard
Setting up Verlet run ...
  Unit style    : real
  Current step  : 504
  Time step     : 1
WARNING: Inconsistent image flags (../domain.cpp:786)
Per MPI rank memory allocation (min/avg/max) = 22.54 | 22.62 | 22.73 Mbytes
Step Temp PotEng TotEng Press Volume Lx Ly Lz 
     504          130   -7851.8101   -7176.0008   -210.39631     102002.7      46.7237      46.7237      46.7237 
    1000    115.87832   -7257.9677   -6655.5704   -819.09871     102002.7      46.7237      46.7237      46.7237 
    2000    127.41349   -7125.6494   -6463.2862   -737.33008     102002.7      46.7237      46.7237      46.7237 
    3000    123.92031   -7136.0143   -6491.8105    -1107.004     102002.7      46.7237      46.7237      46.7237 
    4000    127.92246   -7166.8774   -6501.8683   -444.30403     102002.7      46.7237      46.7237      46.7237 
    5000    134.43284   -7167.1189   -6468.2654   -868.88058     102002.7      46.7237      46.7237      46.7237 
    6000    131.39592    -7168.916   -6485.8501   -779.46183     102002.7      46.7237      46.7237      46.7237 
    7000    131.83571   -7167.1666   -6481.8143    -568.6001     102002.7      46.7237      46.7237      46.7237 
    8000     130.7142   -7136.9041   -6457.3821   -796.26011     102002.7      46.7237      46.7237      46.7237 
    9000    126.43779   -7154.5516   -6497.2607   -734.09575     102002.7      46.7237      46.7237      46.7237 
   10000    128.46695   -7165.6438   -6497.8041   -865.35355     102002.7      46.7237      46.7237      46.7237 
   11000    130.06575   -7152.6227   -6476.4716   -889.19625     102002.7      46.7237      46.7237      46.7237 
   12000    127.32975   -7135.3756   -6473.4477   -786.81128     102002.7      46.7237      46.7237      46.7237 
   13000    128.76663   -7171.5691   -6502.1715   -939.28397     102002.7      46.7237      46.7237      46.7237 
   14000    123.92433   -7140.9076   -6496.6829   -710.12461     102002.7      46.7237      46.7237      46.7237 
   15000    129.34384   -7156.4126   -6484.0144   -1002.4236     102002.7      46.7237      46.7237      46.7237 
   16000    126.13432   -7151.5403   -6495.8269   -998.40854     102002.7      46.7237      46.7237      46.7237 
   17000    125.67284   -7128.7541   -6475.4397   -903.68808     102002.7      46.7237      46.7237      46.7237 
   18000     130.9733   -7185.2787   -6504.4097   -811.31679     102002.7      46.7237      46.7237      46.7237 
   19000    128.60379   -7164.9483   -6496.3973   -928.19504     102002.7      46.7237      46.7237      46.7237 
   20000    132.23217   -7163.8563    -6476.443   -596.48461     102002.7      46.7237      46.7237      46.7237 
   21000    129.95968   -7156.9005   -6481.3008   -859.25183     102002.7      46.7237      46.7237      46.7237 
   22000    129.58693   -7178.7788   -6505.1169   -970.99132     102002.7      46.7237      46.7237      46.7237 
   23000    126.85859   -7155.7012   -6496.2227   -799.27148     102002.7      46.7237      46.7237      46.7237 
   24000    129.59808    -7170.424   -6496.7041    -608.6054     102002.7      46.7237      46.7237      46.7237 
   25000     128.5437   -7175.2481   -6507.0095   -796.92633     102002.7      46.7237      46.7237      46.7237 
   26000    131.21899   -7122.6117   -6440.4654    -685.7064     102002.7      46.7237      46.7237      46.7237 
   27000    132.13555   -7186.2917   -6499.3807   -790.58336     102002.7      46.7237      46.7237      46.7237 
   28000    130.67737   -7150.9817   -6471.6511   -859.83347     102002.7      46.7237      46.7237      46.7237 
   29000    130.30181   -7190.4828   -6513.1046   -863.49783     102002.7      46.7237      46.7237      46.7237 
   30000    132.04466   -7156.2148   -6469.7763   -731.29734     102002.7      46.7237      46.7237      46.7237 
   31000     132.1436   -7163.2385   -6476.2857   -705.04333     102002.7      46.7237      46.7237      46.7237 
   32000    129.17592   -7124.8935   -6453.3683   -791.57516     102002.7      46.7237      46.7237      46.7237 
   33000    129.42219   -7180.8715    -6508.066   -718.34686     102002.7      46.7237      46.7237      46.7237 
   34000    128.19206   -7157.8969   -6491.4863   -826.40237     102002.7      46.7237      46.7237      46.7237 
   35000    128.00748   -7170.5502   -6505.0991    -831.1255     102002.7      46.7237      46.7237      46.7237 
   36000    129.58117   -7155.4361   -6481.8042   -987.89155     102002.7      46.7237      46.7237      46.7237 
   37000    131.94653   -7196.1841   -6510.2558   -772.20244     102002.7      46.7237      46.7237      46.7237 
   38000    129.15661   -7164.5442   -6493.1193   -775.83308     102002.7      46.7237      46.7237      46.7237 
   39000    129.14593   -7147.6213   -6476.2519   -1022.4348     102002.7      46.7237      46.7237      46.7237 
   40000    128.59704   -7171.7532   -6503.2372   -594.14481     102002.7      46.7237      46.7237      46.7237 
   41000    127.07331   -7146.8903   -6486.2956   -632.36427     102002.7      46.7237      46.7237      46.7237 
   42000    125.72787   -7144.0223   -6490.4218   -1000.3475     102002.7      46.7237      46.7237      46.7237 
   43000    130.52284   -7159.1172   -6480.5899   -668.36704     102002.7      46.7237      46.7237      46.7237 
   44000    132.87757   -7161.5349   -6470.7665   -939.58332     102002.7      46.7237      46.7237      46.7237 
   45000    127.34509   -7173.0242   -6511.0165   -826.70548     102002.7      46.7237      46.7237      46.7237 
   46000    129.32361   -7157.2531     -6484.96   -926.11883     102002.7      46.7237      46.7237      46.7237 
   47000    131.15134   -7178.7156   -6496.9211   -489.22463     102002.7      46.7237      46.7237      46.7237 
   48000    129.08228   -7144.1801   -6473.1417   -718.09017     102002.7      46.7237      46.7237      46.7237 
   49000    130.51684   -7170.3179   -6491.8218    -624.4205     102002.7      46.7237      46.7237      46.7237 
   50000    129.94832   -7149.5968   -6474.0562   -546.13123     102002.7      46.7237      46.7237      46.7237 
   51000       128.26   -7169.6603   -6502.8965   -755.92006     102002.7      46.7237      46.7237      46.7237 
   52000    126.70425   -7165.8541   -6507.1779   -956.64981     102002.7      46.7237      46.7237      46.7237 
   53000    132.15164   -7161.0251   -6474.0305   -892.01804     102002.7      46.7237      46.7237      46.7237 
   54000    127.02232   -7172.5771   -6512.2474   -963.37585     102002.7      46.7237      46.7237      46.7237 
   55000    130.08701   -7163.5532   -6487.2916   -632.57584     102002.7      46.7237      46.7237      46.7237 
   56000    129.36141   -7159.2805    -6486.791   -727.41456     102002.7      46.7237      46.7237      46.7237 
   57000    131.58602   -7180.8177   -6496.7634   -532.41518     102002.7      46.7237      46.7237      46.7237 
   58000     138.5618   -7151.9491   -6431.6311   -595.09869     102002.7      46.7237      46.7237      46.7237 
   59000    130.54043   -7179.6713   -6501.0525   -476.19094     102002.7      46.7237      46.7237      46.7237 
   60000    131.63464    -7175.995    -6491.688   -898.35657     102002.7      46.7237      46.7237      46.7237 
   61000    130.49001   -7165.7627   -6487.4062   -386.31633     102002.7      46.7237      46.7237      46.7237 
   62000    123.67488   -7156.1955   -6513.2676   -680.35965     102002.7      46.7237      46.7237      46.7237 
   63000    129.79812   -7161.5107   -6486.7509   -591.64739     102002.7      46.7237      46.7237      46.7237 
   64000    127.81427   -7156.5245   -6492.0778   -422.16633     102002.7      46.7237      46.7237      46.7237 
   65000    130.64191   -7147.1008   -6467.9546   -895.66503     102002.7      46.7237      46.7237      46.7237 
   66000    128.79469   -7157.3523   -6487.8089   -581.77455     102002.7      46.7237      46.7237      46.7237 
   67000    128.63097   -7170.6118   -6501.9195   -814.14894     102002.7      46.7237      46.7237      46.7237 
   68000    132.19146   -7149.1781   -6461.9764   -723.83499     102002.7      46.7237      46.7237      46.7237 
   69000    128.59214   -7155.3256   -6486.8352   -894.75308     102002.7      46.7237      46.7237      46.7237 
   70000    126.58248   -7161.5774   -6503.5342   -977.85399     102002.7      46.7237      46.7237      46.7237 
   71000     128.9891   -7166.6771    -6496.123   -802.85809     102002.7      46.7237      46.7237      46.7237 
   72000    131.46201   -7156.1969   -6472.7873    -693.8695     102002.7      46.7237      46.7237      46.7237 
   73000    128.60459   -7181.6579   -6513.1027   -506.66927     102002.7      46.7237      46.7237      46.7237 
   74000    129.48647   -7155.2758   -6482.1362   -528.58347     102002.7      46.7237      46.7237      46.7237 
   75000    132.95917   -7159.2822   -6468.0897   -713.57913     102002.7      46.7237      46.7237      46.7237 
   76000     130.4696    -7170.802   -6492.5515   -506.34394     102002.7      46.7237      46.7237      46.7237 
   77000    124.36039    -7171.317   -6524.8254   -780.36503     102002.7      46.7237      46.7237      46.7237 
   78000    130.31543   -7152.4981   -6475.0491   -745.73213     102002.7      46.7237      46.7237      46.7237 
   79000    128.42316   -7186.4059   -6518.7939   -534.03533     102002.7      46.7237      46.7237      46.7237 
   80000    128.56724   -7175.8435   -6507.4825   -811.19468     102002.7      46.7237      46.7237      46.7237 
   81000    128.75575   -7143.4052   -6474.0642   -764.27609     102002.7      46.7237      46.7237      46.7237 
   82000    118.09119   -7170.9818   -6557.0809   -780.66817     102002.7      46.7237      46.7237      46.7237 
   83000    127.96703   -7140.1624   -6474.9217   -778.62201     102002.7      46.7237      46.7237      46.7237 
   84000    129.64927   -7164.7002   -6490.7142   -754.60791     102002.7      46.7237      46.7237      46.7237 
   85000    130.31914   -7163.0858   -6485.6175   -1021.2764     102002.7      46.7237      46.7237      46.7237 
   86000    133.91482   -7159.2861   -6463.1255   -717.26388     102002.7      46.7237      46.7237      46.7237 
   87000    126.79516   -7158.4927   -6499.3439   -759.18489     102002.7      46.7237      46.7237      46.7237 
   88000    129.31367    -7147.099   -6474.8577   -966.54395     102002.7      46.7237      46.7237      46.7237 
   89000    129.93797    -7162.836   -6487.3492     -669.377     102002.7      46.7237      46.7237      46.7237 
   90000    127.99095   -7167.0837   -6501.7185   -865.35275     102002.7      46.7237      46.7237      46.7237 
   91000    127.76398   -7169.9153     -6505.73   -732.78567     102002.7      46.7237      46.7237      46.7237 
   92000      131.398   -7163.4837    -6480.407   -469.26882     102002.7      46.7237      46.7237      46.7237 
   93000    125.42807   -7173.7255   -6521.6835   -714.52699     102002.7      46.7237      46.7237      46.7237 
   94000    131.41017   -7164.8624   -6481.7223    -633.8996     102002.7      46.7237      46.7237      46.7237 
   95000    131.44728   -7134.5133   -6451.1803   -506.24268     102002.7      46.7237      46.7237      46.7237 
   96000    127.92762   -7158.9796   -6493.9436   -905.78316     102002.7      46.7237      46.7237      46.7237 
   97000    128.01541   -7168.3828   -6502.8905   -532.40976     102002.7      46.7237      46.7237      46.7237 
   98000    131.31057   -7173.1358   -6490.5136   -602.20019     102002.7      46.7237      46.7237      46.7237 
   99000    128.18833    -7152.701   -6486.3098   -756.06978     102002.7      46.7237      46.7237      46.7237 
  100000    127.58364    -7152.422   -6489.1742   -801.91136     102002.7      46.7237      46.7237      46.7237 
  101000    128.80085   -7170.3684    -6500.793   -632.65981     102002.7      46.7237      46.7237      46.7237 
  102000    133.35154   -7163.6866   -6470.4543   -520.69097     102002.7      46.7237      46.7237      46.7237 
  103000    123.93143   -7162.7301   -6518.4685   -687.91526     102002.7      46.7237      46.7237      46.7237 
  104000    129.68292   -7157.4478   -6483.2869   -614.33621     102002.7      46.7237      46.7237      46.7237 
  105000    135.73005   -7156.9984   -6451.4013   -954.47981     102002.7      46.7237      46.7237      46.7237 
  106000    127.09768   -7160.0904    -6499.369   -603.47387     102002.7      46.7237      46.7237      46.7237 
  107000    135.07008   -7154.4596   -6452.2933   -671.50229     102002.7      46.7237      46.7237      46.7237 
  108000    134.08049   -7174.8646   -6477.8427   -1048.3174     102002.7      46.7237      46.7237      46.7237 
  109000    130.84482   -7166.2695   -6486.0684   -824.89948     102002.7      46.7237      46.7237      46.7237 
  110000    133.42654   -7183.6926   -6490.0703   -814.25099     102002.7      46.7237      46.7237      46.7237 
  111000    127.68487   -7166.9188   -6503.1448   -602.13427     102002.7      46.7237      46.7237      46.7237 
  112000    130.05791   -7168.8612   -6492.7509   -562.40952     102002.7      46.7237      46.7237      46.7237 
  113000    130.49202   -7130.4726   -6452.1056   -651.67272     102002.7      46.7237      46.7237      46.7237 
  114000    127.17504   -7157.3159   -6496.1923   -704.72677     102002.7      46.7237      46.7237      46.7237 
  115000    125.88893   -7166.1638   -6511.7261   -975.41372     102002.7      46.7237      46.7237      46.7237 
  116000    129.70204   -7152.9341   -6478.6738   -534.14055     102002.7      46.7237      46.7237      46.7237 
  117000    128.42058   -7161.1451   -6493.5465   -811.41039     102002.7      46.7237      46.7237      46.7237 
  118000    128.43466   -7177.8808    -6510.209   -598.25143     102002.7      46.7237      46.7237      46.7237 
  119000    126.35742   -7135.4216   -6478.5484   -758.32546     102002.7      46.7237      46.7237      46.7237 
  120000    128.11794    -7180.998   -6514.9727   -659.06233     102002.7      46.7237      46.7237      46.7237 
  121000    127.88168   -7167.1051    -6502.308   -924.39371     102002.7      46.7237      46.7237      46.7237 
  122000    130.96455   -7158.8956   -6478.0721   -815.30184     102002.7      46.7237      46.7237      46.7237 
  123000    128.06976   -7164.2916   -6498.5168   -834.44937     102002.7      46.7237      46.7237      46.7237 
  124000    131.78234   -7161.1018   -6476.0269    -1110.177     102002.7      46.7237      46.7237      46.7237 
  125000    126.28673   -7135.7057      -6479.2   -812.90902     102002.7      46.7237      46.7237      46.7237 
  126000    131.62642   -7167.4963   -6483.2321   -976.95258     102002.7      46.7237      46.7237      46.7237 
  127000    124.88062   -7184.3347   -6535.1387    -775.5998     102002.7      46.7237      46.7237      46.7237 
  128000    128.68957   -7153.1895   -6484.1925   -809.38574     102002.7      46.7237      46.7237      46.7237 
  129000    130.63986   -7163.5451   -6484.4095   -770.51885     102002.7      46.7237      46.7237      46.7237 
  130000    129.97626   -7167.0951   -6491.4093   -554.81916     102002.7      46.7237      46.7237      46.7237 
  131000    126.17465   -7164.1076   -6508.1846   -985.77789     102002.7      46.7237      46.7237      46.7237 
  132000     130.1009   -7166.9568    -6490.623   -683.24305     102002.7      46.7237      46.7237      46.7237 
  133000    128.96151   -7165.2953   -6494.8847   -983.65736     102002.7      46.7237      46.7237      46.7237 
  134000    130.62936   -7164.6683   -6485.5872   -793.08265     102002.7      46.7237      46.7237      46.7237 
  135000    131.20737    -7140.893   -6458.8072   -824.54333     102002.7      46.7237      46.7237      46.7237 
  136000     131.0564   -7142.3683   -6461.0673   -575.75476     102002.7      46.7237      46.7237      46.7237 
  137000    128.68601   -7167.8571   -6498.8787   -634.02797     102002.7      46.7237      46.7237      46.7237 
  138000    129.92105   -7132.4613   -6457.0625   -716.07054     102002.7      46.7237      46.7237      46.7237 
  139000    131.77684   -7166.4931   -6481.4468   -582.88498     102002.7      46.7237      46.7237      46.7237 
  140000    130.43235   -7182.0693   -6504.0125     -796.543     102002.7      46.7237      46.7237      46.7237 
  141000     131.1757   -7152.1925   -6470.2713   -606.49867     102002.7      46.7237      46.7237      46.7237 
  142000    129.17258   -7183.5814   -6512.0735   -703.69522     102002.7      46.7237      46.7237      46.7237 
  143000    128.20917   -7161.7812   -6495.2816   -631.36097     102002.7      46.7237      46.7237      46.7237 
  144000     129.4039   -7154.4103   -6481.6999   -798.42188     102002.7      46.7237      46.7237      46.7237 
  145000      135.377   -7152.6129   -6448.8512   -1154.8946     102002.7      46.7237      46.7237      46.7237 
  146000    127.50386   -7152.8692   -6490.0362   -719.79555     102002.7      46.7237      46.7237      46.7237 
  147000    131.80798   -7140.7031    -6455.495   -420.32465     102002.7      46.7237      46.7237      46.7237 
  148000    127.23317   -7161.4339   -6500.0081   -576.19419     102002.7      46.7237      46.7237      46.7237 
  149000     128.2205   -7137.6939   -6471.1354   -611.18973     102002.7      46.7237      46.7237      46.7237 
  150000    126.93256   -7160.6092   -6500.7461   -503.93298     102002.7      46.7237      46.7237      46.7237 
  151000    130.61354   -7138.7316   -6459.7329   -843.91495     102002.7      46.7237      46.7237      46.7237 
  152000    132.86205   -7163.4279   -6472.7402   -704.60098     102002.7      46.7237      46.7237      46.7237 
  153000    128.34062   -7172.6482   -6505.4653   -496.88571     102002.7      46.7237      46.7237      46.7237 
  154000    131.18481    -7154.619   -6472.6505   -515.38028     102002.7      46.7237      46.7237      46.7237 
  155000    129.93682   -7167.7105   -6492.2297   -656.07595     102002.7      46.7237      46.7237      46.7237 
  156000    134.89938    -7167.673   -6466.3942   -743.83351     102002.7      46.7237      46.7237      46.7237 
  157000    129.49117     -7152.74   -6479.5759   -451.65058     102002.7      46.7237      46.7237      46.7237 
  158000    129.60627   -7182.3472   -6508.5848   -687.75089     102002.7      46.7237      46.7237      46.7237 
  159000    132.25052   -7169.9332   -6482.4245   -521.72235     102002.7      46.7237      46.7237      46.7237 
  160000    131.46195   -7169.9651   -6486.5559    -752.7771     102002.7      46.7237      46.7237      46.7237 
  161000    130.80478   -7174.7961   -6494.8032   -650.62875     102002.7      46.7237      46.7237      46.7237 
  162000     131.2599   -7169.8873   -6487.5285   -926.47696     102002.7      46.7237      46.7237      46.7237 
  163000    129.73243   -7134.7554   -6460.3371   -1084.7385     102002.7      46.7237      46.7237      46.7237 
  164000    127.27028   -7162.0516   -6500.4329   -701.83031     102002.7      46.7237      46.7237      46.7237 
  165000    129.46962   -7148.1678   -6475.1158    -702.2774     102002.7      46.7237      46.7237      46.7237 
  166000    131.99468   -7175.3262   -6489.1476    -628.7288     102002.7      46.7237      46.7237      46.7237 
  167000      131.434   -7137.6256   -6454.3617   -392.71134     102002.7      46.7237      46.7237      46.7237 
  168000    129.03262   -7144.2768   -6473.4965   -400.96697     102002.7      46.7237      46.7237      46.7237 
  169000    129.06475   -7149.4768   -6478.5295   -632.91827     102002.7      46.7237      46.7237      46.7237 
  170000     131.4751   -7148.8976   -6465.4199   -684.42921     102002.7      46.7237      46.7237      46.7237 
  171000     130.1015   -7180.5997   -6504.2628   -673.81363     102002.7      46.7237      46.7237      46.7237 
  172000    128.32892   -7147.4882   -6480.3661   -943.88394     102002.7      46.7237      46.7237      46.7237 
  173000    130.33404   -7175.3235   -6497.7777   -760.04972     102002.7      46.7237      46.7237      46.7237 
  174000    128.11275     -7159.62   -6493.6217    -670.7366     102002.7      46.7237      46.7237      46.7237 
  175000    132.40239   -7166.8647   -6478.5665   -974.46165     102002.7      46.7237      46.7237      46.7237 
  176000    129.18733   -7166.3598   -6494.7752   -959.32274     102002.7      46.7237      46.7237      46.7237 
  177000    126.69565   -7168.9339   -6510.3024   -800.20981     102002.7      46.7237      46.7237      46.7237 
  178000    128.46638   -7132.6351   -6464.7984   -1029.5152     102002.7      46.7237      46.7237      46.7237 
  179000    128.27901   -7158.7801   -6491.9174   -938.63346     102002.7      46.7237      46.7237      46.7237 
  180000    133.01621   -7154.0876   -6462.5984   -889.04047     102002.7      46.7237      46.7237      46.7237 
  181000    127.09016   -7147.5155   -6486.8331   -892.43845     102002.7      46.7237      46.7237      46.7237 
  182000    130.91233   -7182.9484   -6502.3964     -886.129     102002.7      46.7237      46.7237      46.7237 
  183000    131.67623    -7142.029   -6457.5058   -945.70978     102002.7      46.7237      46.7237      46.7237 
  184000    132.55154   -7147.4826   -6458.4091   -767.56816     102002.7      46.7237      46.7237      46.7237 
  185000     132.6057   -7163.3454   -6473.9904   -889.44121     102002.7      46.7237      46.7237      46.7237 
  186000     128.7262   -7152.3379   -6483.1505   -619.72118     102002.7      46.7237      46.7237      46.7237 
  187000    129.89049   -7137.5355   -6462.2955   -773.13412     102002.7      46.7237      46.7237      46.7237 
  188000      127.785    -7162.335   -6498.0405    -689.8944     102002.7      46.7237      46.7237      46.7237 
  189000    139.03171   -7142.9748   -6420.2138   -693.03511     102002.7      46.7237      46.7237      46.7237 
  190000    131.79419   -7176.5426   -6491.4061   -387.06758     102002.7      46.7237      46.7237      46.7237 
  191000    134.31322    -7143.449   -6445.2173    -687.3492     102002.7      46.7237      46.7237      46.7237 
  192000    129.81729     -7166.48   -6491.6205    -865.2926     102002.7      46.7237      46.7237      46.7237 
  193000    131.10071    -7181.618   -6500.0866   -681.29358     102002.7      46.7237      46.7237      46.7237 
  194000    132.33164    -7169.184   -6481.2536   -698.31743     102002.7      46.7237      46.7237      46.7237 
  195000    126.55799   -7167.2627   -6509.3469   -740.16777     102002.7      46.7237      46.7237      46.7237 
  196000    128.53938   -7180.4788   -6512.2626   -597.06083     102002.7      46.7237      46.7237      46.7237 
  197000    132.48248   -7170.0335   -6481.3189   -653.54026     102002.7      46.7237      46.7237      46.7237 
  198000    124.81608   -7183.2682   -6534.4077   -585.31337     102002.7      46.7237      46.7237      46.7237 
  199000    129.36372   -7171.8054   -6499.3039   -980.79947     102002.7      46.7237      46.7237      46.7237 
  200000    134.28015    -7169.003   -6470.9433   -359.22042     102002.7      46.7237      46.7237      46.7237 
  201000    132.30413   -7153.2907   -6465.5034   -988.88455     102002.7      46.7237      46.7237      46.7237 
  202000    132.77986    -7134.043   -6443.7825   -751.30721     102002.7      46.7237      46.7237      46.7237 
  203000    130.69627   -7173.8502   -6494.4213   -991.70223     102002.7      46.7237      46.7237      46.7237 
  204000    132.73272   -7174.8313   -6484.8159   -688.24538     102002.7      46.7237      46.7237      46.7237 
  205000    130.63556   -7165.8338   -6486.7206   -651.70082     102002.7      46.7237      46.7237      46.7237 
  206000    132.10979   -7135.5089   -6448.7318   -811.66814     102002.7      46.7237      46.7237      46.7237 
  207000    129.27742   -7164.5847   -6492.5318   -454.30725     102002.7      46.7237      46.7237      46.7237 
  208000    129.88415    -7145.165    -6469.958   -672.42844     102002.7      46.7237      46.7237      46.7237 
  209000    127.19441   -7156.4042   -6495.1799   -467.27963     102002.7      46.7237      46.7237      46.7237 
  210000    126.41743   -7156.5153   -6499.3302    -669.3731     102002.7      46.7237      46.7237      46.7237 
  211000    126.82116   -7163.0742   -6503.7903   -792.01588     102002.7      46.7237      46.7237      46.7237 
  212000    130.63528   -7146.5917   -6467.4799   -776.83101     102002.7      46.7237      46.7237      46.7237 
  213000    123.93884   -7149.5462   -6505.2461   -675.07085     102002.7      46.7237      46.7237      46.7237 
  214000    129.52737   -7158.6672   -6485.3149   -865.66796     102002.7      46.7237      46.7237      46.7237 
  215000    126.44122   -7157.5765   -6500.2676   -840.61797     102002.7      46.7237      46.7237      46.7237 
  216000    134.74781   -7164.4424   -6463.9515   -972.34326     102002.7      46.7237      46.7237      46.7237 
  217000    131.22978   -7168.3219   -6486.1196   -692.69545     102002.7      46.7237      46.7237      46.7237 
  218000    130.99252   -7175.5828   -6494.6139   -821.81999     102002.7      46.7237      46.7237      46.7237 
  219000    131.95767   -7142.4714   -6456.4851   -832.36957     102002.7      46.7237      46.7237      46.7237 
  220000    130.10782   -7177.3794   -6501.0096   -714.92151     102002.7      46.7237      46.7237      46.7237 
  221000     130.3671   -7182.2511   -6504.5335   -610.14336     102002.7      46.7237      46.7237      46.7237 
  222000    130.39051   -7183.8876   -6506.0483   -813.84732     102002.7      46.7237      46.7237      46.7237 
  223000     129.9766   -7157.4717   -6481.7841    -483.7574     102002.7      46.7237      46.7237      46.7237 
  224000    132.32481   -7148.9226   -6461.0277   -569.58701     102002.7      46.7237      46.7237      46.7237 
  225000    128.68447   -7165.0721   -6496.1016   -817.52454     102002.7      46.7237      46.7237      46.7237 
  226000    127.98255   -7154.9244   -6489.6029   -619.45989     102002.7      46.7237      46.7237      46.7237 
  227000    130.01039   -7169.4952    -6493.632   -773.09716     102002.7      46.7237      46.7237      46.7237 
  228000    127.42351   -7176.0981   -6513.6829   -626.60927     102002.7      46.7237      46.7237      46.7237 
  229000    130.60039   -7178.8766   -6499.9462   -407.55746     102002.7      46.7237      46.7237      46.7237 
  230000    134.48516   -7143.0852   -6443.9597   -282.80145     102002.7      46.7237      46.7237      46.7237 
  231000    130.50877   -7167.0648   -6488.6106   -824.22149     102002.7      46.7237      46.7237      46.7237 
  232000    129.00716   -7168.6259    -6497.978   -670.95203     102002.7      46.7237      46.7237      46.7237 
  233000    134.12279   -7181.8854   -6484.6436   -879.38402     102002.7      46.7237      46.7237      46.7237 
  234000    129.59822   -7163.2408   -6489.5203   -943.83707     102002.7      46.7237      46.7237      46.7237 
  235000    132.84974    -7145.219   -6454.5952   -489.53558     102002.7      46.7237      46.7237      46.7237 
  236000    131.06117   -7192.3162   -6510.9904   -694.35788     102002.7      46.7237      46.7237      46.7237 
  237000    129.57819   -7163.4753   -6489.8588   -373.35453     102002.7      46.7237      46.7237      46.7237 
  238000    126.77376   -7137.5663   -6478.5287   -347.36014     102002.7      46.7237      46.7237      46.7237 
  239000    132.22382   -7196.1952   -6508.8254   -546.79303     102002.7      46.7237      46.7237      46.7237 
  240000    129.61827   -7156.2997   -6482.4749   -549.51658     102002.7      46.7237      46.7237      46.7237 
  241000    127.89936   -7175.5373   -6510.6483   -577.49077     102002.7      46.7237      46.7237      46.7237 
  242000    130.71272   -7157.3959   -6477.8816   -686.63177     102002.7      46.7237      46.7237      46.7237 
  243000    130.96016   -7167.7758   -6486.9751   -691.08097     102002.7      46.7237      46.7237      46.7237 
  244000     130.0375   -7160.8977   -6484.8935   -545.16568     102002.7      46.7237      46.7237      46.7237 
  245000    127.73209   -7173.7149   -6509.6954   -776.14025     102002.7      46.7237      46.7237      46.7237 
  246000    128.91968   -7150.9685   -6480.7753   -354.62461     102002.7      46.7237      46.7237      46.7237 
  247000    130.17334   -7119.3486   -6442.6382   -567.60921     102002.7      46.7237      46.7237      46.7237 
  248000     130.1003   -7181.0661   -6504.7354   -986.30876     102002.7      46.7237      46.7237      46.7237 
  249000    136.53264    -7174.467   -6464.6976   -861.33389     102002.7      46.7237      46.7237      46.7237 
  250000     131.2702   -7159.5409   -6477.1284   -913.05493     102002.7      46.7237      46.7237      46.7237 
  251000    126.45143   -7154.9348    -6497.573    -375.3938     102002.7      46.7237      46.7237      46.7237 
  252000    131.97909    -7166.356   -6480.2584   -906.26932     102002.7      46.7237      46.7237      46.7237 
  253000    126.24924   -7175.8325   -6519.5217    -514.0203     102002.7      46.7237      46.7237      46.7237 
  254000    130.29834   -7173.9852    -6496.625   -699.95253     102002.7      46.7237      46.7237      46.7237 
  255000    129.52252   -7167.9505   -6494.6234   -461.17099     102002.7      46.7237      46.7237      46.7237 
  256000    132.33857    -7150.358   -6462.3917   -733.60653     102002.7      46.7237      46.7237      46.7237 
  257000    126.45406   -7155.5614   -6498.1858   -785.86313     102002.7      46.7237      46.7237      46.7237 
  258000    136.20995   -7137.4673   -6429.3754   -834.95326     102002.7      46.7237      46.7237      46.7237 
  259000    131.03928   -7165.2762   -6484.0642   -587.63317     102002.7      46.7237      46.7237      46.7237 
  260000    127.84236   -7182.4309   -6517.8382   -502.51679     102002.7      46.7237      46.7237      46.7237 
  261000    128.52646   -7137.2018   -6469.0528   -643.62202     102002.7      46.7237      46.7237      46.7237 
  262000    130.13355    -7163.055   -6486.5515   -725.01672     102002.7      46.7237      46.7237      46.7237 
  263000     128.9538   -7168.5478   -6498.1773    -492.1121     102002.7      46.7237      46.7237      46.7237 
  264000    132.34732   -7168.9362   -6480.9243   -1337.7451     102002.7      46.7237      46.7237      46.7237 
  265000    134.16721   -7179.2496    -6481.777   -1160.3481     102002.7      46.7237      46.7237      46.7237 
  266000    130.33043   -7169.4991   -6491.9721   -894.48628     102002.7      46.7237      46.7237      46.7237 
  267000    132.45913   -7163.5978   -6475.0047   -898.48986     102002.7      46.7237      46.7237      46.7237 
  268000    126.44438   -7172.0007   -6514.6755   -701.65618     102002.7      46.7237      46.7237      46.7237 
  269000    130.87709   -7155.2223   -6474.8534   -453.79973     102002.7      46.7237      46.7237      46.7237 
  270000    126.93958   -7131.1996      -6471.3    -851.2361     102002.7      46.7237      46.7237      46.7237 
  271000    125.95629   -7180.1233   -6525.3354   -800.04245     102002.7      46.7237      46.7237      46.7237 
  272000    126.99506   -7167.3191   -6507.1311   -737.13433     102002.7      46.7237      46.7237      46.7237 
  273000    127.99026   -7145.1901   -6479.8286   -1269.6993     102002.7      46.7237      46.7237      46.7237 
  274000    124.78782   -7179.0959   -6530.3823   -1004.4616     102002.7      46.7237      46.7237      46.7237 
  275000    128.51044   -7170.8086   -6502.7429   -812.59193     102002.7      46.7237      46.7237      46.7237 
  276000    131.69599   -7158.6705   -6474.0446    -1030.122     102002.7      46.7237      46.7237      46.7237 
  277000    134.21605   -7192.2243   -6494.4978   -778.37722     102002.7      46.7237      46.7237      46.7237 
  278000    128.26435    -7153.574   -6486.7875   -783.17564     102002.7      46.7237      46.7237      46.7237 
  279000    130.03547   -7162.4031   -6486.4095   -963.14354     102002.7      46.7237      46.7237      46.7237 
  280000    132.08829   -7149.7277   -6463.0624    -752.6458     102002.7      46.7237      46.7237      46.7237 
  281000    129.44553   -7169.6429    -6496.716   -945.72426     102002.7      46.7237      46.7237      46.7237 
  282000    129.70499   -7151.8974   -6477.6218   -586.16064     102002.7      46.7237      46.7237      46.7237 
  283000    132.25387   -7197.3927   -6509.8667   -577.30336     102002.7      46.7237      46.7237      46.7237 
  284000    132.65178    -7133.908   -6444.3134   -647.77455     102002.7      46.7237      46.7237      46.7237 
  285000    130.89206   -7165.0902   -6484.6435   -1031.4803     102002.7      46.7237      46.7237      46.7237 
  286000    125.26298   -7183.1966    -6532.013    -746.4481     102002.7      46.7237      46.7237      46.7237 
  287000    131.88325   -7165.4412   -6479.8418   -782.53019     102002.7      46.7237      46.7237      46.7237 
  288000    124.46988   -7161.9848   -6514.9241   -1003.9327     102002.7      46.7237      46.7237      46.7237 
  289000    127.82203    -7152.595    -6488.108   -840.33663     102002.7      46.7237      46.7237      46.7237 
  290000    128.60273   -7165.5785    -6497.033     -813.122     102002.7      46.7237      46.7237      46.7237 
  291000    132.89581   -7161.9762    -6471.113   -819.93022     102002.7      46.7237      46.7237      46.7237 
  292000    128.45759   -7172.8227   -6505.0317   -741.58019     102002.7      46.7237      46.7237      46.7237 
  293000    130.10738   -7151.4557   -6475.0882   -869.46574     102002.7      46.7237      46.7237      46.7237 
  294000    130.25833   -7162.0791   -6484.9269   -644.55623     102002.7      46.7237      46.7237      46.7237 
  295000    125.26369   -7188.2447   -6537.0573    -370.5256     102002.7      46.7237      46.7237      46.7237 
  296000    131.40053   -7153.8354   -6470.7454   -929.43797     102002.7      46.7237      46.7237      46.7237 
  297000    130.74702   -7160.8255   -6481.1328   -594.85476     102002.7      46.7237      46.7237      46.7237 
  298000    133.07348   -7151.1431   -6459.3562   -569.89025     102002.7      46.7237      46.7237      46.7237 
  299000    130.43576    -7174.889   -6496.8144   -700.34046     102002.7      46.7237      46.7237      46.7237 
  300000    130.09608   -7155.0435   -6478.7347   -832.75917     102002.7      46.7237      46.7237      46.7237 
  301000    131.79124   -7146.7006   -6461.5796   -685.12525     102002.7      46.7237      46.7237      46.7237 
  302000    129.90353   -7167.5206   -6492.2128   -984.94063     102002.7      46.7237      46.7237      46.7237 
  303000     130.2894   -7154.1812   -6476.8675   -574.56383     102002.7      46.7237      46.7237      46.7237 
  304000    128.13552   -7164.4064   -6498.2897   -658.45364     102002.7      46.7237      46.7237      46.7237 
  305000    127.42584   -7158.8322   -6496.4048   -779.37161     102002.7      46.7237      46.7237      46.7237 
  306000    132.81899   -7154.0982   -6463.6343   -728.74235     102002.7      46.7237      46.7237      46.7237 
  307000    126.34091   -7156.1673   -6499.3799   -660.85879     102002.7      46.7237      46.7237      46.7237 
  308000    126.75884   -7161.8465   -6502.8865    -420.7369     102002.7      46.7237      46.7237      46.7237 
  309000    132.03165   -7150.2035   -6463.8326    -742.2608     102002.7      46.7237      46.7237      46.7237 
  310000    129.23711   -7156.9358   -6485.0924   -623.39902     102002.7      46.7237      46.7237      46.7237 
  311000    130.05945    -7178.095   -6501.9767   -554.26664     102002.7      46.7237      46.7237      46.7237 
  312000    129.86702   -7149.5591   -6474.4412    -669.6431     102002.7      46.7237      46.7237      46.7237 
  313000    131.82642   -7161.7167   -6476.4127   -1012.2822     102002.7      46.7237      46.7237      46.7237 
  314000    127.81394   -7152.2443   -6487.7993    -909.8879     102002.7      46.7237      46.7237      46.7237 
  315000    128.07227   -7194.8059    -6529.018   -768.76976     102002.7      46.7237      46.7237      46.7237 
  316000    126.55938   -7137.5991    -6479.676   -703.94774     102002.7      46.7237      46.7237      46.7237 
  317000    128.01839   -7177.5747   -6512.0669   -471.15433     102002.7      46.7237      46.7237      46.7237 
  318000    129.21059   -7153.9673   -6482.2619   -486.83187     102002.7      46.7237      46.7237      46.7237 
  319000    132.53034    -7178.103   -6489.1398   -620.88127     102002.7      46.7237      46.7237      46.7237 
  320000    130.22402   -7159.9908    -6483.017   -639.83482     102002.7      46.7237      46.7237      46.7237 
  321000    129.12428   -7188.8823   -6517.6255   -979.30155     102002.7      46.7237      46.7237      46.7237 
  322000    132.51995   -7166.3057   -6477.3964   -920.32058     102002.7      46.7237      46.7237      46.7237 
  323000    125.83343   -7184.6623   -6530.5131   -1117.3492     102002.7      46.7237      46.7237      46.7237 
  324000    130.27627    -7164.983   -6487.7376   -970.76967     102002.7      46.7237      46.7237      46.7237 
  325000    131.13597   -7175.0544   -6493.3398   -863.22201     102002.7      46.7237      46.7237      46.7237 
  326000    131.45071   -7146.0929   -6462.7421   -770.39298     102002.7      46.7237      46.7237      46.7237 
  327000    131.60798   -7167.4602   -6483.2918   -1062.4758     102002.7      46.7237      46.7237      46.7237 
  328000    133.31447   -7141.4473   -6448.4076   -851.41174     102002.7      46.7237      46.7237      46.7237 
  329000    130.07901   -7161.2885   -6485.0685   -678.82878     102002.7      46.7237      46.7237      46.7237 
  330000    128.53311    -7160.205   -6492.0214   -577.11395     102002.7      46.7237      46.7237      46.7237 
  331000    131.72004    -7177.921     -6493.17   -600.35545     102002.7      46.7237      46.7237      46.7237 
  332000    128.34388   -7162.2631   -6495.0632   -823.13611     102002.7      46.7237      46.7237      46.7237 
  333000    129.95334   -7167.8886   -6492.3219   -559.29884     102002.7      46.7237      46.7237      46.7237 
  334000    128.21849    -7151.123    -6484.575   -650.53455     102002.7      46.7237      46.7237      46.7237 
  335000     129.8031   -7177.5146   -6502.7289   -419.64358     102002.7      46.7237      46.7237      46.7237 
  336000    123.26581    -7166.462   -6525.6606   -485.16932     102002.7      46.7237      46.7237      46.7237 
  337000    132.67348   -7169.2798   -6479.5724   -805.12147     102002.7      46.7237      46.7237      46.7237 
  338000    130.12285   -7170.9535   -6494.5057   -607.07617     102002.7      46.7237      46.7237      46.7237 
  339000    128.43402   -7168.4723   -6500.8038   -1024.6818     102002.7      46.7237      46.7237      46.7237 
  340000    127.37463   -7170.2133   -6508.0521   -811.96382     102002.7      46.7237      46.7237      46.7237 
  341000     132.3745   -7170.6116   -6482.4584   -885.78658     102002.7      46.7237      46.7237      46.7237 
  342000    128.63585   -7156.8832   -6488.1656   -931.78855     102002.7      46.7237      46.7237      46.7237 
  343000     128.9587   -7166.1341   -6495.7381   -906.31561     102002.7      46.7237      46.7237      46.7237 
  344000    133.47575   -7155.0717   -6461.1937   -796.02675     102002.7      46.7237      46.7237      46.7237 
  345000    129.66947   -7166.1291   -6492.0382   -622.86042     102002.7      46.7237      46.7237      46.7237 
  346000    126.19937   -7168.7369   -6512.6854   -910.26577     102002.7      46.7237      46.7237      46.7237 
  347000    133.34893   -7165.8118    -6472.593   -545.43724     102002.7      46.7237      46.7237      46.7237 
  348000    131.69651   -7169.7576    -6485.129   -921.07861     102002.7      46.7237      46.7237      46.7237 
  349000    129.56801   -7131.4375    -6457.874   -681.95488     102002.7      46.7237      46.7237      46.7237 
  350000     128.9891   -7167.2582   -6496.7041   -787.11259     102002.7      46.7237      46.7237      46.7237 
  351000    127.00856   -7184.8189   -6524.5608   -772.92628     102002.7      46.7237      46.7237      46.7237 
  352000    126.93191    -7143.281   -6483.4213   -1147.1725     102002.7      46.7237      46.7237      46.7237 
  353000    128.05799   -7158.8395   -6493.1258   -763.45773     102002.7      46.7237      46.7237      46.7237 
  354000    131.07171   -7165.0394   -6483.6588   -470.17489     102002.7      46.7237      46.7237      46.7237 
  355000    129.35939   -7142.5432   -6470.0642   -1043.0107     102002.7      46.7237      46.7237      46.7237 
  356000    130.07545   -7191.4999   -6515.2984   -524.68804     102002.7      46.7237      46.7237      46.7237 
  357000    131.87473   -7159.6324   -6474.0773   -981.04844     102002.7      46.7237      46.7237      46.7237 
  358000    130.73229   -7169.6869   -6490.0708   -805.16957     102002.7      46.7237      46.7237      46.7237 
  359000    132.81874   -7140.0953   -6449.6327   -781.80869     102002.7      46.7237      46.7237      46.7237 
  360000    127.28764    -7158.799   -6497.0901   -587.86934     102002.7      46.7237      46.7237      46.7237 
  361000    128.60134   -7131.0841   -6462.5458   -598.67212     102002.7      46.7237      46.7237      46.7237 
  362000    124.78984    -7147.035   -6498.3109   -794.58388     102002.7      46.7237      46.7237      46.7237 
  363000    130.91897    -7158.548   -6477.9615   -588.37634     102002.7      46.7237      46.7237      46.7237 
  364000    128.75951   -7148.8055   -6479.4449   -658.79262     102002.7      46.7237      46.7237      46.7237 
  365000    123.28798   -7148.1204   -6507.2038   -604.71566     102002.7      46.7237      46.7237      46.7237 
  366000    129.47352   -7139.8529   -6466.7806   -656.27547     102002.7      46.7237      46.7237      46.7237 
  367000    129.05043   -7151.3516   -6480.4788   -739.48608     102002.7      46.7237      46.7237      46.7237 
  368000     129.4593   -7159.8019   -6486.8035   -623.28906     102002.7      46.7237      46.7237      46.7237 
  369000    130.58989   -7145.8109   -6466.9351   -251.31251     102002.7      46.7237      46.7237      46.7237 
  370000    128.95719   -7151.7965   -6481.4083   -570.18045     102002.7      46.7237      46.7237      46.7237 
  371000    128.70792   -7170.3338   -6501.2415   -629.83465     102002.7      46.7237      46.7237      46.7237 
  372000     130.9732   -7165.8197   -6484.9512   -499.03503     102002.7      46.7237      46.7237      46.7237 
  373000    129.78854   -7183.0589   -6508.3489    -618.1286     102002.7      46.7237      46.7237      46.7237 
  374000     127.7943   -7172.1872   -6507.8443    -827.4711     102002.7      46.7237      46.7237      46.7237 
  375000    127.80232   -7158.8744   -6494.4899   -775.96049     102002.7      46.7237      46.7237      46.7237 
  376000    129.69605   -7172.6029   -6498.3738   -596.70539     102002.7      46.7237      46.7237      46.7237 
  377000    132.95262   -7169.9981   -6478.8396   -753.93596     102002.7      46.7237      46.7237      46.7237 
  378000    128.06502   -7159.4375   -6493.6873   -602.34767     102002.7      46.7237      46.7237      46.7237 
  379000    135.18142   -7154.3466   -6451.6016   -1038.3674     102002.7      46.7237      46.7237      46.7237 
  380000    130.14066   -7150.8224    -6474.282   -704.71273     102002.7      46.7237      46.7237      46.7237 
  381000    128.59219   -7163.6149   -6495.1242   -709.33385     102002.7      46.7237      46.7237      46.7237 
  382000    131.89986   -7159.6357     -6473.95   -414.90304     102002.7      46.7237      46.7237      46.7237 
  383000    128.57707   -7157.6288   -6489.2166   -967.16294     102002.7      46.7237      46.7237      46.7237 
  384000    130.31606   -7162.2291   -6484.7768   -340.53392     102002.7      46.7237      46.7237      46.7237 
  385000    133.53683   -7127.7273   -6433.5317   -629.22199     102002.7      46.7237      46.7237      46.7237 
  386000    129.98879   -7166.8176   -6491.0667   -496.17874     102002.7      46.7237      46.7237      46.7237 
  387000    126.47458   -7156.5789   -6499.0966   -581.09829     102002.7      46.7237      46.7237      46.7237 
  388000    132.90552   -7165.6103   -6474.6966   -678.89629     102002.7      46.7237      46.7237      46.7237 
  389000     126.1021   -7173.3521   -6517.8062    -456.5208     102002.7      46.7237      46.7237      46.7237 
  390000    130.95513   -7143.6899   -6462.9153   -827.51727     102002.7      46.7237      46.7237      46.7237 
  391000    131.33557   -7181.0973   -6498.3451   -887.93116     102002.7      46.7237      46.7237      46.7237 
  392000    131.71399   -7185.8102   -6501.0907   -561.46173     102002.7      46.7237      46.7237      46.7237 
  393000    132.46899   -7150.3063   -6461.6619   -934.57523     102002.7      46.7237      46.7237      46.7237 
  394000    128.44332   -7152.8841   -6485.1673   -733.68602     102002.7      46.7237      46.7237      46.7237 
  395000    126.31722   -7186.4962    -6529.832   -442.87598     102002.7      46.7237      46.7237      46.7237 
  396000    128.13778   -7157.5339   -6491.4054   -683.61374     102002.7      46.7237      46.7237      46.7237 
  397000    131.57289   -7152.7552   -6468.7692   -887.24252     102002.7      46.7237      46.7237      46.7237 
  398000    130.78815   -7166.7937   -6486.8872   -1042.6665     102002.7      46.7237      46.7237      46.7237 
  399000    133.28334   -7170.8112   -6477.9334    -1034.719     102002.7      46.7237      46.7237      46.7237 
  400000     132.0529   -7177.0931   -6490.6118   -811.71877     102002.7      46.7237      46.7237      46.7237 
  401000    132.34885   -7155.9817   -6467.9618   -805.93407     102002.7      46.7237      46.7237      46.7237 
  402000    125.71587   -7163.3318   -6509.7937   -494.89227     102002.7      46.7237      46.7237      46.7237 
  403000    132.12061   -7154.6386   -6467.8053   -539.71868     102002.7      46.7237      46.7237      46.7237 
  404000    133.54077   -7167.9748   -6473.7588   -669.03304     102002.7      46.7237      46.7237      46.7237 
  405000    124.82584   -7169.4454   -6520.5342   -890.25867     102002.7      46.7237      46.7237      46.7237 
  406000    129.70102   -7176.0042   -6501.7492   -794.18337     102002.7      46.7237      46.7237      46.7237 
  407000    127.29057   -7143.2819   -6481.5577    -694.7077     102002.7      46.7237      46.7237      46.7237 
  408000     128.1891   -7175.3324   -6508.9371   -521.09033     102002.7      46.7237      46.7237      46.7237 
  409000    134.02914    -7161.224   -6464.4691    -780.3901     102002.7      46.7237      46.7237      46.7237 
  410000    127.76898   -7149.2516   -6485.0404   -741.56147     102002.7      46.7237      46.7237      46.7237 
  411000    126.20224    -7152.822   -6496.7555   -863.88137     102002.7      46.7237      46.7237      46.7237 
  412000    126.77384   -7134.9549   -6475.9169   -873.19713     102002.7      46.7237      46.7237      46.7237 
  413000    127.19944   -7171.9421   -6510.6917   -633.17804     102002.7      46.7237      46.7237      46.7237 
  414000    128.77407   -7173.8879   -6504.4516   -876.33175     102002.7      46.7237      46.7237      46.7237 
  415000    134.30489   -7144.3042   -6446.1159   -700.65536     102002.7      46.7237      46.7237      46.7237 
  416000    132.08882   -7176.6062   -6489.9381   -738.74972     102002.7      46.7237      46.7237      46.7237 
  417000       129.62   -7143.9595   -6470.1257   -711.46508     102002.7      46.7237      46.7237      46.7237 
  418000    128.40903   -7158.8868   -6491.3482   -417.14561     102002.7      46.7237      46.7237      46.7237 
  419000    128.26047   -7153.0632   -6486.2969   -658.14913     102002.7      46.7237      46.7237      46.7237 
  420000    126.97355   -7171.4197   -6511.3436   -654.19715     102002.7      46.7237      46.7237      46.7237 
  421000    133.84557    -7155.208   -6459.4074   -611.78707     102002.7      46.7237      46.7237      46.7237 
  422000    126.32051   -7174.9285   -6518.2473   -715.20244     102002.7      46.7237      46.7237      46.7237 
  423000    130.78383   -7151.2761   -6471.3921   -1021.5438     102002.7      46.7237      46.7237      46.7237 
  424000    129.99866   -7155.1949   -6479.3926   -486.96539     102002.7      46.7237      46.7237      46.7237 
  425000    126.74176    -7167.373   -6508.5018   -685.70438     102002.7      46.7237      46.7237      46.7237 
  426000    132.86345   -7157.3857   -6466.6907   -708.90109     102002.7      46.7237      46.7237      46.7237 
  427000    128.69378    -7159.477   -6490.4581   -427.29472     102002.7      46.7237      46.7237      46.7237 
  428000    130.31978   -7170.0961   -6492.6245   -764.72517     102002.7      46.7237      46.7237      46.7237 
  429000    128.85063   -7134.8405   -6465.0063   -778.66002     102002.7      46.7237      46.7237      46.7237 
  430000    129.28741   -7176.0836   -6503.9788   -788.10145     102002.7      46.7237      46.7237      46.7237 
  431000    134.99892   -7152.6763     -6450.88   -904.23079     102002.7      46.7237      46.7237      46.7237 
  432000     133.2322     -7163.71   -6471.0981   -891.73227     102002.7      46.7237      46.7237      46.7237 
  433000    129.10231   -7168.7068   -6497.5642   -756.99831     102002.7      46.7237      46.7237      46.7237 
  434000    128.99131   -7157.5211   -6486.9555   -574.77518     102002.7      46.7237      46.7237      46.7237 
  435000    133.92166   -7156.4686   -6460.2724   -647.16224     102002.7      46.7237      46.7237      46.7237 
  436000    128.77748   -7181.6172   -6512.1633   -739.23353     102002.7      46.7237      46.7237      46.7237 
  437000    129.49007   -7175.5987   -6502.4404   -771.99375     102002.7      46.7237      46.7237      46.7237 
  438000    132.30477   -7170.3149   -6482.5242   -512.93564     102002.7      46.7237      46.7237      46.7237 
  439000    126.86082   -7153.4889   -6493.9987   -928.73683     102002.7      46.7237      46.7237      46.7237 
  440000    126.69269     -7193.76   -6535.1439    -448.7656     102002.7      46.7237      46.7237      46.7237 
  441000     128.2499   -7144.8742   -6478.1629   -883.92164     102002.7      46.7237      46.7237      46.7237 
  442000    134.12281   -7149.2318     -6451.99   -919.55106     102002.7      46.7237      46.7237      46.7237 
  443000    131.45864   -7171.7684   -6488.3763   -917.47232     102002.7      46.7237      46.7237      46.7237 
  444000    130.66701   -7144.9985   -6465.7217   -808.92096     102002.7      46.7237      46.7237      46.7237 
  445000    134.87617   -7178.0947   -6476.9365   -769.85724     102002.7      46.7237      46.7237      46.7237 
  446000    131.08401   -7157.6587   -6476.2142   -998.03876     102002.7      46.7237      46.7237      46.7237 
  447000    129.32503   -7156.8367   -6484.5363   -794.86164     102002.7      46.7237      46.7237      46.7237 
  448000    127.85334   -7154.1887    -6489.539   -675.14427     102002.7      46.7237      46.7237      46.7237 
  449000    132.08605   -7180.7606   -6494.1069   -508.48489     102002.7      46.7237      46.7237      46.7237 
  450000    132.16149   -7154.2634   -6467.2175   -682.61095     102002.7      46.7237      46.7237      46.7237 
  451000     134.5275   -7155.7944   -6456.4488   -380.31413     102002.7      46.7237      46.7237      46.7237 
  452000    131.10327   -7158.7305   -6477.1859   -476.26366     102002.7      46.7237      46.7237      46.7237 
  453000    128.71693    -7154.589   -6485.4498   -414.28246     102002.7      46.7237      46.7237      46.7237 
  454000    129.55109   -7190.0233   -6516.5477   -660.81527     102002.7      46.7237      46.7237      46.7237 
  455000    131.98895   -7175.0381   -6488.8893   -587.53261     102002.7      46.7237      46.7237      46.7237 
  456000    132.28002   -7132.0359   -6444.3739   -504.47415     102002.7      46.7237      46.7237      46.7237 
  457000     129.8748   -7162.5195   -6487.3611   -697.17652     102002.7      46.7237      46.7237      46.7237 
  458000    131.99104   -7184.2368   -6498.0771    -658.0609     102002.7      46.7237      46.7237      46.7237 
  459000    131.18872   -7160.7348    -6478.746    -1180.121     102002.7      46.7237      46.7237      46.7237 
  460000     129.5601   -7168.4885   -6494.9661   -833.49258     102002.7      46.7237      46.7237      46.7237 
  461000    128.01292   -7166.3862   -6500.9068   -831.70607     102002.7      46.7237      46.7237      46.7237 
  462000     131.4433   -7175.3811   -6492.0688   -765.88742     102002.7      46.7237      46.7237      46.7237 
  463000     126.6919   -7169.3689   -6510.7569   -896.79215     102002.7      46.7237      46.7237      46.7237 
  464000    130.64879   -7174.0878   -6494.9058   -513.51917     102002.7      46.7237      46.7237      46.7237 
  465000    131.93355   -7160.0001   -6474.1392   -758.68447     102002.7      46.7237      46.7237      46.7237 
  466000    128.51129   -7169.3048   -6501.2346   -780.74778     102002.7      46.7237      46.7237      46.7237 
  467000    129.97059   -7178.0963   -6502.4399   -754.52699     102002.7      46.7237      46.7237      46.7237 
  468000    130.26023   -7195.6612   -6518.4992   -674.68415     102002.7      46.7237      46.7237      46.7237 
  469000    131.34983   -7161.5495   -6478.7231   -443.26633     102002.7      46.7237      46.7237      46.7237 
  470000    131.98017   -7129.2344   -6443.1312   -703.19745     102002.7      46.7237      46.7237      46.7237 
  471000    129.86464   -7165.1634   -6490.0578   -398.82531     102002.7      46.7237      46.7237      46.7237 
  472000     125.2731   -7165.4166   -6514.1803   -653.55589     102002.7      46.7237      46.7237      46.7237 
  473000    129.61594   -7152.3592   -6478.5465   -749.37851     102002.7      46.7237      46.7237      46.7237 
  474000     129.9845   -7157.5843   -6481.8556   -677.42505     102002.7      46.7237      46.7237      46.7237 
  475000    128.23411   -7175.2068   -6508.5776   -412.55802     102002.7      46.7237      46.7237      46.7237 
  476000    130.66759   -7158.3656   -6479.0858   -485.90182     102002.7      46.7237      46.7237      46.7237 
  477000    127.68285   -7175.7466   -6511.9831   -897.14579     102002.7      46.7237      46.7237      46.7237 
  478000    126.02661   -7162.6895    -6507.536   -882.77039     102002.7      46.7237      46.7237      46.7237 
  479000    132.05461   -7155.3903   -6468.9001    -1048.263     102002.7      46.7237      46.7237      46.7237 
  480000    132.61126   -7144.6138   -6455.2298   -1006.7875     102002.7      46.7237      46.7237      46.7237 
  481000    130.38741   -7182.4097   -6504.5864    -566.3876     102002.7      46.7237      46.7237      46.7237 
  482000    131.00573   -7159.3038   -6478.2662   -274.18063     102002.7      46.7237      46.7237      46.7237 
  483000    131.41258   -7183.7526      -6500.6   -440.36921     102002.7      46.7237      46.7237      46.7237 
  484000    128.86673   -7165.2594   -6495.3414   -906.83619     102002.7      46.7237      46.7237      46.7237 
  485000    133.56324    -7165.793   -6471.4601   -470.99025     102002.7      46.7237      46.7237      46.7237 
  486000    127.75624   -7154.6809   -6490.5359    -891.8877     102002.7      46.7237      46.7237      46.7237 
  487000    124.74852   -7154.8582   -6506.3489   -840.67514     102002.7      46.7237      46.7237      46.7237 
  488000    131.55637   -7172.1826   -6488.2825   -548.15257     102002.7      46.7237      46.7237      46.7237 
  489000    130.67935   -7168.2689    -6488.928   -731.36859     102002.7      46.7237      46.7237      46.7237 
  490000    129.14878   -7164.9042     -6493.52   -854.49622     102002.7      46.7237      46.7237      46.7237 
  491000    127.98204   -7181.5996   -6516.2808   -516.67587     102002.7      46.7237      46.7237      46.7237 
  492000    129.54171   -7141.0931   -6467.6663   -815.33276     102002.7      46.7237      46.7237      46.7237 
  493000    129.03139   -7166.1944   -6495.4205   -515.14874     102002.7      46.7237      46.7237      46.7237 
  494000     128.7588    -7150.716   -6481.3592   -765.19317     102002.7      46.7237      46.7237      46.7237 
  495000    131.24338   -7185.7182   -6503.4452   -908.53032     102002.7      46.7237      46.7237      46.7237 
  496000    130.55042   -7155.8057   -6477.1351   -819.96774     102002.7      46.7237      46.7237      46.7237 
  497000    128.53809   -7177.7918   -6509.5823   -756.56988     102002.7      46.7237      46.7237      46.7237 
  498000    133.20471   -7158.2282   -6465.7592   -776.84491     102002.7      46.7237      46.7237      46.7237 
  499000    131.28499   -7165.9299   -6483.4406   -702.57144     102002.7      46.7237      46.7237      46.7237 
  500000    125.74692   -7158.1612   -6504.4617   -833.32144     102002.7      46.7237      46.7237      46.7237 
  500504    130.16767   -7188.3851   -6511.7042   -614.57609     102002.7      46.7237      46.7237      46.7237 
Loop time of 1246.23 on 16 procs for 500000 steps with 1745 atoms

Performance: 34.664 ns/day, 0.692 hours/ns, 401.209 timesteps/s
99.8% CPU use with 16 MPI tasks x no OpenMP threads

MPI task timing breakdown:
Section |  min time  |  avg time  |  max time  |%varavg| %total
---------------------------------------------------------------
Pair    | 560.7      | 689.44     | 836.97     | 313.1 | 55.32
Bond    | 156.17     | 173.97     | 195.56     | 104.1 | 13.96
Neigh   | 4.4407     | 4.4702     | 4.4907     |   0.7 |  0.36
Comm    | 225.75     | 365.27     | 479.58     | 380.6 | 29.31
Output  | 0.020338   | 0.020849   | 0.023797   |   0.5 |  0.00
Modify  | 7.179      | 7.8892     | 8.5762     |  15.7 |  0.63
Other   |            | 5.16       |            |       |  0.41

Nlocal:    109.062 ave 130 max 80 min
Histogram: 1 1 0 1 1 4 4 1 0 3
Nghost:    2216.94 ave 2254 max 2195 min
Histogram: 2 0 6 2 3 1 0 0 1 1
Neighs:    11463.6 ave 15240 max 8106 min
Histogram: 2 1 2 4 1 0 1 2 1 2

Total # of neighbors = 183417
Ave neighs/atom = 105.11
Ave special neighs/atom = 6.60172
Neighbor list builds = 3842
Dangerous builds = 0
Neighbor list info ...
  update every 1 steps, delay 10 steps, check yes
  max neighbors/atom: 2000, page size: 100000
  master list distance cutoff = 16
  ghost atom cutoff = 16
  binsize = 8, bins = 6 6 6
  3 neighbor lists, perpetual/occasional/extra = 3 0 0
  (1) pair buck6d/coul/gauss/dsf, perpetual, skip from (3)
      attributes: half, newton on
      pair build: skip
      stencil: none
      bin: none
  (2) pair lj/cut, perpetual, skip from (3)
      attributes: half, newton on
      pair build: skip
      stencil: none
      bin: none
  (3) neighbor class addition, perpetual
      attributes: half, newton on
      pair build: half/bin/newton
      stencil: half/bin/3d/newton
      bin: standard
Setting up Verlet run ...
  Unit style    : real
  Current step  : 500504
  Time step     : 1
WARNING: Inconsistent image flags (../domain.cpp:786)
Per MPI rank memory allocation (min/avg/max) = 22.87 | 23.3 | 23.34 Mbytes
Step Time TotEng KinEng PotEng E_mol E_pair Temp Pxx Pyy Pzz Pxy Pxz Pyz Cella Cellb Cellc CellAlpha CellBeta CellGamma Volume Press 
  500504       500000   -6511.7042    676.68088   -7188.3851    4404.0878   -11592.473    130.16767   -147.00803   -1146.3692   -550.35109    19.862028    138.30214   -193.71234      46.7237      46.7237      46.7237           90           90           90     102002.7   -614.57609 
  501000       500496   -6508.2991    656.26065   -7164.5597    4419.6744   -11584.234    126.23959   -1044.5463   -318.47548   -635.20682   -206.10121   -121.45145   -78.802098      46.7237      46.7237      46.7237           90           90           90     102002.7    -666.0762 
  502000       501496    -6477.384    676.94961   -7154.3336    4407.9895   -11562.323    130.21936   -825.38795    -621.6623   -510.52808    18.929842    247.90833   -63.149297      46.7237      46.7237      46.7237           90           90           90     102002.7   -652.52611 
  503000       502496   -6455.9221    684.29496   -7140.2171     4441.097   -11581.314    131.63233   -1224.5848   -1212.7334    -894.3011     181.1264    246.69171    54.151727      46.7237      46.7237      46.7237           90           90           90     102002.7   -1110.5398 
  504000       503496   -6492.8613    674.26694   -7167.1282     4419.654   -11586.782    129.70332    -870.0194   -733.47256     -901.879   -140.03246    159.87102    73.135583      46.7237      46.7237      46.7237           90           90           90     102002.7   -835.12366 
  505000       504496    -6513.554    673.61241   -7187.1664    4381.5501   -11568.717    129.57741   -827.46952    -837.7563   -718.64792     61.31106     167.1187    278.70362      46.7237      46.7237      46.7237           90           90           90     102002.7   -794.62458 
  506000       505496    -6465.754    699.29858   -7165.0526    4406.1777    -11571.23    134.51845   -547.95108   -436.23945   -359.39966    -40.03672    102.14062   -87.211472      46.7237      46.7237      46.7237           90           90           90     102002.7    -447.8634 
  507000       506496    -6499.035    659.93989   -7158.9749     4410.559   -11569.534    126.94734   -702.51491    -863.5303   -301.02107     140.8887    454.48837    367.31933      46.7237      46.7237      46.7237           90           90           90     102002.7   -622.35542 
  508000       507496   -6514.4734    650.13728   -7164.6107    4435.5407   -11600.151    125.06169   -716.83992   -978.83022   -557.68333     1.591707   -37.078483    216.61868      46.7237      46.7237      46.7237           90           90           90     102002.7   -751.11782 
  509000       508496   -6470.9627     685.3087   -7156.2714    4412.3242   -11568.596    131.82733   -983.06189   -891.35233   -685.58434     54.31413   -124.48261    40.285797      46.7237      46.7237      46.7237           90           90           90     102002.7   -853.33285 
  510000       509496   -6537.5732    649.60239   -7187.1756    4378.0915   -11565.267     124.9588   -347.90541    -752.0078   -523.12151   -86.378264    37.212824    223.24248      46.7237      46.7237      46.7237           90           90           90     102002.7   -541.01157 
  511000       510496   -6435.0352    694.72715   -7129.7623    4453.6115   -11583.374    133.63908   -1051.7025   -482.97883   -563.82532   -212.13705   -89.225754   -126.32154      46.7237      46.7237      46.7237           90           90           90     102002.7    -699.5022 
  512000       511496    -6497.427    660.91568   -7158.3427    4419.0249   -11577.368    127.13504   -1197.0704   -979.10638   -448.90721    216.23467   -294.24188    75.043035      46.7237      46.7237      46.7237           90           90           90     102002.7   -875.02799 
  513000       512496   -6445.4164     695.4673   -7140.8837    4427.1545   -11568.038    133.78146   -603.45286   -919.80057   -516.34907    103.96675   -121.11424    -94.51072      46.7237      46.7237      46.7237           90           90           90     102002.7    -679.8675 
  514000       513496   -6492.3427    675.43911   -7167.7818    4412.7308   -11580.513     129.9288    -762.1441   -517.43849   -523.99424    -102.5898   -99.409429   -148.56044      46.7237      46.7237      46.7237           90           90           90     102002.7   -601.19227 
  515000       514496   -6440.7191    689.75302   -7130.4721    4455.0535   -11585.526    132.68225   -503.40752   -1429.8211   -489.63664     41.67443    -72.49529   -129.68911      46.7237      46.7237      46.7237           90           90           90     102002.7   -807.62175 
  516000       515496   -6473.8276    682.55969   -7156.3873    4417.1141   -11573.501    131.29853    -1371.953   -802.25986   -909.75864    50.937739    46.535306    19.907629      46.7237      46.7237      46.7237           90           90           90     102002.7   -1027.9905 
  517000       516496   -6505.2958    650.36423     -7155.66    4427.7296    -11583.39    125.10535   -920.92361   -1423.4489   -1294.0499   -14.759986    32.567713   -187.88864      46.7237      46.7237      46.7237           90           90           90     102002.7   -1212.8075 
  518000       517496   -6496.9614    668.69205   -7165.6534    4408.5877   -11574.241    128.63092   -1062.5454   -801.55332   -767.41272    131.56553    75.719842   -131.02931      46.7237      46.7237      46.7237           90           90           90     102002.7   -877.17047 
  519000       518496    -6484.525    678.39623   -7162.9213    4441.8119   -11604.733    130.49764   -1039.5367   -1044.6635   -1269.6355    141.42202    -55.74162   -152.70626      46.7237      46.7237      46.7237           90           90           90     102002.7   -1117.9452 
  520000       519496   -6453.5029    704.80149   -7158.3044    4408.8473   -11567.152      135.577   -391.35168   -1226.7153   -1043.1938    38.286976   -133.94485    37.191287      46.7237      46.7237      46.7237           90           90           90     102002.7   -887.08693 
  521000       520496   -6479.5782    677.61278   -7157.1909    4411.1181   -11568.309    130.34693   -809.36361   -511.86578   -871.48511    75.121458   -52.598278   -129.50453      46.7237      46.7237      46.7237           90           90           90     102002.7   -730.90483 
  522000       521496   -6457.1466     683.5197   -7140.6663    4429.5854   -11570.252     131.4832   -409.64675   -603.86631   -453.70542   -105.48934    4.1264388   -203.83363      46.7237      46.7237      46.7237           90           90           90     102002.7   -489.07283 
  523000       522496   -6500.3001    679.76296    -7180.063    4396.0445   -11576.108    130.76054   -436.63934   -835.84099    -781.2365    55.865658    47.195767   -241.67359      46.7237      46.7237      46.7237           90           90           90     102002.7   -684.57227 
  524000       523496   -6450.3986    685.03607   -7135.4347    4439.2068   -11574.641    131.77489   -989.22766   -583.99981   -656.33421   -94.745277    160.40783     214.7483      46.7237      46.7237      46.7237           90           90           90     102002.7   -743.18723 
  525000       524496   -6462.1956    676.34189   -7138.5375    4446.2839   -11584.821    130.10246   -1115.9375   -594.65028   -327.55111    31.107993    353.69571    110.20497      46.7237      46.7237      46.7237           90           90           90     102002.7   -679.37962 
  526000       525496   -6496.1839    678.89783   -7175.0818    4408.0066   -11583.088    130.59412    -981.7242   -681.41294   -544.76767    371.29464    200.38661   -115.54493      46.7237      46.7237      46.7237           90           90           90     102002.7   -735.96827 
  527000       526496   -6473.1722    669.67282    -7142.845    4425.9959   -11568.841    128.81958   -148.28168   -256.45137   -745.67203   -119.90955   -14.594175   -217.37614      46.7237      46.7237      46.7237           90           90           90     102002.7   -383.46836 
  528000       527496   -6484.6249    668.07911    -7152.704    4425.3174   -11578.021    128.51302    -688.5691   -741.11721   -1155.1413   -212.44472    154.56755    89.109392      46.7237      46.7237      46.7237           90           90           90     102002.7   -861.60919 
  529000       528496   -6483.7319    661.30535   -7145.0373    4435.9496   -11580.987       127.21   -946.15094   -758.60827   -863.67364   -13.573858   -136.20811     37.42218      46.7237      46.7237      46.7237           90           90           90     102002.7   -856.14429 
  530000       529496   -6465.2038     678.9448   -7144.1486    4410.4451   -11554.594    130.60316   -715.02547   -355.01688   -593.03464   -118.19862    29.206451    79.465441      46.7237      46.7237      46.7237           90           90           90     102002.7     -554.359 
  531000       530496   -6491.1973     676.3089   -7167.5062    4409.3845   -11576.891    130.09611   -636.51676   -741.97211   -753.79975   -3.9321211   -147.20227    80.885873      46.7237      46.7237      46.7237           90           90           90     102002.7   -710.76287 
  532000       531496   -6489.2969    667.65704    -7156.954    4414.2404   -11571.194    128.43182   -693.39609   -994.86986   -228.56148   -42.941464     123.9168    102.23696      46.7237      46.7237      46.7237           90           90           90     102002.7   -638.94247 
  533000       532496   -6494.1429    682.46041   -7176.6033     4390.632   -11567.235    131.27943   -714.48112   -371.84003   -1010.7792    5.4631954    133.91031   -7.8844153      46.7237      46.7237      46.7237           90           90           90     102002.7   -699.03344 
  534000       533496   -6456.6319    695.58877   -7152.2207    4420.8024   -11573.023    133.80483   -891.41954   -876.16821   -751.08736    -116.7302    216.42343    397.21218      46.7237      46.7237      46.7237           90           90           90     102002.7   -839.55837 
  535000       534496   -6478.9506    683.23438    -7162.185    4394.8835   -11557.068    131.42831   -977.03598   -108.27396   -155.17199   -11.333296    200.04088    172.20962      46.7237      46.7237      46.7237           90           90           90     102002.7   -413.49398 
  536000       535496   -6502.8787    660.05468   -7162.9334    4424.8146   -11587.748    126.96942   -815.01261   -833.35507   -420.37251   -77.854336    7.5140748    51.493824      46.7237      46.7237      46.7237           90           90           90     102002.7   -689.58006 
  537000       536496    -6479.988    681.33004    -7161.318    4420.7978   -11582.116    131.06199   -919.71247    -917.4747   -703.80646    185.65533   -159.98247   -21.961538      46.7237      46.7237      46.7237           90           90           90     102002.7   -846.99788 
  538000       537496    -6491.422    680.23427   -7171.6563    4397.4041    -11569.06     130.8512   -982.31976    -1358.235    -579.5324    204.07498   -89.878054   -247.11518      46.7237      46.7237      46.7237           90           90           90     102002.7    -973.3624 
  539000       538496   -6464.5205    705.78259   -7170.3031    4400.9161   -11571.219    135.76573    -1010.695    -520.6014   -293.51894    259.93418   -60.473809    24.664929      46.7237      46.7237      46.7237           90           90           90     102002.7   -608.27178 
  540000       539496   -6467.4594    668.32658    -7135.786    4436.2386   -11572.025    128.56062   -752.68001   -466.36392   -587.30657   -268.01972   -70.452529    118.91683      46.7237      46.7237      46.7237           90           90           90     102002.7   -602.11683 
  541000       540496   -6498.9207    678.33744   -7177.2581    4408.9454   -11586.203    130.48633   -693.96844   -930.95756   -1138.8018    134.77027   -67.441292   -178.85662      46.7237      46.7237      46.7237           90           90           90     102002.7   -921.24261 
  542000       541496   -6481.0052    671.14288   -7152.1481    4447.7333   -11599.881    129.10237   -526.19317   -613.01267   -621.34923    15.426032    91.696796   -39.912925      46.7237      46.7237      46.7237           90           90           90     102002.7   -586.85169 
  543000       542496   -6454.9138    684.49116   -7139.4049     4424.649   -11564.054    131.67007   -544.37182   -332.58473   -665.83211   -63.246326    176.49424   -7.9226201      46.7237      46.7237      46.7237           90           90           90     102002.7   -514.26289 
  544000       543496   -6503.0708    670.45541   -7173.5262    4399.5543    -11573.08    128.97012   -963.04613   -410.25349    -543.2115    99.194482    42.104742    94.514819      46.7237      46.7237      46.7237           90           90           90     102002.7   -638.83704 
  545000       544496   -6477.1587    680.64649   -7157.8052    4426.7559   -11584.561     130.9305   -443.25372   -1065.9102   -418.23605    115.52167    180.71134     61.34341      46.7237      46.7237      46.7237           90           90           90     102002.7   -642.46665 
  546000       545496   -6468.8676    665.58987   -7134.4575    4443.1755   -11577.633    128.03418     -932.024   -535.13983   -248.18579    -189.8244    82.375473    240.03903      46.7237      46.7237      46.7237           90           90           90     102002.7   -571.78321 
  547000       546496   -6517.1999    641.71889   -7158.9188    4413.3813     -11572.3    123.44231    -788.3038   -445.59977   -427.35577   -165.96036    18.840687   -39.177056      46.7237      46.7237      46.7237           90           90           90     102002.7   -553.75311 
  548000       547496    -6496.068    657.38195   -7153.4499    4420.7537   -11574.204    126.45529    -434.9365   -1319.6355   -722.59865    32.264349    147.74933    187.07705      46.7237      46.7237      46.7237           90           90           90     102002.7   -825.72354 
  549000       548496   -6455.3481    687.51384    -7142.862    4432.4132   -11575.275    132.25152   -890.66631    -278.6283   -887.51804   -23.537638   -68.116934   -107.96559      46.7237      46.7237      46.7237           90           90           90     102002.7   -685.60422 
  550000       549496   -6481.7239    683.64017   -7165.3641    4414.1237   -11579.488    131.50637   -673.46067   -632.58448   -526.89319    54.124285   -104.56949   -248.28646      46.7237      46.7237      46.7237           90           90           90     102002.7   -610.97945 
  551000       550496   -6476.2973    691.64857   -7167.9459    4411.3435   -11579.289    133.04688   -610.23441   -654.05109   -30.668013    198.83391    168.52983    175.99555      46.7237      46.7237      46.7237           90           90           90     102002.7   -431.65117 
  552000       551496    -6502.855    671.49285   -7174.3478     4400.498   -11574.846    129.16969    -581.3307   -798.04682   -440.95656   -52.339291   -117.57714   -7.8528745      46.7237      46.7237      46.7237           90           90           90     102002.7   -606.77803 
  553000       552496   -6478.4184    657.65497   -7136.0734    4439.1311   -11575.204    126.50781   -709.08382   -921.14474   -513.78071    19.323024    106.88233   -74.933155      46.7237      46.7237      46.7237           90           90           90     102002.7   -714.66976 
  554000       553496   -6505.3582    667.92097   -7173.2792    4393.4867   -11566.766    128.48259   -733.85212   -177.31997   -385.13414    -100.3524    154.98315    295.44645      46.7237      46.7237      46.7237           90           90           90     102002.7   -432.10208 
  555000       554496   -6460.2878    688.53094   -7148.8188    4405.5765   -11554.395    132.44717   -694.79116   -724.37636   -410.49145    -57.46653    23.315001    -225.1172      46.7237      46.7237      46.7237           90           90           90     102002.7   -609.88632 
[...]
  936000       935496   -6498.9126    671.90947    -7170.822    4415.5295   -11586.352    129.24983   -912.74161   -681.78712   -477.29896    395.37736   -90.297862   -46.389139      46.7237      46.7237      46.7237           90           90           90     102002.7   -690.60923 
  937000       936496   -6476.6617    701.06343   -7177.7252    4390.2402   -11567.965    134.85794   -581.31242    -827.8979   -825.66481   -20.466933   -78.741461   -425.86728      46.7237      46.7237      46.7237           90           90           90     102002.7   -744.95837 
  938000       937496   -6498.7151    676.92251   -7175.6376    4405.9291   -11581.567    130.21415   -644.35185   -1081.9036   -1150.1669    171.04428    202.95777    157.90165      46.7237      46.7237      46.7237           90           90           90     102002.7   -958.80745 
  939000       938496   -6441.7969     706.3425   -7148.1394    4429.4938   -11577.633    135.87343   -951.56031   -575.12012    -625.3268    180.31299   -260.47919    63.635599      46.7237      46.7237      46.7237           90           90           90     102002.7   -717.33574 
  940000       939496   -6471.7561    671.66181   -7143.4179    4432.0884   -11575.506    129.20219   -784.98728   -1180.4668    -590.2593    342.08036    46.829113   -128.98189      46.7237      46.7237      46.7237           90           90           90     102002.7   -851.90447 
  941000       940496   -6486.1297    674.62189   -7160.7516     4417.195   -11577.947     129.7716   -710.31152   -505.26345   -1087.3528    141.85294    182.17697   -65.388959      46.7237      46.7237      46.7237           90           90           90     102002.7    -767.6426 
  942000       941496   -6461.8801     687.2431   -7149.1231    4428.2299   -11577.353    132.19944   -554.31471   -616.58475   -567.44159   -30.214133   -82.310913    97.684564      46.7237      46.7237      46.7237           90           90           90     102002.7   -579.44702 
  943000       942496   -6478.8352    678.95488   -7157.7901    4415.4552   -11573.245     130.6051   -799.69884   -1478.5631   -860.90127   -109.37474   -163.04911   -62.166524      46.7237      46.7237      46.7237           90           90           90     102002.7   -1046.3877 
  944000       943496   -6499.2583    681.32298   -7180.5813    4402.7353   -11583.317    131.06063   -915.41254    -975.4338    -1060.352    404.97173   -39.283983    17.284633      46.7237      46.7237      46.7237           90           90           90     102002.7   -983.73277 
  945000       944496   -6495.3813    671.52406   -7166.9053    4418.8379   -11585.743    129.17569   -758.18112   -884.87389   -820.60944    48.880174    121.41958   -116.52985      46.7237      46.7237      46.7237           90           90           90     102002.7   -821.22148 
  946000       945496   -6482.4761    659.51895   -7141.9951    4437.3396   -11579.335    126.86637   -632.15728   -617.41817   -263.64016   -115.62003     70.95353    296.10425      46.7237      46.7237      46.7237           90           90           90     102002.7    -504.4052 
  947000       946496    -6502.931     665.5875   -7168.5185    4409.9839   -11578.502    128.03372   -722.81918    -1325.595   -408.42994    295.50582   -220.63246    103.72453      46.7237      46.7237      46.7237           90           90           90     102002.7   -818.94805 
  948000       947496   -6488.9809    671.91417   -7160.8951    4401.6452    -11562.54    129.25073   -353.86223    -734.7744   -808.87224    138.21609    258.47923   -42.903628      46.7237      46.7237      46.7237           90           90           90     102002.7   -632.50296 
  949000       948496   -6508.7224    687.43547   -7196.1578    4383.9864   -11580.144    132.23644    -555.8506   -237.17218   -660.21691   -5.3614348    168.45002   -77.285662      46.7237      46.7237      46.7237           90           90           90     102002.7   -484.41323 
  950000       949496   -6475.1954    676.53648   -7151.7319    4428.7979    -11580.53    130.13989   -475.22926   -974.33303   -915.10859   -83.371409   -218.17811    219.09262      46.7237      46.7237      46.7237           90           90           90     102002.7   -788.22363 
  951000       950496   -6485.2904    659.74755   -7145.0379    4448.3321    -11593.37    126.91034   -797.10248   -451.14351   -567.12719    171.45247   -62.955793    196.61239      46.7237      46.7237      46.7237           90           90           90     102002.7   -605.12439 
  952000       951496   -6494.8856      681.803   -7176.6886    4405.5094   -11582.198    131.15297   -1117.1191    -912.1292    -1023.995   -184.08892   -61.690052    10.022706      46.7237      46.7237      46.7237           90           90           90     102002.7   -1017.7478 
  953000       952496   -6475.8479    687.90211     -7163.75    4402.1693   -11565.919    132.32621   -686.72448   -744.50399   -1359.3274   -233.96305   -96.227656   -66.372438      46.7237      46.7237      46.7237           90           90           90     102002.7   -930.18528 
  954000       953496   -6469.8568    689.80197   -7159.6587    4436.0625   -11595.721    132.69167   -1028.3754   -789.03564   -1257.9981   -58.323644   -47.755231    93.204342      46.7237      46.7237      46.7237           90           90           90     102002.7   -1025.1364 
  955000       954496   -6502.2827    674.13451   -7176.4172    4414.0561   -11590.473    129.67784   -716.70117   -910.19392   -982.13386    74.383676    88.962864    -136.2169      46.7237      46.7237      46.7237           90           90           90     102002.7   -869.67632 
  956000       955496    -6457.472    672.37396   -7129.8459    4430.2677   -11560.114    129.33918   -833.56065   -1134.5186   -525.48694    76.014342   -130.89349    94.481249      46.7237      46.7237      46.7237           90           90           90     102002.7   -831.18872 
  957000       956496   -6491.7049    675.16042   -7166.8653    4410.4842    -11577.35    129.87519   -607.50514   -1156.3094   -1350.9543     3.288572    184.06275    4.5552623      46.7237      46.7237      46.7237           90           90           90     102002.7   -1038.2563 
  958000       957496   -6467.8797    676.84725    -7144.727    4432.6649   -11577.392    130.19967   -513.54876   -691.77526   -942.92219   -17.527011   -37.110868   -289.79301      46.7237      46.7237      46.7237           90           90           90     102002.7   -716.08207 
  959000       958496   -6489.4139    658.03695   -7147.4509    4415.9733   -11563.424    126.58129   -767.14565   -884.06743   -1022.1482   -34.423253     250.0787    85.140142      46.7237      46.7237      46.7237           90           90           90     102002.7   -891.12042 
  960000       959496   -6454.4288    703.21498   -7157.6438    4417.9454   -11575.589    135.27182   -1028.0327   -698.35701   -885.56107    174.91682   -49.289319   -92.293012      46.7237      46.7237      46.7237           90           90           90     102002.7   -870.65025 
  961000       960496   -6473.5151    665.78504   -7139.3002    4429.2473   -11568.547    128.07172   -432.25336   -905.57812   -593.34718   -118.88194   -49.914283    195.49751      46.7237      46.7237      46.7237           90           90           90     102002.7   -643.72622 
  962000       961496   -6456.8811    687.47673   -7144.3578     4452.496   -11596.854    132.24438   -1422.9459   -960.65499   -887.92108    54.963778    -29.50618   -52.710985      46.7237      46.7237      46.7237           90           90           90     102002.7   -1090.5073 
  963000       962496   -6471.2952    686.95197   -7158.2471     4411.019   -11569.266    132.14344   -205.58154   -718.01532   -184.12306   -24.487542    36.079341    10.151485      46.7237      46.7237      46.7237           90           90           90     102002.7   -369.23997 
  964000       963496   -6471.2103    705.80598   -7177.0163    4389.3054   -11566.322    135.77023   -1069.8357   -712.46818   -488.83101   -122.92297   -208.77239    35.730208      46.7237      46.7237      46.7237           90           90           90     102002.7   -757.04496 
  965000       964496   -6483.9057     698.4288   -7182.3345    4415.6116   -11597.946    134.35114    -729.6971   -447.73093   -406.60033    20.967698    84.472808    352.08612      46.7237      46.7237      46.7237           90           90           90     102002.7   -528.00946 
  966000       965496   -6473.5732    683.07236   -7156.6456    4431.5277   -11588.173    131.39715   -590.43448   -1372.7819   -492.33661    144.77581    265.00221   -106.35858      46.7237      46.7237      46.7237           90           90           90     102002.7   -818.51767 
  967000       966496   -6479.1948    686.85276   -7166.0475    4422.5604   -11588.608    132.12435   -670.03978   -668.65736   -828.12129    278.53309   -113.15348    -40.98835      46.7237      46.7237      46.7237           90           90           90     102002.7   -722.27281 
  968000       967496   -6492.5714    688.53118   -7181.1026    4402.4537   -11583.556    132.44722   -232.86747   -657.19151   -628.54158     113.7357    289.50107    122.33306      46.7237      46.7237      46.7237           90           90           90     102002.7   -506.20019 
  969000       968496   -6467.9849    671.06743   -7139.0524     4457.585   -11596.637    129.08785   -979.01662   -724.97274   -920.72224   -256.06147    186.08634     7.046504      46.7237      46.7237      46.7237           90           90           90     102002.7   -874.90387 
  970000       969496   -6475.6558    693.12582   -7168.7817     4413.053   -11581.835    133.33105   -23.276078   -628.02698   -625.80769   -182.08436    116.56253    200.55312      46.7237      46.7237      46.7237           90           90           90     102002.7   -425.70358 
  971000       970496   -6509.9076    678.89856   -7188.8061     4385.374    -11574.18    130.59426   -496.93054   -724.29632   -804.05457   -135.05812    -127.8218    97.265102      46.7237      46.7237      46.7237           90           90           90     102002.7   -675.09381 
  972000       971496   -6474.6018     677.9425   -7152.5443    4423.4514   -11575.996    130.41036   -667.91059   -733.42982   -625.41174   -150.78044    64.630085    38.373457      46.7237      46.7237      46.7237           90           90           90     102002.7   -675.58405 
  973000       972496   -6522.7853    648.66817   -7171.4534    4403.6007   -11575.054    124.77909   -728.83123   -568.46296   -995.73796   -5.2191936   -364.07492    152.33179      46.7237      46.7237      46.7237           90           90           90     102002.7   -764.34405 
  974000       973496    -6476.692    688.47427   -7165.1663    4392.1887   -11557.355    132.43627   -1030.4651    -565.6634   -752.84228    176.91262    72.296946    10.460963      46.7237      46.7237      46.7237           90           90           90     102002.7   -782.99026 
  975000       974496   -6494.9479    663.32703   -7158.2749    4425.3565   -11583.631     127.5989   -648.25679   -675.97365   -653.43685   -157.97032   -144.51114    45.379808      46.7237      46.7237      46.7237           90           90           90     102002.7   -659.22243 
  976000       975496   -6481.1925    671.24925   -7152.4418    4423.1119   -11575.554    129.12283   -1184.2296   -55.925935   -568.48591    14.733404    37.805052    -244.2921      46.7237      46.7237      46.7237           90           90           90     102002.7   -602.88049 
  977000       976496    -6506.994    671.41201    -7178.406    4430.8036    -11609.21    129.15414   -104.47461   -1203.2387   -832.39218   -4.1066332    110.52385    47.904215      46.7237      46.7237      46.7237           90           90           90     102002.7   -713.36848 
  978000       977496   -6505.1701    659.41773   -7164.5878    4415.0759   -11579.664    126.84689   -1086.5384   -836.09163   -394.02716   -79.183909    82.919474   -179.99455      46.7237      46.7237      46.7237           90           90           90     102002.7   -772.21906 
  979000       978496    -6424.736    686.99924   -7111.7352    4457.6958   -11569.431    132.15253    3.6260372   -184.64413   -441.78892   -65.990516   -287.30314   -14.078092      46.7237      46.7237      46.7237           90           90           90     102002.7   -207.60234 
  980000       979496   -6502.5483    659.89854   -7162.4468    4420.9861   -11583.433    126.93938   -1063.7134   -750.25432     -702.593    3.2617908   -264.16524    104.55012      46.7237      46.7237      46.7237           90           90           90     102002.7   -838.85359 
  981000       980496   -6514.8633    662.00049   -7176.8638    4388.7272   -11565.591    127.34372   -760.69174   -481.69939   -410.89083    94.398723    328.86029    108.19627      46.7237      46.7237      46.7237           90           90           90     102002.7   -551.09398 
  982000       981496   -6478.9265    670.89853   -7149.8251    4417.9932   -11567.818    129.05536   -699.37722   -375.19446   -380.61159    10.579985   -115.31087    -142.3384      46.7237      46.7237      46.7237           90           90           90     102002.7   -485.06109 
  983000       982496   -6511.6493    672.20879    -7183.858    4395.4606   -11579.319    129.30741   -717.43167    -445.0694   -629.14573    126.28279   -264.21658    107.84293      46.7237      46.7237      46.7237           90           90           90     102002.7    -597.2156 
  984000       983496   -6480.1752    687.65084    -7167.826    4410.5659   -11578.392    132.27787   -590.08483   -306.40099   -649.22246    51.337452    82.729447    105.28143      46.7237      46.7237      46.7237           90           90           90     102002.7   -515.23609 
  985000       984496    -6480.682    676.18619   -7156.8682    4438.4679   -11595.336    130.07251   -883.05809   -59.705626   -660.85108    -153.8705    229.00901     44.50912      46.7237      46.7237      46.7237           90           90           90     102002.7   -534.53826 
  986000       985496   -6491.1869    664.87609    -7156.063     4417.522   -11573.585    127.89687   -1085.1647   -879.80748    -748.0145   -59.397598   -50.802603   -133.32112      46.7237      46.7237      46.7237           90           90           90     102002.7    -904.3289 
  987000       986496   -6517.5711    651.10594    -7168.677    4412.2589   -11580.936    125.24802   -1034.1402    -902.7538   -379.83509    90.651813   -7.5956726   -59.657054      46.7237      46.7237      46.7237           90           90           90     102002.7   -772.24302 
  988000       987496   -6487.2003      681.499   -7168.6993    4407.0501   -11575.749    131.09449   -400.29175   -689.21052   -701.98551   -23.139924    159.67723    13.777466      46.7237      46.7237      46.7237           90           90           90     102002.7   -597.16259 
  989000       988496   -6505.9431    672.88579   -7178.8289    4405.3503   -11584.179    129.43764   -230.06059   -578.14209   -404.98959   -294.35089   -73.101628   -5.8793485      46.7237      46.7237      46.7237           90           90           90     102002.7   -404.39742 
  990000       989496   -6480.7817     694.1829   -7174.9646    4395.7505   -11570.715    133.53439   -786.89666   -1060.5632    -752.1976   -213.42392   -51.416077    42.335019      46.7237      46.7237      46.7237           90           90           90     102002.7   -866.55248 
  991000       990496   -6472.3453    680.97761   -7153.3229    4425.3798   -11578.703     130.9942   -168.30113   -624.56072   -425.87691    122.02638   -5.8869666   -165.19755      46.7237      46.7237      46.7237           90           90           90     102002.7   -406.24625 
  992000       991496   -6492.5551    670.79613   -7163.3512    4391.0764   -11554.428    129.03567   -366.29859   -556.86975   -945.82354   -10.896389    27.750217    5.3366431      46.7237      46.7237      46.7237           90           90           90     102002.7    -622.9973 
  993000       992496   -6511.9818    663.97885   -7175.9607    4392.8954   -11568.856    127.72428   -721.85833   -905.26021   -428.94961     2.171501    352.03186   -182.28649      46.7237      46.7237      46.7237           90           90           90     102002.7   -685.35605 
  994000       993496   -6482.7374    672.16109   -7154.8985    4420.3464   -11575.245    129.29823   -919.32143   -383.41102   -1082.1324   -82.487298   -113.81166    122.99891      46.7237      46.7237      46.7237           90           90           90     102002.7   -794.95493 
  995000       994496   -6489.1902    688.79255   -7177.9828    4401.5505   -11579.533    132.49749   -358.54431   -395.58058   -220.16228    120.44329   -71.903925   -98.204319      46.7237      46.7237      46.7237           90           90           90     102002.7   -324.76239 
  996000       995496   -6489.9479    669.86714   -7159.8151    4417.3035   -11577.119    128.85696   -1089.6837    -938.2521   -281.72206    98.690636   -233.65674    85.803369      46.7237      46.7237      46.7237           90           90           90     102002.7   -769.88595 
  997000       996496   -6454.8024    683.23413   -7138.0365    4450.7354   -11588.772    131.42826   -806.50989   -877.58419   -690.86681    84.731121    190.22043    344.50163      46.7237      46.7237      46.7237           90           90           90     102002.7   -791.65363 
  998000       997496   -6503.6281    663.92461   -7167.5527    4405.9052   -11573.458    127.71385   -577.59368   -248.61508   -197.14995    24.779226   -279.32303    -5.504822      46.7237      46.7237      46.7237           90           90           90     102002.7   -341.11957 
  999000       998496    -6488.908    668.74856   -7157.6566    4418.4464   -11576.103    128.64179   -894.81227   -477.29406   -527.78259    65.253926    -24.57909    115.32813      46.7237      46.7237      46.7237           90           90           90     102002.7   -633.29631 
 1000000       999496   -6478.1469    693.53435   -7171.6813     4406.785   -11578.466    133.40963    115.79621   -681.80714   -610.54673    126.93822   -154.94804    205.08538      46.7237      46.7237      46.7237           90           90           90     102002.7   -392.18589 
 1000504      1000000   -6453.8306     699.3849   -7153.2155    4407.6329   -11560.848    134.53506   -684.02946   -336.57656   -181.08003   -293.17468   -129.11364   -48.334864      46.7237      46.7237      46.7237           90           90           90     102002.7   -400.56202 
Loop time of 1338.67 on 16 procs for 500000 steps with 1745 atoms

Performance: 32.271 ns/day, 0.744 hours/ns, 373.506 timesteps/s
99.8% CPU use with 16 MPI tasks x no OpenMP threads

MPI task timing breakdown:
Section |  min time  |  avg time  |  max time  |%varavg| %total
---------------------------------------------------------------
Pair    | 667.66     | 773.97     | 902.64     | 229.2 | 57.82
Bond    | 153.83     | 183.22     | 211.72     | 184.6 | 13.69
Neigh   | 4.4901     | 4.5166     | 4.535      |   0.7 |  0.34
Comm    | 240.75     | 349.56     | 433.21     | 288.9 | 26.11
Output  | 0.098477   | 0.10321    | 0.10361    |   0.4 |  0.01
Modify  | 21.231     | 22.094     | 23.008     |  13.8 |  1.65
Other   |            | 5.196      |            |       |  0.39

Nlocal:    109.062 ave 139 max 85 min
Histogram: 4 1 2 1 1 0 3 2 0 2
Nghost:    2218.06 ave 2252 max 2187 min
Histogram: 3 0 1 1 4 1 3 0 2 1
Neighs:    11469.8 ave 14596 max 8037 min
Histogram: 1 0 1 2 4 1 3 3 0 1

Total # of neighbors = 183516
Ave neighs/atom = 105.167
Ave special neighs/atom = 6.60172
Neighbor list builds = 3904
Dangerous builds = 0
Total wall time: 0:43:07
