LAMMPS (30 Mar 2018)
Reading data file ...
  orthogonal box = (0 0 0) to (46.7237 46.7237 46.7237)
  2 by 2 by 4 MPI processor grid
  reading atoms ...
  3306 atoms
  scanning bonds ...
  5 = max bonds/atom
  scanning angles ...
  10 = max angles/atom
  scanning dihedrals ...
  32 = max dihedrals/atom
  scanning impropers ...
  3 = max impropers/atom
  reading bonds ...
  2064 bonds
  reading angles ...
  3696 angles
  reading dihedrals ...
  6240 dihedrals
  reading impropers ...
  1008 impropers
Finding 1-2 1-3 1-4 neighbors ...
  special bond factors lj:   0          0          0         
  special bond factors coul: 0          0          0         
  5 = max # of 1-2 neighbors
  8 = max # of 1-3 neighbors
  20 = max # of 1-4 neighbors
  19 = max # of special neighbors
Finding 1-2 1-3 1-4 neighbors ...
  special bond factors lj:   0          0          1         
  special bond factors coul: 1          1          1         
  5 = max # of 1-2 neighbors
  8 = max # of 1-3 neighbors
  19 = max # of special neighbors
WARNING: Using 'neigh_modify every 1 delay 0 check yes' setting during minimization (../min.cpp:168)
Neighbor list info ...
  update every 1 steps, delay 0 steps, check yes
  max neighbors/atom: 2000, page size: 100000
  master list distance cutoff = 16
  ghost atom cutoff = 16
  binsize = 8, bins = 6 6 6
  3 neighbor lists, perpetual/occasional/extra = 3 0 0
  (1) pair buck6d/coul/gauss/dsf, perpetual, skip from (3)
      attributes: half, newton on
      pair build: skip
      stencil: none
      bin: none
  (2) pair lj/cut, perpetual, skip from (3)
      attributes: half, newton on
      pair build: skip
      stencil: none
      bin: none
  (3) neighbor class addition, perpetual
      attributes: half, newton on
      pair build: half/bin/newton
      stencil: half/bin/3d/newton
      bin: standard
Setting up cg style minimization ...
  Unit style    : real
  Current step  : 0
WARNING: Inconsistent image flags (../domain.cpp:786)
Per MPI rank memory allocation (min/avg/max) = 23.02 | 23.48 | 23.92 Mbytes
Step Temp E_pair E_mol TotEng Press 
       0            0   -15951.726    6482.8914   -9468.8343    6484.3233 
     500            0   -16329.788    3793.8122   -12535.976   -1479.0152 
Loop time of 4.47116 on 16 procs for 500 steps with 3306 atoms

99.9% CPU use with 16 MPI tasks x no OpenMP threads

Minimization stats:
  Stopping criterion = max force evaluations
  Energy initial, next-to-last, final = 
        -9468.83432994      -12535.946657     -12535.9759401
  Force two-norm initial, final = 2575.15 7.85166
  Force max component initial, final = 152.075 1.23328
  Final line search alpha, max atom move = 0.0107876 0.0133041
  Iterations, force evaluations = 500 1000

MPI task timing breakdown:
Section |  min time  |  avg time  |  max time  |%varavg| %total
---------------------------------------------------------------
Pair    | 2.5906     | 3.1047     | 3.684      |  17.3 | 69.44
Bond    | 0.27478    | 0.35982    | 0.42964    |   6.2 |  8.05
Neigh   | 0.028376   | 0.028452   | 0.028523   |   0.0 |  0.64
Comm    | 0.34876    | 0.93223    | 1.4308     |  31.6 | 20.85
Output  | 0          | 0          | 0          |   0.0 |  0.00
Modify  | 0          | 0          | 0          |   0.0 |  0.00
Other   |            | 0.04597    |            |       |  1.03

Nlocal:    206.625 ave 223 max 189 min
Histogram: 2 1 0 1 4 1 3 1 2 1
Nghost:    4138.75 ave 4159 max 4115 min
Histogram: 1 0 3 2 1 0 6 0 0 3
Neighs:    11507.6 ave 16409 max 7291 min
Histogram: 2 2 1 1 3 1 3 1 1 1

Total # of neighbors = 184121
Ave neighs/atom = 55.693
Ave special neighs/atom = 3.48457
Neighbor list builds = 8
Dangerous builds = 0
Neighbor list info ...
  update every 1 steps, delay 10 steps, check yes
  max neighbors/atom: 2000, page size: 100000
  master list distance cutoff = 16
  ghost atom cutoff = 16
  binsize = 8, bins = 6 6 6
  3 neighbor lists, perpetual/occasional/extra = 3 0 0
  (1) pair buck6d/coul/gauss/dsf, perpetual, skip from (3)
      attributes: half, newton on
      pair build: skip
      stencil: none
      bin: none
  (2) pair lj/cut, perpetual, skip from (3)
      attributes: half, newton on
      pair build: skip
      stencil: none
      bin: none
  (3) neighbor class addition, perpetual
      attributes: half, newton on
      pair build: half/bin/newton
      stencil: half/bin/3d/newton
      bin: standard
Setting up Verlet run ...
  Unit style    : real
  Current step  : 500
  Time step     : 1
WARNING: Inconsistent image flags (../domain.cpp:786)
Per MPI rank memory allocation (min/avg/max) = 22.67 | 22.73 | 22.8 Mbytes
Step Temp PotEng TotEng Press Volume Lx Ly Lz 
     500           91   -12535.976   -11639.482   -1077.2537     102002.7      46.7237      46.7237      46.7237 
    1000    75.218643   -11780.709   -11039.687    97.443966     102002.7      46.7237      46.7237      46.7237 
    2000    92.463953   -11626.652   -10715.736    88.864386     102002.7      46.7237      46.7237      46.7237 
    3000    92.552152   -11702.367   -10790.582    311.14905     102002.7      46.7237      46.7237      46.7237 
    4000    92.506854   -11657.092   -10745.753    442.47083     102002.7      46.7237      46.7237      46.7237 
    5000    89.506236   -11690.082   -10808.304    295.92566     102002.7      46.7237      46.7237      46.7237 
    6000    90.914705   -11659.343    -10763.69    360.37356     102002.7      46.7237      46.7237      46.7237 
    7000    91.756567   -11659.112   -10755.165    298.63898     102002.7      46.7237      46.7237      46.7237 
    8000    91.032933   -11666.163   -10769.345    402.72878     102002.7      46.7237      46.7237      46.7237 
    9000    91.679216   -11647.773   -10744.588    240.47329     102002.7      46.7237      46.7237      46.7237 
   10000    92.144082   -11655.507   -10747.743    328.73691     102002.7      46.7237      46.7237      46.7237 
   11000    90.236614   -11646.073     -10757.1    379.95008     102002.7      46.7237      46.7237      46.7237 
   12000    89.632032   -11677.682   -10794.665    300.51275     102002.7      46.7237      46.7237      46.7237 
   13000    90.373911   -11665.247   -10774.922    636.94735     102002.7      46.7237      46.7237      46.7237 
   14000    91.302174     -11685.8    -10786.33    3.0297849     102002.7      46.7237      46.7237      46.7237 
   15000    92.305759   -11673.464   -10764.107    176.99111     102002.7      46.7237      46.7237      46.7237 
   16000    91.006811   -11658.297   -10761.736     422.3308     102002.7      46.7237      46.7237      46.7237 
   17000    89.644272   -11664.765   -10781.628    178.37121     102002.7      46.7237      46.7237      46.7237 
   18000    91.411694   -11683.314   -10782.765    183.55962     102002.7      46.7237      46.7237      46.7237 
   19000    90.955591   -11663.178   -10767.122    494.76282     102002.7      46.7237      46.7237      46.7237 
   20000    89.928691   -11657.093   -10771.153    99.049194     102002.7      46.7237      46.7237      46.7237 
   21000    91.578041    -11675.53   -10773.342    410.09114     102002.7      46.7237      46.7237      46.7237 
   22000    90.693324   -11671.888   -10778.416    521.57362     102002.7      46.7237      46.7237      46.7237 
   23000    93.940678   -11653.639   -10728.175     239.9697     102002.7      46.7237      46.7237      46.7237 
   24000    90.458766   -11691.451   -10800.289    574.85358     102002.7      46.7237      46.7237      46.7237 
   25000    90.006914   -11666.723   -10780.013    632.13673     102002.7      46.7237      46.7237      46.7237 
   26000    93.223242   -11693.358   -10774.962    463.24738     102002.7      46.7237      46.7237      46.7237 
   27000     92.57191   -11677.961   -10765.982    644.62954     102002.7      46.7237      46.7237      46.7237 
   28000    90.212621   -11690.636     -10801.9    440.83102     102002.7      46.7237      46.7237      46.7237 
   29000    92.053818   -11688.698   -10781.823    423.24615     102002.7      46.7237      46.7237      46.7237 
   30000    89.930082   -11687.001   -10801.048    419.65157     102002.7      46.7237      46.7237      46.7237 
   31000    93.770381    -11679.02   -10755.234    292.03233     102002.7      46.7237      46.7237      46.7237 
   32000    89.619147   -11681.633   -10798.743    522.10191     102002.7      46.7237      46.7237      46.7237 
   33000    91.395283   -11680.611   -10780.223     434.8613     102002.7      46.7237      46.7237      46.7237 
   34000     92.27572   -11679.558   -10770.497    22.660816     102002.7      46.7237      46.7237      46.7237 
   35000     92.85114   -11681.943   -10767.213    363.28597     102002.7      46.7237      46.7237      46.7237 
   36000    90.231854   -11700.504   -10811.578    332.09613     102002.7      46.7237      46.7237      46.7237 
   37000     88.88986   -11684.999   -10809.294      302.874     102002.7      46.7237      46.7237      46.7237 
   38000    90.805259   -11682.807   -10788.232    563.16233     102002.7      46.7237      46.7237      46.7237 
   39000    91.380061   -11689.772   -10789.534    342.42291     102002.7      46.7237      46.7237      46.7237 
   40000     90.93736   -11686.338   -10790.461    363.37115     102002.7      46.7237      46.7237      46.7237 
   41000    88.978656   -11706.019   -10829.439    415.20032     102002.7      46.7237      46.7237      46.7237 
   42000    91.237236   -11683.074   -10784.243    371.62215     102002.7      46.7237      46.7237      46.7237 
   43000    89.745069   -11704.254   -10820.123    385.37339     102002.7      46.7237      46.7237      46.7237 
   44000    92.459373   -11697.123   -10786.252    585.86729     102002.7      46.7237      46.7237      46.7237 
   45000    93.483274    -11700.79   -10779.832    550.44008     102002.7      46.7237      46.7237      46.7237 
   46000    88.139276   -11688.988   -10820.677    349.01872     102002.7      46.7237      46.7237      46.7237 
   47000    91.561159   -11702.408   -10800.386    521.34204     102002.7      46.7237      46.7237      46.7237 
   48000    91.579474   -11705.738   -10803.536    491.16605     102002.7      46.7237      46.7237      46.7237 
   49000      90.4492   -11705.884   -10814.817    360.57108     102002.7      46.7237      46.7237      46.7237 
   50000    91.202805   -11693.865   -10795.373    344.55282     102002.7      46.7237      46.7237      46.7237 
   51000    91.052671   -11695.617   -10798.604    269.39358     102002.7      46.7237      46.7237      46.7237 
   52000    89.964882   -11689.127   -10802.831    440.21694     102002.7      46.7237      46.7237      46.7237 
   53000    89.110014   -11738.492   -10860.618    440.51982     102002.7      46.7237      46.7237      46.7237 
   54000    90.966037   -11695.287   -10799.128    318.24991     102002.7      46.7237      46.7237      46.7237 
   55000    92.146901   -11689.609   -10781.817    474.04488     102002.7      46.7237      46.7237      46.7237 
   56000    90.154517    -11694.38   -10806.215    512.86646     102002.7      46.7237      46.7237      46.7237 
   57000     92.38643   -11678.755   -10768.603    599.17155     102002.7      46.7237      46.7237      46.7237 
   58000    89.136241   -11697.223   -10819.091    441.51039     102002.7      46.7237      46.7237      46.7237 
   59000    90.279339   -11703.831   -10814.437    255.40623     102002.7      46.7237      46.7237      46.7237 
   60000    93.556234   -11697.412   -10775.736    421.69106     102002.7      46.7237      46.7237      46.7237 
   61000    90.386584   -11696.984   -10806.534    567.14579     102002.7      46.7237      46.7237      46.7237 
   62000    90.128383   -11714.829   -10826.922     156.9616     102002.7      46.7237      46.7237      46.7237 
   63000    90.304019   -11726.014   -10836.377    253.23881     102002.7      46.7237      46.7237      46.7237 
   64000    91.443607   -11714.164     -10813.3     366.5683     102002.7      46.7237      46.7237      46.7237 
   65000    91.919183   -11685.018   -10779.469    234.16043     102002.7      46.7237      46.7237      46.7237 
   66000    91.712316   -11704.494   -10800.983     541.0479     102002.7      46.7237      46.7237      46.7237 
   67000    90.610559     -11691.3   -10798.643    270.66854     102002.7      46.7237      46.7237      46.7237 
   68000    90.063705   -11706.674   -10819.404    209.62684     102002.7      46.7237      46.7237      46.7237 
   69000    91.625422   -11703.547   -10800.892     401.5403     102002.7      46.7237      46.7237      46.7237 
   70000    91.025751    -11673.42   -10776.672    177.27107     102002.7      46.7237      46.7237      46.7237 
   71000    91.409126    -11709.79   -10809.266    297.53865     102002.7      46.7237      46.7237      46.7237 
   72000    92.471263   -11705.403   -10794.415    424.52647     102002.7      46.7237      46.7237      46.7237 
   73000     90.77765   -11705.987   -10811.684    509.57512     102002.7      46.7237      46.7237      46.7237 
   74000    90.997426   -11720.523   -10824.055    584.18128     102002.7      46.7237      46.7237      46.7237 
   75000    89.369699   -11715.446   -10835.013    452.99149     102002.7      46.7237      46.7237      46.7237 
   76000    89.870203   -11701.619   -10816.256    478.37107     102002.7      46.7237      46.7237      46.7237 
   77000    88.862472   -11698.632   -10823.196    32.150138     102002.7      46.7237      46.7237      46.7237 
   78000    93.129876   -11697.788   -10780.312    216.46756     102002.7      46.7237      46.7237      46.7237 
   79000    90.081475   -11693.485    -10806.04     415.7467     102002.7      46.7237      46.7237      46.7237 
   80000    92.380327   -11701.818   -10791.726    399.86611     102002.7      46.7237      46.7237      46.7237 
   81000    90.847433   -11712.515   -10817.524     321.4117     102002.7      46.7237      46.7237      46.7237 
   82000    91.508581   -11706.868   -10805.364    484.50075     102002.7      46.7237      46.7237      46.7237 
   83000    90.950029   -11719.129   -10823.128    322.05335     102002.7      46.7237      46.7237      46.7237 
   84000    88.893958   -11720.501   -10844.755    170.42064     102002.7      46.7237      46.7237      46.7237 
   85000    91.326894   -11721.611   -10821.897    407.39541     102002.7      46.7237      46.7237      46.7237 
   86000    90.058836   -11712.404   -10825.182    313.00662     102002.7      46.7237      46.7237      46.7237 
   87000    89.746659    -11701.22   -10817.074    559.90515     102002.7      46.7237      46.7237      46.7237 
   88000    92.021722   -11722.016   -10815.457    339.48683     102002.7      46.7237      46.7237      46.7237 
   89000    91.273552   -11715.868    -10816.68    47.837377     102002.7      46.7237      46.7237      46.7237 
   90000    90.433293    -11753.99    -10863.08    219.76368     102002.7      46.7237      46.7237      46.7237 
   91000    91.997522   -11704.274   -10797.954    238.76578     102002.7      46.7237      46.7237      46.7237 
   92000    89.660823   -11710.422   -10827.121      276.906     102002.7      46.7237      46.7237      46.7237 
   93000     93.65305   -11694.042   -10771.412    524.64206     102002.7      46.7237      46.7237      46.7237 
   94000    91.997754   -11729.173    -10822.85    402.09754     102002.7      46.7237      46.7237      46.7237 
   95000     90.42106   -11686.648   -10795.858    303.69884     102002.7      46.7237      46.7237      46.7237 
   96000    90.064457   -11737.581   -10850.304    290.26647     102002.7      46.7237      46.7237      46.7237 
   97000    90.917378   -11720.711   -10825.032    438.98347     102002.7      46.7237      46.7237      46.7237 
   98000    91.274289   -11707.467   -10808.271    615.99231     102002.7      46.7237      46.7237      46.7237 
   99000    90.288447   -11714.968   -10825.485    408.53479     102002.7      46.7237      46.7237      46.7237 
  100000    89.884686   -11701.368   -10815.862    255.61969     102002.7      46.7237      46.7237      46.7237 
  101000    91.860876   -11699.746   -10794.772    347.76987     102002.7      46.7237      46.7237      46.7237 
  102000    91.316683   -11705.684   -10806.071    421.96097     102002.7      46.7237      46.7237      46.7237 
  103000    92.385294   -11722.285   -10812.144    416.39966     102002.7      46.7237      46.7237      46.7237 
  104000    90.163876   -11729.208   -10840.952    316.71467     102002.7      46.7237      46.7237      46.7237 
  105000    91.308668   -11695.457   -10795.922    426.82873     102002.7      46.7237      46.7237      46.7237 
  106000    88.659016   -11692.693   -10819.262    361.05899     102002.7      46.7237      46.7237      46.7237 
  107000    89.492135   -11707.713   -10826.075    648.98588     102002.7      46.7237      46.7237      46.7237 
  108000    90.525669   -11725.494   -10833.673    398.74952     102002.7      46.7237      46.7237      46.7237 
  109000     91.85167   -11691.912   -10787.028    413.10403     102002.7      46.7237      46.7237      46.7237 
  110000    91.007608   -11701.616   -10805.047     477.6111     102002.7      46.7237      46.7237      46.7237 
  111000    91.803622   -11740.351    -10835.94    326.27659     102002.7      46.7237      46.7237      46.7237 
  112000    92.520677   -11717.053   -10805.578    561.25291     102002.7      46.7237      46.7237      46.7237 
  113000    89.688281   -11705.616   -10822.045    526.73315     102002.7      46.7237      46.7237      46.7237 
  114000    90.168341   -11705.314   -10817.013     312.7046     102002.7      46.7237      46.7237      46.7237 
  115000     91.12524   -11694.538   -10796.811    542.23546     102002.7      46.7237      46.7237      46.7237 
  116000      91.0561   -11720.359   -10823.312    585.48914     102002.7      46.7237      46.7237      46.7237 
  117000    89.895755   -11728.761   -10843.146    628.25119     102002.7      46.7237      46.7237      46.7237 
  118000    88.041193   -11716.567   -10849.223    396.55636     102002.7      46.7237      46.7237      46.7237 
  119000     90.23518   -11702.187   -10813.228    636.87104     102002.7      46.7237      46.7237      46.7237 
  120000    91.483252   -11727.935   -10826.681    435.03058     102002.7      46.7237      46.7237      46.7237 
  121000    90.286075   -11724.489   -10835.029    207.47735     102002.7      46.7237      46.7237      46.7237 
  122000    91.625739   -11724.332   -10821.674    371.40908     102002.7      46.7237      46.7237      46.7237 
  123000    92.297169   -11726.525   -10817.253    382.71811     102002.7      46.7237      46.7237      46.7237 
  124000    92.388361   -11699.093   -10788.922    375.03179     102002.7      46.7237      46.7237      46.7237 
  125000    91.469882   -11707.647   -10806.524    824.12821     102002.7      46.7237      46.7237      46.7237 
  126000    92.829196   -11722.055   -10807.541    195.29957     102002.7      46.7237      46.7237      46.7237 
  127000    91.623418   -11744.653   -10842.018     630.9287     102002.7      46.7237      46.7237      46.7237 
  128000    89.183537   -11731.094   -10852.495    637.45558     102002.7      46.7237      46.7237      46.7237 
  129000    89.986734   -11726.931    -10840.42    323.39237     102002.7      46.7237      46.7237      46.7237 
  130000    91.570312   -11700.903   -10798.791    878.05279     102002.7      46.7237      46.7237      46.7237 
  131000    93.061691    -11722.58   -10805.775    360.84354     102002.7      46.7237      46.7237      46.7237 
  132000    91.335831   -11702.059   -10802.257    466.88709     102002.7      46.7237      46.7237      46.7237 
  133000     92.78426   -11725.363   -10811.292    399.03759     102002.7      46.7237      46.7237      46.7237 
  134000    91.431705   -11696.778   -10796.031    358.88144     102002.7      46.7237      46.7237      46.7237 
  135000    91.427753   -11728.384   -10827.676    596.34064     102002.7      46.7237      46.7237      46.7237 
  136000    90.630561   -11708.579   -10815.725    662.37212     102002.7      46.7237      46.7237      46.7237 
  137000    93.659471   -11699.958   -10777.265    394.75643     102002.7      46.7237      46.7237      46.7237 
  138000    91.277901   -11713.611    -10814.38    97.488713     102002.7      46.7237      46.7237      46.7237 
  139000    91.474591   -11705.994   -10804.825    510.33812     102002.7      46.7237      46.7237      46.7237 
  140000    92.048271   -11714.354   -10807.533    568.44326     102002.7      46.7237      46.7237      46.7237 
  141000    92.502005   -11715.257   -10803.966    496.57114     102002.7      46.7237      46.7237      46.7237 
  142000    92.112494   -11707.215   -10799.762    554.77419     102002.7      46.7237      46.7237      46.7237 
  143000    91.064324   -11723.201   -10826.074    199.87635     102002.7      46.7237      46.7237      46.7237 
  144000    92.172834   -11723.011   -10814.963    242.60119     102002.7      46.7237      46.7237      46.7237 
  145000    88.978254   -11728.282   -10851.705    284.43136     102002.7      46.7237      46.7237      46.7237 
  146000    91.156596   -11721.541   -10823.505    289.94689     102002.7      46.7237      46.7237      46.7237 
  147000    91.399451   -11710.263   -10809.834    512.82498     102002.7      46.7237      46.7237      46.7237 
  148000    92.844475   -11726.539   -10811.875    616.80645     102002.7      46.7237      46.7237      46.7237 
  149000     92.27132   -11746.935   -10837.917    500.13871     102002.7      46.7237      46.7237      46.7237 
  150000    91.881525    -11718.46   -10813.282    328.06952     102002.7      46.7237      46.7237      46.7237 
  151000    90.990999   -11711.286   -10814.881     415.3655     102002.7      46.7237      46.7237      46.7237 
  152000    91.470793    -11698.66   -10797.529    618.89819     102002.7      46.7237      46.7237      46.7237 
  153000    90.804782   -11721.907   -10827.337    603.13383     102002.7      46.7237      46.7237      46.7237 
  154000    90.368725    -11731.28   -10841.006    307.03051     102002.7      46.7237      46.7237      46.7237 
  155000    91.656688   -11712.774   -10809.811    220.72633     102002.7      46.7237      46.7237      46.7237 
  156000    87.827544   -11728.298   -10863.058    226.99446     102002.7      46.7237      46.7237      46.7237 
  157000    90.865832    -11721.01   -10825.838    372.69728     102002.7      46.7237      46.7237      46.7237 
  158000    88.945584   -11710.743   -10834.488    549.09105     102002.7      46.7237      46.7237      46.7237 
  159000    94.300109   -11690.248   -10761.243    527.24472     102002.7      46.7237      46.7237      46.7237 
  160000    91.677928   -11738.291   -10835.119    265.35668     102002.7      46.7237      46.7237      46.7237 
  161000    90.129362    -11712.95   -10825.034    608.52009     102002.7      46.7237      46.7237      46.7237 
  162000    92.882881   -11725.888   -10810.845    106.27292     102002.7      46.7237      46.7237      46.7237 
  163000    92.172119   -11731.785   -10823.744    259.37167     102002.7      46.7237      46.7237      46.7237 
  164000    91.066183   -11729.284   -10832.138    381.25614     102002.7      46.7237      46.7237      46.7237 
  165000    89.605025   -11708.296   -10825.546    142.59503     102002.7      46.7237      46.7237      46.7237 
  166000    90.798503   -11724.782   -10830.273    326.49835     102002.7      46.7237      46.7237      46.7237 
  167000    91.076524   -11731.684   -10834.436    525.66185     102002.7      46.7237      46.7237      46.7237 
  168000    90.391434   -11714.135   -10823.637    243.73948     102002.7      46.7237      46.7237      46.7237 
  169000     88.34269   -11726.546   -10856.231    506.46984     102002.7      46.7237      46.7237      46.7237 
  170000    91.808639   -11734.192   -10829.732    525.13771     102002.7      46.7237      46.7237      46.7237 
  171000    91.345857   -11727.225   -10827.324    380.98125     102002.7      46.7237      46.7237      46.7237 
  172000    90.263445   -11721.991   -10832.753    302.87397     102002.7      46.7237      46.7237      46.7237 
  173000    93.445984   -11732.193   -10811.603    414.86286     102002.7      46.7237      46.7237      46.7237 
  174000    88.571686   -11719.051    -10846.48    479.22352     102002.7      46.7237      46.7237      46.7237 
  175000    91.746932   -11723.581   -10819.729    766.95475     102002.7      46.7237      46.7237      46.7237 
  176000    92.365334   -11721.525   -10811.581    392.79729     102002.7      46.7237      46.7237      46.7237 
  177000    91.522412   -11718.128   -10816.488    366.09378     102002.7      46.7237      46.7237      46.7237 
  178000    90.727899   -11724.119   -10830.306    155.46382     102002.7      46.7237      46.7237      46.7237 
  179000    92.502848    -11725.46   -10814.161    308.47852     102002.7      46.7237      46.7237      46.7237 
  180000    89.423408   -11725.724   -10844.762    242.87432     102002.7      46.7237      46.7237      46.7237 
  181000    91.423911   -11726.632   -10825.963    548.54249     102002.7      46.7237      46.7237      46.7237 
  182000    91.807584   -11702.212   -10797.762    714.83481     102002.7      46.7237      46.7237      46.7237 
  183000    91.444387   -11687.194   -10786.323    751.56083     102002.7      46.7237      46.7237      46.7237 
  184000    90.120141   -11724.069   -10836.244    483.02426     102002.7      46.7237      46.7237      46.7237 
  185000    93.843469   -11722.046    -10797.54    624.01873     102002.7      46.7237      46.7237      46.7237 
  186000    87.109407   -11730.651   -10872.486    430.86133     102002.7      46.7237      46.7237      46.7237 
  187000    91.518748   -11720.251   -10818.647     643.3446     102002.7      46.7237      46.7237      46.7237 
  188000    93.031667   -11722.873   -10806.364    444.21063     102002.7      46.7237      46.7237      46.7237 
  189000    90.550914   -11724.714   -10832.645     396.0477     102002.7      46.7237      46.7237      46.7237 
  190000    91.859907   -11718.702   -10813.737    267.45154     102002.7      46.7237      46.7237      46.7237 
  191000    91.041923   -11708.435   -10811.528    405.56241     102002.7      46.7237      46.7237      46.7237 
  192000    90.173816   -11718.493   -10830.139    485.45737     102002.7      46.7237      46.7237      46.7237 
  193000    90.864659   -11719.117   -10823.956     659.2708     102002.7      46.7237      46.7237      46.7237 
  194000    90.344254   -11741.236   -10851.203    446.27516     102002.7      46.7237      46.7237      46.7237 
  195000    88.831732    -11692.53   -10817.397    319.49047     102002.7      46.7237      46.7237      46.7237 
  196000    90.704852   -11718.137   -10824.551     478.2936     102002.7      46.7237      46.7237      46.7237 
  197000    90.537421    -11715.28   -10823.343    337.67291     102002.7      46.7237      46.7237      46.7237 
  198000     90.16687   -11709.321   -10821.035    551.97621     102002.7      46.7237      46.7237      46.7237 
  199000    91.104672   -11717.654   -10820.129    508.76868     102002.7      46.7237      46.7237      46.7237 
  200000    90.535398    -11742.58   -10850.664    385.63966     102002.7      46.7237      46.7237      46.7237 
  201000    92.127206   -11722.448   -10814.849     328.3745     102002.7      46.7237      46.7237      46.7237 
  202000    89.277787   -11704.399   -10824.872    344.62583     102002.7      46.7237      46.7237      46.7237 
  203000    89.740929   -11725.083   -10840.993    210.59173     102002.7      46.7237      46.7237      46.7237 
  204000    91.607699   -11722.899   -10820.418    468.65813     102002.7      46.7237      46.7237      46.7237 
  205000     91.07159   -11727.891   -10830.692    527.47995     102002.7      46.7237      46.7237      46.7237 
  206000    93.706754   -11736.185   -10813.026    502.20308     102002.7      46.7237      46.7237      46.7237 
  207000    91.528723   -11728.595   -10826.893    317.81469     102002.7      46.7237      46.7237      46.7237 
  208000     90.25939   -11723.895   -10834.698    508.62641     102002.7      46.7237      46.7237      46.7237 
  209000    89.172831   -11719.012   -10840.519    302.29692     102002.7      46.7237      46.7237      46.7237 
  210000     88.78589   -11742.386   -10867.705    392.45213     102002.7      46.7237      46.7237      46.7237 
  211000    92.184716   -11715.305    -10807.14    198.40352     102002.7      46.7237      46.7237      46.7237 
  212000    87.739535   -11740.877   -10876.504    262.23772     102002.7      46.7237      46.7237      46.7237 
  213000    91.799275   -11730.879   -10826.511     433.5074     102002.7      46.7237      46.7237      46.7237 
  214000    91.833601   -11708.355   -10803.649    430.38648     102002.7      46.7237      46.7237      46.7237 
  215000    90.582265   -11742.812   -10850.434    476.63949     102002.7      46.7237      46.7237      46.7237 
  216000     90.91343   -11714.752   -10819.112    423.41241     102002.7      46.7237      46.7237      46.7237 
  217000    88.417869   -11707.853   -10836.798    368.02682     102002.7      46.7237      46.7237      46.7237 
  218000    91.335529   -11724.109   -10824.309    325.10479     102002.7      46.7237      46.7237      46.7237 
  219000    90.709047   -11723.114   -10829.487    441.79291     102002.7      46.7237      46.7237      46.7237 
  220000    91.542225   -11735.829   -10833.994    302.05365     102002.7      46.7237      46.7237      46.7237 
  221000    91.744969   -11708.902   -10805.069    575.59649     102002.7      46.7237      46.7237      46.7237 
  222000    91.528396    -11715.11    -10813.41    658.64039     102002.7      46.7237      46.7237      46.7237 
  223000    89.510135   -11726.574   -10844.758     544.4079     102002.7      46.7237      46.7237      46.7237 
  224000    92.034152   -11714.812    -10808.13    441.63631     102002.7      46.7237      46.7237      46.7237 
  225000    91.792294   -11727.392   -10823.093    304.61649     102002.7      46.7237      46.7237      46.7237 
  226000     91.62066   -11728.501   -10825.893    599.86386     102002.7      46.7237      46.7237      46.7237 
  227000    91.104846    -11730.43   -10832.903    609.89524     102002.7      46.7237      46.7237      46.7237 
  228000    93.381189    -11709.44   -10789.488     262.6774     102002.7      46.7237      46.7237      46.7237 
  229000     91.08151   -11732.092   -10834.795    618.09926     102002.7      46.7237      46.7237      46.7237 
  230000    88.566164   -11728.391   -10855.875    256.24562     102002.7      46.7237      46.7237      46.7237 
  231000    90.025533   -11718.323   -10831.429    447.33939     102002.7      46.7237      46.7237      46.7237 
  232000    93.033049   -11735.386   -10818.863    467.71207     102002.7      46.7237      46.7237      46.7237 
  233000    90.261749   -11745.914   -10856.693    302.68935     102002.7      46.7237      46.7237      46.7237 
  234000     92.03107   -11733.456   -10826.805    600.49686     102002.7      46.7237      46.7237      46.7237 
  235000    91.472666   -11711.369   -10810.219    507.93423     102002.7      46.7237      46.7237      46.7237 
  236000    90.510305   -11735.557   -10843.887    443.07395     102002.7      46.7237      46.7237      46.7237 
  237000    89.996392   -11709.386   -10822.779    510.73015     102002.7      46.7237      46.7237      46.7237 
  238000    90.931294   -11726.106   -10830.289    624.02745     102002.7      46.7237      46.7237      46.7237 
  239000    89.705194   -11717.008   -10833.271    393.03609     102002.7      46.7237      46.7237      46.7237 
  240000    92.498923   -11708.967   -10797.707    692.27639     102002.7      46.7237      46.7237      46.7237 
  241000    90.705156    -11709.33   -10815.741    686.50876     102002.7      46.7237      46.7237      46.7237 
  242000    90.383078   -11712.942   -10822.526    437.87939     102002.7      46.7237      46.7237      46.7237 
  243000    91.637632   -11722.418   -10819.643    78.861998     102002.7      46.7237      46.7237      46.7237 
  244000    91.551838   -11716.034   -10814.104    345.83022     102002.7      46.7237      46.7237      46.7237 
  245000    90.424883   -11702.151   -10811.324    516.11586     102002.7      46.7237      46.7237      46.7237 
  246000    89.994356   -11722.145   -10835.559    185.53862     102002.7      46.7237      46.7237      46.7237 
  247000    92.470853     -11709.6   -10798.616    398.65834     102002.7      46.7237      46.7237      46.7237 
  248000    90.584036   -11732.195   -10839.799    481.09278     102002.7      46.7237      46.7237      46.7237 
  249000    91.355114   -11715.173   -10815.181    469.46417     102002.7      46.7237      46.7237      46.7237 
  250000    91.312337    -11718.53    -10818.96    646.30324     102002.7      46.7237      46.7237      46.7237 
  251000    90.468497   -11726.979   -10835.722    346.56896     102002.7      46.7237      46.7237      46.7237 
  252000    88.964503    -11721.21   -10844.769     358.1482     102002.7      46.7237      46.7237      46.7237 
  253000     93.00188   -11735.384   -10819.168    569.17802     102002.7      46.7237      46.7237      46.7237 
  254000    92.126159   -11727.031   -10819.443    570.01802     102002.7      46.7237      46.7237      46.7237 
  255000     92.00107   -11731.311   -10824.955    496.68487     102002.7      46.7237      46.7237      46.7237 
  256000    91.652914    -11732.63   -10829.704    682.84529     102002.7      46.7237      46.7237      46.7237 
  257000    91.653596   -11707.013   -10804.081    816.27055     102002.7      46.7237      46.7237      46.7237 
  258000     90.10976   -11718.056   -10830.332    359.89679     102002.7      46.7237      46.7237      46.7237 
  259000    90.612256   -11729.967   -10837.293    475.05157     102002.7      46.7237      46.7237      46.7237 
  260000    92.543773   -11729.902     -10818.2     354.5678     102002.7      46.7237      46.7237      46.7237 
  261000    91.315266   -11741.885   -10842.285    173.75444     102002.7      46.7237      46.7237      46.7237 
  262000    89.497404   -11724.101   -10842.411    419.16422     102002.7      46.7237      46.7237      46.7237 
  263000    90.442118   -11722.731   -10831.734    451.43556     102002.7      46.7237      46.7237      46.7237 
  264000    89.220824   -11692.341   -10813.375    379.01293     102002.7      46.7237      46.7237      46.7237 
  265000    92.503331    -11714.01   -10802.707    612.96458     102002.7      46.7237      46.7237      46.7237 
  266000    90.928477   -11725.129    -10829.34    547.93211     102002.7      46.7237      46.7237      46.7237 
  267000    91.955774   -11720.421   -10814.512    625.55034     102002.7      46.7237      46.7237      46.7237 
  268000    90.477298   -11719.667   -10828.323    412.04376     102002.7      46.7237      46.7237      46.7237 
  269000    90.176651   -11745.371   -10856.989    281.97969     102002.7      46.7237      46.7237      46.7237 
  270000    90.041927   -11704.976   -10817.921    449.36577     102002.7      46.7237      46.7237      46.7237 
  271000    92.945497   -11715.442   -10799.782     581.7831     102002.7      46.7237      46.7237      46.7237 
  272000    91.212188   -11724.097   -10825.513    471.96833     102002.7      46.7237      46.7237      46.7237 
  273000    91.166699   -11717.444   -10819.309    748.87284     102002.7      46.7237      46.7237      46.7237 
  274000    90.729443   -11724.251   -10830.423    474.18952     102002.7      46.7237      46.7237      46.7237 
  275000    91.124254     -11746.4   -10848.682    336.12053     102002.7      46.7237      46.7237      46.7237 
  276000    94.330834   -11727.548   -10798.241    452.78696     102002.7      46.7237      46.7237      46.7237 
  277000    92.861867   -11722.467   -10807.631    448.24272     102002.7      46.7237      46.7237      46.7237 
  278000    91.029655    -11722.41   -10825.625    520.18359     102002.7      46.7237      46.7237      46.7237 
  279000     90.78185   -11737.233   -10842.889    513.16003     102002.7      46.7237      46.7237      46.7237 
  280000    90.397182   -11730.061   -10839.506    364.20483     102002.7      46.7237      46.7237      46.7237 
  281000    91.787958   -11725.947   -10821.691    611.84189     102002.7      46.7237      46.7237      46.7237 
  282000    91.305882    -11717.99   -10818.483    340.85257     102002.7      46.7237      46.7237      46.7237 
  283000    91.223838   -11751.699   -10853.001    554.59556     102002.7      46.7237      46.7237      46.7237 
  284000    91.895562   -11748.013   -10842.697    534.52881     102002.7      46.7237      46.7237      46.7237 
  285000    92.653607   -11737.706   -10824.922    415.23845     102002.7      46.7237      46.7237      46.7237 
  286000    91.567694     -11740.5   -10838.414    526.44295     102002.7      46.7237      46.7237      46.7237 
  287000    90.566746   -11728.909   -10836.684    705.73267     102002.7      46.7237      46.7237      46.7237 
  288000    89.176025    -11724.69   -10846.166    414.74291     102002.7      46.7237      46.7237      46.7237 
  289000    90.212663   -11716.234   -10827.497    384.69505     102002.7      46.7237      46.7237      46.7237 
  290000      92.0436   -11715.352   -10808.578    583.19624     102002.7      46.7237      46.7237      46.7237 
  291000    91.964897   -11728.823   -10822.824    178.76389     102002.7      46.7237      46.7237      46.7237 
  292000    91.127403   -11731.848   -10834.099    357.42264     102002.7      46.7237      46.7237      46.7237 
  293000    92.112116   -11724.284   -10816.834    342.01712     102002.7      46.7237      46.7237      46.7237 
  294000    91.797914     -11718.1   -10813.746    435.60441     102002.7      46.7237      46.7237      46.7237 
  295000    94.633373   -11728.584   -10796.296    518.09173     102002.7      46.7237      46.7237      46.7237 
  296000    91.726247   -11735.438   -10831.789    480.27968     102002.7      46.7237      46.7237      46.7237 
  297000    92.363953   -11702.532   -10792.601     396.2781     102002.7      46.7237      46.7237      46.7237 
  298000    89.430504   -11721.011    -10839.98    423.60397     102002.7      46.7237      46.7237      46.7237 
  299000    91.349727   -11723.963   -10824.024    507.92763     102002.7      46.7237      46.7237      46.7237 
  300000    89.168023   -11722.872   -10844.427    340.72939     102002.7      46.7237      46.7237      46.7237 
  301000    92.055582   -11740.833   -10833.941    443.34403     102002.7      46.7237      46.7237      46.7237 
  302000     89.25361   -11702.581   -10823.292    594.98425     102002.7      46.7237      46.7237      46.7237 
  303000    93.113108   -11720.371    -10803.06    656.06816     102002.7      46.7237      46.7237      46.7237 
  304000    91.731571   -11735.956   -10832.256    552.20865     102002.7      46.7237      46.7237      46.7237 
  305000    92.853913   -11716.153   -10801.396    501.12978     102002.7      46.7237      46.7237      46.7237 
  306000    91.362174   -11721.951    -10821.89    213.94026     102002.7      46.7237      46.7237      46.7237 
  307000    88.570551   -11721.463   -10848.903    643.18752     102002.7      46.7237      46.7237      46.7237 
  308000    91.052396   -11713.707   -10816.698     271.9418     102002.7      46.7237      46.7237      46.7237 
  309000    92.837072   -11705.569   -10790.978    403.56639     102002.7      46.7237      46.7237      46.7237 
  310000    89.831154   -11724.029   -10839.051    464.51671     102002.7      46.7237      46.7237      46.7237 
  311000     89.88054   -11735.547   -10850.082    347.83431     102002.7      46.7237      46.7237      46.7237 
  312000    89.479439   -11709.679   -10828.165    440.78117     102002.7      46.7237      46.7237      46.7237 
  313000    91.611912   -11714.334   -10811.812    391.06289     102002.7      46.7237      46.7237      46.7237 
  314000    89.950416   -11725.015   -10838.861    519.76866     102002.7      46.7237      46.7237      46.7237 
  315000    89.962046   -11738.485   -10852.217    534.72871     102002.7      46.7237      46.7237      46.7237 
  316000    87.784761   -11710.388    -10845.57    690.31129     102002.7      46.7237      46.7237      46.7237 
  317000    90.717499   -11724.668   -10830.957    570.47418     102002.7      46.7237      46.7237      46.7237 
  318000    91.635594   -11724.003   -10821.248    457.18171     102002.7      46.7237      46.7237      46.7237 
  319000     91.37496   -11726.773   -10826.585     448.1949     102002.7      46.7237      46.7237      46.7237 
  320000    90.936458   -11713.578   -10817.711    287.33637     102002.7      46.7237      46.7237      46.7237 
  321000    92.251614   -11740.312   -10831.488    342.72971     102002.7      46.7237      46.7237      46.7237 
  322000    90.688439   -11739.844    -10846.42    517.43573     102002.7      46.7237      46.7237      46.7237 
  323000     90.01149   -11716.926   -10830.171    515.59776     102002.7      46.7237      46.7237      46.7237 
  324000    88.275897   -11727.608   -10857.951    514.31338     102002.7      46.7237      46.7237      46.7237 
  325000    91.722135    -11712.35   -10808.743    496.25867     102002.7      46.7237      46.7237      46.7237 
  326000    91.128469   -11713.414   -10815.655    829.38274     102002.7      46.7237      46.7237      46.7237 
  327000    89.808392   -11748.289   -10863.535    698.90167     102002.7      46.7237      46.7237      46.7237 
  328000    91.147745   -11736.396   -10838.447    742.17963     102002.7      46.7237      46.7237      46.7237 
  329000    90.076113   -11714.181   -10826.789    712.58295     102002.7      46.7237      46.7237      46.7237 
  330000    90.821063   -11717.232   -10822.502    363.60222     102002.7      46.7237      46.7237      46.7237 
  331000    91.826237   -11715.358   -10810.725     124.1264     102002.7      46.7237      46.7237      46.7237 
  332000    90.424404    -11717.42   -10826.597    369.51293     102002.7      46.7237      46.7237      46.7237 
  333000    89.547212    -11738.51   -10856.329    451.45598     102002.7      46.7237      46.7237      46.7237 
  334000    88.059713   -11724.547    -10857.02      460.884     102002.7      46.7237      46.7237      46.7237 
  335000    92.792756   -11715.324   -10801.169    592.25034     102002.7      46.7237      46.7237      46.7237 
  336000     91.26586   -11702.759   -10803.646    441.11404     102002.7      46.7237      46.7237      46.7237 
  337000    91.458215   -11737.157    -10836.15     444.8679     102002.7      46.7237      46.7237      46.7237 
  338000    93.466433   -11718.396   -10797.604    617.91335     102002.7      46.7237      46.7237      46.7237 
  339000    90.968463   -11725.614   -10829.431    282.29868     102002.7      46.7237      46.7237      46.7237 
  340000    92.188483     -11716.8   -10808.598    689.95696     102002.7      46.7237      46.7237      46.7237 
  341000    91.572488   -11724.213   -10822.079    550.16207     102002.7      46.7237      46.7237      46.7237 
  342000    89.478901   -11724.094   -10842.586    371.51892     102002.7      46.7237      46.7237      46.7237 
  343000    95.161394   -11730.844   -10793.354    725.20002     102002.7      46.7237      46.7237      46.7237 
  344000    90.997675   -11719.249   -10822.778    184.74598     102002.7      46.7237      46.7237      46.7237 
  345000    91.243049   -11725.444   -10826.556    535.61068     102002.7      46.7237      46.7237      46.7237 
  346000    90.167137   -11717.268    -10828.98    580.04431     102002.7      46.7237      46.7237      46.7237 
  347000    93.134944   -11696.741   -10779.214    396.09665     102002.7      46.7237      46.7237      46.7237 
  348000    91.374684   -11720.748   -10820.563    334.16844     102002.7      46.7237      46.7237      46.7237 
  349000     92.54779    -11719.73   -10807.988    417.81031     102002.7      46.7237      46.7237      46.7237 
  350000    89.873976   -11757.165   -10871.765    518.65241     102002.7      46.7237      46.7237      46.7237 
  351000     89.97147   -11744.133   -10857.772    424.82883     102002.7      46.7237      46.7237      46.7237 
  352000    89.119409    -11726.95   -10848.984    535.51134     102002.7      46.7237      46.7237      46.7237 
  353000    91.365358   -11723.622   -10823.529    535.57276     102002.7      46.7237      46.7237      46.7237 
  354000    90.012651    -11732.21   -10845.443    356.16255     102002.7      46.7237      46.7237      46.7237 
  355000    90.942872    -11720.11   -10824.179    571.82544     102002.7      46.7237      46.7237      46.7237 
  356000    92.552118   -11727.829   -10816.045    219.27576     102002.7      46.7237      46.7237      46.7237 
  357000    90.883977    -11721.79    -10826.44     469.0805     102002.7      46.7237      46.7237      46.7237 
  358000    90.512925   -11712.435   -10820.739     487.6005     102002.7      46.7237      46.7237      46.7237 
  359000    89.750634   -11726.171   -10841.986    281.18553     102002.7      46.7237      46.7237      46.7237 
  360000    90.062955   -11738.009   -10850.747    448.11955     102002.7      46.7237      46.7237      46.7237 
  361000    89.513597   -11728.353   -10846.503    332.65715     102002.7      46.7237      46.7237      46.7237 
  362000    90.156397   -11724.311   -10836.128    213.04469     102002.7      46.7237      46.7237      46.7237 
  363000    91.705371   -11718.537   -10815.094    697.78163     102002.7      46.7237      46.7237      46.7237 
  364000    90.066959   -11739.697   -10852.395     515.5789     102002.7      46.7237      46.7237      46.7237 
  365000    91.307352   -11738.764   -10839.243    401.04053     102002.7      46.7237      46.7237      46.7237 
  366000    90.992342   -11710.935   -10814.517     726.6274     102002.7      46.7237      46.7237      46.7237 
  367000    92.838152   -11711.658   -10797.056    532.45853     102002.7      46.7237      46.7237      46.7237 
  368000    91.283465   -11722.371   -10823.085    545.16819     102002.7      46.7237      46.7237      46.7237 
  369000    93.118661   -11743.615   -10826.249    653.78095     102002.7      46.7237      46.7237      46.7237 
  370000    90.046852   -11718.296   -10831.192    366.91543     102002.7      46.7237      46.7237      46.7237 
  371000    91.432472   -11728.261   -10827.507    342.53896     102002.7      46.7237      46.7237      46.7237 
  372000    90.241646   -11727.008   -10837.986    455.37857     102002.7      46.7237      46.7237      46.7237 
  373000    90.384896   -11723.786   -10833.352    504.13895     102002.7      46.7237      46.7237      46.7237 
  374000    90.728708   -11732.859   -10839.038    229.37532     102002.7      46.7237      46.7237      46.7237 
  375000    91.211095   -11724.711   -10826.138    353.04231     102002.7      46.7237      46.7237      46.7237 
  376000    92.274123   -11738.977   -10829.931    311.14696     102002.7      46.7237      46.7237      46.7237 
  377000    91.374958   -11737.642   -10837.455    345.99303     102002.7      46.7237      46.7237      46.7237 
  378000    91.333781   -11750.682     -10850.9    461.43098     102002.7      46.7237      46.7237      46.7237 
  379000    92.528951   -11731.588   -10820.032    280.68434     102002.7      46.7237      46.7237      46.7237 
  380000    90.914584   -11740.748   -10845.096     323.4893     102002.7      46.7237      46.7237      46.7237 
  381000    89.739693   -11744.207    -10860.13    523.90099     102002.7      46.7237      46.7237      46.7237 
  382000    90.183007   -11714.614   -10826.169    483.83959     102002.7      46.7237      46.7237      46.7237 
  383000    90.173015   -11751.747     -10863.4    154.31869     102002.7      46.7237      46.7237      46.7237 
  384000    91.298881   -11721.815   -10822.377    578.27016     102002.7      46.7237      46.7237      46.7237 
  385000    89.184848   -11703.499   -10824.888     557.3232     102002.7      46.7237      46.7237      46.7237 
  386000    91.533216   -11746.065   -10844.318     337.3125     102002.7      46.7237      46.7237      46.7237 
  387000    91.387459   -11695.174   -10794.864    567.89249     102002.7      46.7237      46.7237      46.7237 
  388000    91.346225   -11720.338   -10820.433    486.31786     102002.7      46.7237      46.7237      46.7237 
  389000    92.276216   -11732.949   -10823.883    390.03436     102002.7      46.7237      46.7237      46.7237 
  390000    91.975001   -11735.856   -10829.757     678.8937     102002.7      46.7237      46.7237      46.7237 
  391000    91.422967   -11718.094   -10817.434    842.86384     102002.7      46.7237      46.7237      46.7237 
  392000    91.695925   -11744.253   -10840.904    423.76235     102002.7      46.7237      46.7237      46.7237 
  393000    89.424303   -11747.657   -10866.686    370.14836     102002.7      46.7237      46.7237      46.7237 
  394000    90.433072   -11721.368   -10830.459    253.31036     102002.7      46.7237      46.7237      46.7237 
  395000    90.827256   -11731.686   -10836.894    357.98497     102002.7      46.7237      46.7237      46.7237 
  396000    90.755366   -11722.959   -10828.876    545.00347     102002.7      46.7237      46.7237      46.7237 
  397000    91.995198   -11707.794   -10801.496    322.49242     102002.7      46.7237      46.7237      46.7237 
  398000    90.053905   -11714.354   -10827.181    568.06744     102002.7      46.7237      46.7237      46.7237 
  399000    91.059162   -11716.341   -10819.265     641.6223     102002.7      46.7237      46.7237      46.7237 
  400000    90.854858   -11729.028   -10833.964    377.34998     102002.7      46.7237      46.7237      46.7237 
  401000    92.496622   -11716.469   -10805.232    636.47634     102002.7      46.7237      46.7237      46.7237 
  402000    88.128626   -11724.986    -10856.78    404.47213     102002.7      46.7237      46.7237      46.7237 
  403000     92.38631   -11724.026   -10813.875    449.12891     102002.7      46.7237      46.7237      46.7237 
  404000     92.47441   -11732.941   -10821.922    527.60944     102002.7      46.7237      46.7237      46.7237 
  405000    89.968032   -11749.123   -10862.796    457.00598     102002.7      46.7237      46.7237      46.7237 
  406000    90.998946    -11710.06   -10813.577    503.02906     102002.7      46.7237      46.7237      46.7237 
  407000    91.300658   -11724.996    -10825.54    326.09342     102002.7      46.7237      46.7237      46.7237 
  408000    91.317782   -11744.323   -10844.699    522.69587     102002.7      46.7237      46.7237      46.7237 
  409000    90.284133   -11726.897   -10837.456    356.62498     102002.7      46.7237      46.7237      46.7237 
  410000    91.517316   -11718.176   -10816.586    389.28139     102002.7      46.7237      46.7237      46.7237 
  411000    90.816645   -11727.379   -10832.692    333.62553     102002.7      46.7237      46.7237      46.7237 
  412000    93.903163   -11715.374    -10790.28    349.87295     102002.7      46.7237      46.7237      46.7237 
  413000    91.700477   -11712.829   -10809.435    349.23575     102002.7      46.7237      46.7237      46.7237 
  414000    90.384388   -11725.647   -10835.218    558.64894     102002.7      46.7237      46.7237      46.7237 
  415000     92.99056   -11726.754    -10810.65    456.99753     102002.7      46.7237      46.7237      46.7237 
  416000    88.726644   -11732.724   -10858.627    725.26889     102002.7      46.7237      46.7237      46.7237 
  417000    91.563346   -11728.754   -10826.711    548.58949     102002.7      46.7237      46.7237      46.7237 
  418000    89.149611   -11729.272   -10851.008    390.68393     102002.7      46.7237      46.7237      46.7237 
  419000    90.909815   -11727.406   -10831.801    589.69229     102002.7      46.7237      46.7237      46.7237 
  420000    92.159478   -11734.642   -10826.725    241.54867     102002.7      46.7237      46.7237      46.7237 
  421000    89.506329    -11730.35   -10848.571    173.16115     102002.7      46.7237      46.7237      46.7237 
  422000    91.157639   -11744.229   -10846.183    367.56347     102002.7      46.7237      46.7237      46.7237 
  423000    90.082476   -11730.314    -10842.86    530.24092     102002.7      46.7237      46.7237      46.7237 
  424000    89.975715   -11725.413    -10839.01    393.63934     102002.7      46.7237      46.7237      46.7237 
  425000    90.150925   -11718.966   -10830.837    468.03183     102002.7      46.7237      46.7237      46.7237 
  426000    91.170291   -11744.692    -10846.52    309.65603     102002.7      46.7237      46.7237      46.7237 
  427000    91.211729   -11726.258   -10827.679    160.60312     102002.7      46.7237      46.7237      46.7237 
  428000    90.921772    -11720.01   -10824.287    445.88172     102002.7      46.7237      46.7237      46.7237 
  429000    91.567175   -11739.699   -10837.618     476.2628     102002.7      46.7237      46.7237      46.7237 
  430000    89.940933     -11731.7    -10845.64     531.0798     102002.7      46.7237      46.7237      46.7237 
  431000    91.638214   -11725.381     -10822.6    378.05774     102002.7      46.7237      46.7237      46.7237 
  432000    91.659068   -11732.016   -10829.029    344.54631     102002.7      46.7237      46.7237      46.7237 
  433000    92.754326   -11748.141   -10834.364     378.1319     102002.7      46.7237      46.7237      46.7237 
  434000    92.117737   -11745.082   -10837.577    329.61962     102002.7      46.7237      46.7237      46.7237 
  435000    90.834063    -11744.83   -10849.971    323.92175     102002.7      46.7237      46.7237      46.7237 
  436000     93.75343   -11752.087   -10828.468     328.5129     102002.7      46.7237      46.7237      46.7237 
  437000    92.608796   -11705.051   -10792.708    617.11009     102002.7      46.7237      46.7237      46.7237 
  438000    92.098645   -11735.554   -10828.237    528.40032     102002.7      46.7237      46.7237      46.7237 
  439000    90.754174   -11732.475   -10838.403    544.11137     102002.7      46.7237      46.7237      46.7237 
  440000    91.820688   -11753.697   -10849.118    280.60634     102002.7      46.7237      46.7237      46.7237 
  441000    90.035353   -11716.926   -10829.935    538.23872     102002.7      46.7237      46.7237      46.7237 
  442000    92.359305    -11731.87   -10821.986    354.97573     102002.7      46.7237      46.7237      46.7237 
  443000    90.803317   -11728.999   -10834.443    327.57106     102002.7      46.7237      46.7237      46.7237 
  444000    92.683957   -11734.845   -10821.762    506.51825     102002.7      46.7237      46.7237      46.7237 
  445000    88.077544   -11724.019   -10856.316    320.67686     102002.7      46.7237      46.7237      46.7237 
  446000    88.807521   -11731.116   -10856.222    610.13483     102002.7      46.7237      46.7237      46.7237 
  447000    89.823313   -11710.066   -10825.165    540.04005     102002.7      46.7237      46.7237      46.7237 
  448000     88.91372   -11735.178   -10859.237    445.60082     102002.7      46.7237      46.7237      46.7237 
  449000    91.506722   -11727.958   -10826.472    608.19343     102002.7      46.7237      46.7237      46.7237 
  450000    90.907795   -11708.411   -10812.826    547.74579     102002.7      46.7237      46.7237      46.7237 
  451000    89.959543    -11743.51   -10857.266    114.87249     102002.7      46.7237      46.7237      46.7237 
  452000    90.995074   -11709.243   -10812.798    453.16179     102002.7      46.7237      46.7237      46.7237 
  453000    92.082431   -11735.008   -10827.851    600.92611     102002.7      46.7237      46.7237      46.7237 
  454000     88.69894   -11735.144   -10861.319    501.09769     102002.7      46.7237      46.7237      46.7237 
  455000    91.336244   -11721.321   -10821.515    592.77322     102002.7      46.7237      46.7237      46.7237 
  456000    89.541561   -11716.778   -10834.652    524.42372     102002.7      46.7237      46.7237      46.7237 
  457000    91.611096   -11730.779   -10828.265    456.70245     102002.7      46.7237      46.7237      46.7237 
  458000    91.339538    -11719.36   -10819.521    552.02598     102002.7      46.7237      46.7237      46.7237 
  459000    91.207867   -11711.128   -10812.586    649.74254     102002.7      46.7237      46.7237      46.7237 
  460000    92.086107    -11746.85   -10839.656    375.15962     102002.7      46.7237      46.7237      46.7237 
  461000    91.507204   -11728.566   -10827.075     345.8938     102002.7      46.7237      46.7237      46.7237 
  462000    90.571655   -11730.385   -10838.111    331.84016     102002.7      46.7237      46.7237      46.7237 
  463000    90.396039   -11750.501   -10859.958    655.71951     102002.7      46.7237      46.7237      46.7237 
  464000    91.886456   -11721.416   -10816.189    534.72855     102002.7      46.7237      46.7237      46.7237 
  465000    90.123402   -11720.065   -10832.208     292.2798     102002.7      46.7237      46.7237      46.7237 
  466000    89.643507   -11723.416   -10840.286    311.71738     102002.7      46.7237      46.7237      46.7237 
  467000    90.807883   -11728.898   -10834.297    657.97486     102002.7      46.7237      46.7237      46.7237 
  468000    91.923469   -11718.041    -10812.45    511.59346     102002.7      46.7237      46.7237      46.7237 
  469000    91.550284   -11723.822   -10821.907    705.68881     102002.7      46.7237      46.7237      46.7237 
  470000    92.579044   -11737.402   -10825.353    410.43695     102002.7      46.7237      46.7237      46.7237 
  471000    91.343509   -11722.431   -10822.554    429.95574     102002.7      46.7237      46.7237      46.7237 
  472000    90.883822   -11720.096   -10824.747    476.34694     102002.7      46.7237      46.7237      46.7237 
  473000    93.582337   -11722.771   -10800.838    720.07204     102002.7      46.7237      46.7237      46.7237 
  474000    91.974073   -11721.126   -10815.036    383.99846     102002.7      46.7237      46.7237      46.7237 
  475000    93.270647   -11736.417   -10817.554    531.66851     102002.7      46.7237      46.7237      46.7237 
  476000    89.561564   -11733.315   -10850.992    311.82459     102002.7      46.7237      46.7237      46.7237 
  477000    91.377161   -11713.085   -10812.875     351.5398     102002.7      46.7237      46.7237      46.7237 
  478000    92.262064    -11726.24   -10817.313       307.82     102002.7      46.7237      46.7237      46.7237 
  479000    92.027133   -11696.895   -10790.283    343.10703     102002.7      46.7237      46.7237      46.7237 
  480000    91.675135   -11710.701   -10807.557      594.104     102002.7      46.7237      46.7237      46.7237 
  481000    91.575491   -11744.163       -10842     342.0205     102002.7      46.7237      46.7237      46.7237 
  482000     89.89337   -11725.985   -10840.394    206.90258     102002.7      46.7237      46.7237      46.7237 
  483000    91.268931   -11747.717   -10848.574    373.26748     102002.7      46.7237      46.7237      46.7237 
  484000    92.332925   -11715.544   -10805.919    415.96248     102002.7      46.7237      46.7237      46.7237 
  485000    91.357334   -11733.838   -10833.824    246.30038     102002.7      46.7237      46.7237      46.7237 
  486000    94.630257    -11719.77   -10787.512    255.43232     102002.7      46.7237      46.7237      46.7237 
  487000    91.189735   -11722.302   -10823.939    510.05022     102002.7      46.7237      46.7237      46.7237 
  488000    91.066773   -11723.609   -10826.457    311.96956     102002.7      46.7237      46.7237      46.7237 
  489000    89.833115   -11725.756   -10840.758    705.83567     102002.7      46.7237      46.7237      46.7237 
  490000    90.725252   -11742.731   -10848.944    481.83271     102002.7      46.7237      46.7237      46.7237 
  491000     91.33793   -11715.279   -10815.457    408.62519     102002.7      46.7237      46.7237      46.7237 
  492000    90.352226   -11743.006   -10852.894    402.09029     102002.7      46.7237      46.7237      46.7237 
  493000    91.263324    -11736.68   -10837.592    483.53977     102002.7      46.7237      46.7237      46.7237 
  494000    92.034749   -11702.295   -10795.607    555.81571     102002.7      46.7237      46.7237      46.7237 
  495000    91.361441   -11722.465   -10822.411    743.40016     102002.7      46.7237      46.7237      46.7237 
  496000    88.922644   -11734.755   -10858.727    606.17954     102002.7      46.7237      46.7237      46.7237 
  497000    89.770942   -11720.074   -10835.689    263.16414     102002.7      46.7237      46.7237      46.7237 
  498000    91.378296   -11716.013   -10815.793    373.84454     102002.7      46.7237      46.7237      46.7237 
  499000    89.523832   -11723.249   -10841.298    343.12743     102002.7      46.7237      46.7237      46.7237 
  500000    90.523327   -11737.109   -10845.311    484.22382     102002.7      46.7237      46.7237      46.7237 
  500500    88.841739   -11749.152    -10873.92    326.11202     102002.7      46.7237      46.7237      46.7237 
Loop time of 1928.27 on 16 procs for 500000 steps with 3306 atoms

Performance: 22.403 ns/day, 1.071 hours/ns, 259.300 timesteps/s
99.8% CPU use with 16 MPI tasks x no OpenMP threads

MPI task timing breakdown:
Section |  min time  |  avg time  |  max time  |%varavg| %total
---------------------------------------------------------------
Pair    | 905.21     | 1211.4     | 1570.2     | 423.6 | 62.82
Bond    | 131.97     | 174.78     | 204.25     | 172.7 |  9.06
Neigh   | 14.828     | 14.873     | 14.906     |   0.6 |  0.77
Comm    | 124.87     | 509.27     | 855.79     | 701.3 | 26.41
Output  | 0.021403   | 0.021944   | 0.024998   |   0.5 |  0.00
Modify  | 9.4063     | 10.769     | 13.19      |  39.2 |  0.56
Other   |            | 7.198      |            |       |  0.37

Nlocal:    206.625 ave 231 max 164 min
Histogram: 1 1 1 0 1 3 2 1 3 3
Nghost:    4154.25 ave 4180 max 4121 min
Histogram: 1 2 3 0 1 1 0 1 3 4
Neighs:    11463.9 ave 16252 max 5742 min
Histogram: 1 0 0 3 5 0 4 0 0 3

Total # of neighbors = 183422
Ave neighs/atom = 55.4815
Ave special neighs/atom = 3.48457
Neighbor list builds = 4085
Dangerous builds = 0
Neighbor list info ...
  update every 1 steps, delay 10 steps, check yes
  max neighbors/atom: 2000, page size: 100000
  master list distance cutoff = 16
  ghost atom cutoff = 16
  binsize = 8, bins = 6 6 6
  3 neighbor lists, perpetual/occasional/extra = 3 0 0
  (1) pair buck6d/coul/gauss/dsf, perpetual, skip from (3)
      attributes: half, newton on
      pair build: skip
      stencil: none
      bin: none
  (2) pair lj/cut, perpetual, skip from (3)
      attributes: half, newton on
      pair build: skip
      stencil: none
      bin: none
  (3) neighbor class addition, perpetual
      attributes: half, newton on
      pair build: half/bin/newton
      stencil: half/bin/3d/newton
      bin: standard
Setting up Verlet run ...
  Unit style    : real
  Current step  : 500500
  Time step     : 1
WARNING: Inconsistent image flags (../domain.cpp:786)
Per MPI rank memory allocation (min/avg/max) = 22.67 | 23.16 | 23.45 Mbytes
Step Time TotEng KinEng PotEng E_mol E_pair Temp Pxx Pyy Pzz Pxy Pxz Pyz Cella Cellb Cellc CellAlpha CellBeta CellGamma Volume Press 
  500500       500000    -10873.92    875.23126   -11749.152    4134.4876   -15883.639    88.841739    294.82394    465.39945    218.11266   -190.32119   -46.504158    112.67583      46.7237      46.7237      46.7237           90           90           90     102002.7    326.11202 
  501000       500500   -10836.387    888.60036   -11724.987    4160.0923   -15885.079    90.198791    587.78602    565.35238    726.79457    97.058208   -20.631888     -65.2658      46.7237      46.7237      46.7237           90           90           90     102002.7    626.64433 
  502000       501500   -10839.593    897.88888   -11737.482    4151.0841   -15888.566    91.141637    174.08914    891.81483    3.9684911    21.141001   -102.81623   -124.19309      46.7237      46.7237      46.7237           90           90           90     102002.7    356.62415 
  503000       502500   -10840.234    887.86613     -11728.1    4136.3961   -15864.496    90.124263    419.50749    353.01395    430.16663    53.222687    60.416212    40.921957      46.7237      46.7237      46.7237           90           90           90     102002.7    400.89602 
  504000       503500   -10831.576    905.73404    -11737.31    4118.5418   -15855.852    91.937973    739.47327    747.50438    153.32857    18.190123    325.19297   -194.68125      46.7237      46.7237      46.7237           90           90           90     102002.7    546.76874 
  505000       504500   -10852.495    889.18287   -11741.678    4137.7177   -15879.395     90.25792    619.35788    329.83099    354.29114    78.053002   -9.4913894    210.71625      46.7237      46.7237      46.7237           90           90           90     102002.7    434.49334 
  506000       505500     -10832.5    891.83088    -11724.33    4142.5229   -15866.853    90.526711    802.89297    745.10706     455.7598   -35.307745    50.726342   -65.588751      46.7237      46.7237      46.7237           90           90           90     102002.7    667.91994 
  507000       506500    -10853.43    886.18504   -11739.616     4146.888   -15886.504     89.95362    648.99368    480.20393    285.39012   -161.89413   -76.244662   -177.56793      46.7237      46.7237      46.7237           90           90           90     102002.7    471.52924 
  508000       507500   -10828.665    903.63121   -11732.296    4152.8241    -15885.12    91.724522    122.73337    589.06966    5.8550001    71.221074   -94.658271   -50.601629      46.7237      46.7237      46.7237           90           90           90     102002.7    239.21934 
  509000       508500   -10851.129    904.78975   -11755.919    4126.2003   -15882.119    91.842121     256.7959    271.68145   -36.058411    283.62086    248.52921    183.79584      46.7237      46.7237      46.7237           90           90           90     102002.7    164.13965 
  510000       509500   -10825.735    915.57348   -11741.309    4124.4517   -15865.761    92.936741    421.52573    578.82794    508.56266    2.9601747   -139.65405   -75.670635      46.7237      46.7237      46.7237           90           90           90     102002.7    502.97211 
  511000       510500   -10826.206    904.55526   -11730.761    4120.3744   -15851.136    91.818319     631.9023    478.61352    387.91676    6.7964639    56.191048    7.9794438      46.7237      46.7237      46.7237           90           90           90     102002.7    499.47753 
  512000       511500   -10831.856    893.91756   -11725.774    4156.4549   -15882.229    90.738523    810.31811    682.92974    470.16959   -288.12649     119.9186   -66.355969      46.7237      46.7237      46.7237           90           90           90     102002.7    654.47248 
  513000       512500   -10875.251    877.52508   -11752.776     4139.124     -15891.9    89.074578    287.05144    462.12509    149.35254    247.32066    156.35115    55.509868      46.7237      46.7237      46.7237           90           90           90     102002.7    299.50969 
  514000       513500   -10837.272    898.27605   -11735.548    4143.5912   -15879.139    91.180938    273.77777    322.76148     171.2121    40.153255     152.8499    56.033439      46.7237      46.7237      46.7237           90           90           90     102002.7    255.91712 
  515000       514500   -10850.799     895.3868   -11746.186    4151.5658   -15897.751     90.88766    151.23188    642.95439    528.80882    274.38454   -166.86929    133.64042      46.7237      46.7237      46.7237           90           90           90     102002.7    440.99836 
  516000       515500   -10818.621    902.71841   -11721.339     4145.087   -15866.426    91.631867    44.032854    396.71848    710.96797    33.106315    372.58836    50.144183      46.7237      46.7237      46.7237           90           90           90     102002.7    383.90644 
  517000       516500   -10839.237    898.02232   -11737.259    4171.2253   -15908.485    91.155183    225.28274    338.62714    389.85044    248.69865    123.09206   -15.487201      46.7237      46.7237      46.7237           90           90           90     102002.7    317.92011 
  518000       517500   -10833.882    903.92233   -11737.804    4139.5448   -15877.349    91.754072    257.17113    921.56794    206.83338    103.11792   -42.701194   -55.923467      46.7237      46.7237      46.7237           90           90           90     102002.7    461.85749 
  519000       518500   -10850.086    873.60098   -11723.687    4147.6117   -15871.298    88.676256    629.74043    942.61337    217.74613    82.082264   -111.05495    223.33594      46.7237      46.7237      46.7237           90           90           90     102002.7    596.69997 
  520000       519500   -10814.819    889.29797   -11704.117    4168.9009   -15873.017    90.269604    586.11567    478.85516    618.45455    -30.60203    269.45773   -9.0521416      46.7237      46.7237      46.7237           90           90           90     102002.7    561.14179 
  521000       520500   -10825.499    891.05619   -11716.555    4142.4718   -15859.027    90.448074     389.1057    617.62242    407.72644   -4.2485779    1.0513105   -47.301909      46.7237      46.7237      46.7237           90           90           90     102002.7    471.48486 
  522000       521500   -10848.105    898.93045   -11747.035    4144.5014   -15891.536    91.247364    671.91916    425.76675     316.4944   -154.63001    207.26978    67.153918      46.7237      46.7237      46.7237           90           90           90     102002.7    471.39344 
  523000       522500   -10854.979    887.40264   -11742.382    4136.5026   -15878.885    90.077215    684.97291    566.22627    723.96666     95.57351    25.940618    20.815344      46.7237      46.7237      46.7237           90           90           90     102002.7    658.38861 
  524000       523500   -10835.041    897.97871   -11733.019    4150.4471   -15883.466    91.150756    573.38612     1058.991    -91.84841   -84.953873   -146.52989   -61.834005      46.7237      46.7237      46.7237           90           90           90     102002.7    513.50956 
  525000       524500   -10867.609    880.81504   -11748.424    4156.2367    -15904.66     89.40853    121.56628    248.83694    336.16472   -127.69601   -24.941503     14.27063      46.7237      46.7237      46.7237           90           90           90     102002.7    235.52265 
  526000       525500   -10824.297    899.96436   -11724.262    4141.4578   -15865.719    91.352312    425.03744    832.25211    238.93081    78.721465    41.532691   -123.94336      46.7237      46.7237      46.7237           90           90           90     102002.7    498.74012 
  527000       526500   -10873.522    872.32974   -11745.852    4142.4059   -15888.258    88.547216    701.13482    467.34499    101.85798    57.708344   -147.55942    36.324478      46.7237      46.7237      46.7237           90           90           90     102002.7    423.44593 
  528000       527500   -10830.102    902.12096   -11732.223    4141.3257   -15873.548    91.571221    428.46249    90.449114    224.53984   -87.437881   -165.69721    254.24793      46.7237      46.7237      46.7237           90           90           90     102002.7    247.81715 
  529000       528500    -10803.65    911.51353   -11715.164    4158.6321   -15873.796    92.524629    278.68205    769.18616    594.90846    174.67164    256.61246   -220.90552      46.7237      46.7237      46.7237           90           90           90     102002.7    547.59222 
  530000       529500   -10860.611    893.24494   -11753.856    4138.9578   -15892.814    90.670247    663.76624    166.62506    247.04439    130.63879    53.249699    -149.4885      46.7237      46.7237      46.7237           90           90           90     102002.7    359.14523 
  531000       530500   -10821.369     911.4647   -11732.834    4134.2006   -15867.035    92.519673    496.68378     779.2222    479.48888     253.0845    9.1103082   -167.12171      46.7237      46.7237      46.7237           90           90           90     102002.7    585.13162 
  532000       531500   -10889.177    871.06291    -11760.24    4121.3991   -15881.639    88.418625    136.04473    440.42678    166.31626    161.03037    69.822327    -124.2937      46.7237      46.7237      46.7237           90           90           90     102002.7    247.59592 
  533000       532500   -10817.171    909.85727   -11727.028    4155.5946   -15882.623    92.356508    732.01516    509.31074    422.41298   -45.501762    29.106516    66.644761      46.7237      46.7237      46.7237           90           90           90     102002.7    554.57962 
  534000       533500   -10809.803    928.86812   -11738.671    4144.0031   -15882.675    94.286235     164.7415    417.60528    537.86759   -204.47312    101.36709   -122.00021      46.7237      46.7237      46.7237           90           90           90     102002.7    373.40479 
  535000       534500   -10819.915    904.82941   -11724.744    4160.9374   -15885.682    91.846147    500.20142    689.96096    66.968296    154.04155    179.03938    60.041956      46.7237      46.7237      46.7237           90           90           90     102002.7    419.04356 
  536000       535500    -10816.87    878.52282   -11695.393    4150.3483   -15845.741    89.175855    836.08838    608.85475    526.00538    224.75897    120.67706    5.2706995      46.7237      46.7237      46.7237           90           90           90     102002.7    656.98283 
  537000       536500   -10833.608    911.75734   -11745.366    4155.8304   -15901.196    92.549377    544.92875    689.14525   -26.781954    268.65395    83.628824   -65.952898      46.7237      46.7237      46.7237           90           90           90     102002.7    402.43068 
  538000       537500   -10856.891     900.2062   -11757.097    4143.4612   -15900.558     91.37686    712.19014    464.45519    236.95782    6.6512613    181.06753   -82.424681      46.7237      46.7237      46.7237           90           90           90     102002.7    471.20105 
  539000       538500   -10850.078    890.94325   -11741.021    4148.8196   -15889.841    90.436611    799.72127     514.4482    128.48853    198.48527   -38.452738   -135.93499      46.7237      46.7237      46.7237           90           90           90     102002.7      480.886 
  540000       539500   -10784.916     924.2318   -11709.148    4147.7654   -15856.913    93.815618    219.12738     709.0952    378.41418   -17.331238    71.455977   -164.63388      46.7237      46.7237      46.7237           90           90           90     102002.7    435.54559 
  541000       540500   -10855.498    894.95515   -11750.453    4132.3573    -15882.81    90.843844    155.01901     235.6324     498.7614   -160.50799    -105.9824   -268.40516      46.7237      46.7237      46.7237           90           90           90     102002.7    296.47094 
  542000       541500   -10839.563    914.65581   -11754.219    4128.8331   -15883.052    92.843591    711.31275    283.74667   -80.686037    106.74422   -139.43138    -13.08737      46.7237      46.7237      46.7237           90           90           90     102002.7    304.79113 
  543000       542500   -10859.087    885.54818   -11744.635    4148.7603   -15893.395    89.888976    461.93746    419.65664    249.27093    -50.52038   -92.076264   -144.06901      46.7237      46.7237      46.7237           90           90           90     102002.7    376.95501 
  544000       543500   -10825.813      899.515   -11725.328    4151.9206   -15877.249      91.3067    857.33819    285.54009    329.60468   -141.19265      304.021     282.4298      46.7237      46.7237      46.7237           90           90           90     102002.7    490.82765 
  545000       544500   -10855.737    890.75117   -11746.488    4121.2578   -15867.746    90.417113    749.47627    603.26468    787.60167     145.8593    24.195696    65.393505      46.7237      46.7237      46.7237           90           90           90     102002.7    713.44754 
  546000       545500    -10810.24    916.44697   -11726.687    4146.1683   -15872.855    93.025406    339.47891    284.26895    435.36625    73.940417    10.013735   -60.817248      46.7237      46.7237      46.7237           90           90           90     102002.7    353.03804 
  547000       546500   -10833.646    898.62216   -11732.268    4136.7869   -15869.055     91.21607     305.6204    655.38993    288.17055     106.9039   -215.15608    181.33268      46.7237      46.7237      46.7237           90           90           90     102002.7    416.39363 
  548000       547500   -10820.634    899.51592    -11720.15    4146.0358   -15866.186    91.306792    697.44635     480.7735    185.91072    71.460221   -75.585213   -264.23038      46.7237      46.7237      46.7237           90           90           90     102002.7    454.71019 
  549000       548500    -10838.11    895.50982    -11733.62    4151.6917   -15885.312    90.900147     524.1997   -183.81681     5.279496    93.730309   -71.255567    135.98967      46.7237      46.7237      46.7237           90           90           90     102002.7     115.2208 
  550000       549500   -10801.937    910.43934   -11712.376     4160.678   -15873.054    92.415592    166.40106     365.2684    273.00654    211.85471    83.906371   -50.564925      46.7237      46.7237      46.7237           90           90           90     102002.7    268.22533 
  551000       550500   -10824.436    895.91209   -11720.348    4155.0391   -15875.388     90.94098    501.92375    466.04233   -108.22755   -195.05697   -141.38622    66.107264      46.7237      46.7237      46.7237           90           90           90     102002.7    286.57951 
  552000       551500   -10828.464    907.04638    -11735.51    4125.2535   -15860.764    92.071184    568.51566    306.40734    252.78977   -81.914959   -197.68534    196.73534      46.7237      46.7237      46.7237           90           90           90     102002.7    375.90426 
  553000       552500   -10826.593    894.46992   -11721.063    4164.4567    -15885.52    90.794591    320.94287    860.65672    306.60843   -20.212869   -158.84309   -87.856517      46.7237      46.7237      46.7237           90           90           90     102002.7    496.06934 
  554000       553500   -10852.195    881.36213   -11733.557     4145.812   -15879.369    89.464063    608.80837    374.19764    246.76844    89.080785     199.5622   -6.3245538      46.7237      46.7237      46.7237           90           90           90     102002.7    409.92482 
  555000       554500     -10813.6    897.50454   -11711.105    4139.3342   -15850.439    91.102625    474.78819    699.75299    377.56221   -41.964253    128.90802   -52.196017      46.7237      46.7237      46.7237           90           90           90     102002.7     517.3678 
[...]
  936000       935500   -10844.637    889.20529   -11733.842    4140.2321   -15874.074    90.260196    318.02761     584.4836    70.885407  -0.34392481    182.26731   -45.392595      46.7237      46.7237      46.7237           90           90           90     102002.7    324.46554 
  937000       936500    -10814.95    891.71949   -11706.669    4154.8663   -15861.536    90.515403    522.94366    937.41062    590.46754    184.16837   -50.770132    11.473026      46.7237      46.7237      46.7237           90           90           90     102002.7    683.60727 
  938000       937500   -10829.421    897.11991   -11726.541    4143.4545   -15869.996    91.063582    268.87806    270.85171    32.178611    16.414113    226.07899    50.467833      46.7237      46.7237      46.7237           90           90           90     102002.7    190.63613 
  939000       938500   -10842.013    872.77214   -11714.785    4132.2935   -15847.079    88.592123    603.98491    522.28249    393.58832     77.46313    16.428813    74.095904      46.7237      46.7237      46.7237           90           90           90     102002.7    506.61857 
  940000       939500   -10817.754    885.23458   -11702.988     4151.715   -15854.703    89.857143      200.127    1062.1291    546.53327    78.712284    86.149841   -250.74373      46.7237      46.7237      46.7237           90           90           90     102002.7    602.92978 
  941000       940500   -10830.568    882.02854   -11712.597    4153.4187   -15866.015    89.531708     512.7654    707.69124    483.66586    -112.3816    362.41083     52.06904      46.7237      46.7237      46.7237           90           90           90     102002.7    568.04083 
  942000       941500   -10821.443     893.5091   -11714.952    4156.1362   -15871.088    90.697061     100.7325    390.85675   -11.722216   -83.958148    201.73106    -108.5374      46.7237      46.7237      46.7237           90           90           90     102002.7    159.95568 
  943000       942500    -10831.81    909.25622   -11741.066     4145.042   -15886.108    92.295497    258.65843    403.15767    491.58626    354.97417     2.577104    409.01008      46.7237      46.7237      46.7237           90           90           90     102002.7    384.46745 
  944000       943500   -10798.089    927.74997   -11725.839    4136.5112    -15862.35    94.172735    307.61037    693.20295    444.25625    176.83192   -321.01168    73.956453      46.7237      46.7237      46.7237           90           90           90     102002.7    481.68986 
  945000       944500   -10845.648    879.89093   -11725.539    4131.4317    -15856.97    89.314727    179.16152    722.87368    423.91564    47.479342   -225.52792    143.78845      46.7237      46.7237      46.7237           90           90           90     102002.7    441.98361 
  946000       945500   -10837.151     887.2641   -11724.415    4134.2938   -15858.709    90.063152    566.36214    441.73987    289.34558    5.7617616     61.22549    28.334318      46.7237      46.7237      46.7237           90           90           90     102002.7    432.48253 
  947000       946500   -10827.955    909.07894   -11737.034    4148.0788   -15885.113    92.277503    169.22534    811.31802    442.04013    33.858307    154.13105    99.014903      46.7237      46.7237      46.7237           90           90           90     102002.7     474.1945 
  948000       947500   -10815.462    900.30739   -11715.769    4143.8172   -15859.586    91.387133    595.79154    755.97921    359.30485    85.362229   -161.56988    10.888612      46.7237      46.7237      46.7237           90           90           90     102002.7    570.35853 
  949000       948500   -10830.026    888.09082   -11718.117    4152.1716   -15870.289     90.14707    312.74146    484.56414    417.65975   -90.240522   -109.70242   -20.266996      46.7237      46.7237      46.7237           90           90           90     102002.7    404.98845 
  950000       949500   -10798.005    916.68115   -11714.686    4143.4713   -15858.158    93.049177    412.85718    764.18478    309.64702    255.94706   -127.14856     41.00634      46.7237      46.7237      46.7237           90           90           90     102002.7    495.56299 
  951000       950500    -10847.13    891.62455   -11738.755     4119.569   -15858.324    90.505767    559.56031    369.81749    366.35395   -111.18472   -98.255343    33.115011      46.7237      46.7237      46.7237           90           90           90     102002.7    431.91058 
  952000       951500   -10820.694    886.61144   -11707.305    4142.3094   -15849.615    89.996903    648.42203    781.81187    619.06003    42.050792   -193.07459   -16.516509      46.7237      46.7237      46.7237           90           90           90     102002.7    683.09798 
  953000       952500   -10822.203    900.49556   -11722.698    4150.3738   -15873.072    91.406233    1013.4288    514.23022     925.1816    170.17005   -53.450384   -88.735032      46.7237      46.7237      46.7237           90           90           90     102002.7    817.61355 
  954000       953500   -10806.861    903.10953    -11709.97    4153.6997    -15863.67    91.671568     545.0759    973.63961     290.1046    443.00897   -74.446755   -335.35629      46.7237      46.7237      46.7237           90           90           90     102002.7    602.94004 
  955000       954500   -10830.203    916.43636   -11746.639    4148.4183   -15895.058    93.024329    303.60143    563.72776    638.68264   -40.751125   -27.097672     113.1981      46.7237      46.7237      46.7237           90           90           90     102002.7    502.00394 
  956000       955500   -10826.598    896.28523   -11722.883     4142.038   -15864.921    90.978856     415.1146    780.69927    564.41271   -208.94033    59.071354    48.494068      46.7237      46.7237      46.7237           90           90           90     102002.7    586.74219 
  957000       956500   -10799.439    925.76498   -11725.204    4135.3029   -15860.507    93.971245    931.51034    583.30658    692.37639    236.33983    53.976582    137.68368      46.7237      46.7237      46.7237           90           90           90     102002.7     735.7311 
  958000       957500   -10834.943    891.41524   -11726.358     4141.074   -15867.432    90.484521    534.85433    705.65275    467.84633    151.68776    48.232653   -78.222941      46.7237      46.7237      46.7237           90           90           90     102002.7    569.45114 
  959000       958500   -10813.709    898.83711   -11712.546    4140.7164   -15853.263    91.237889    651.26641    62.779903    222.73888      177.972   -60.553286      -11.061      46.7237      46.7237      46.7237           90           90           90     102002.7    312.26173 
  960000       959500   -10833.713    890.34997   -11724.063    4149.0085   -15873.072    90.376389     663.4926    90.467209    149.02717   -54.096267    210.74656   -314.94875      46.7237      46.7237      46.7237           90           90           90     102002.7    300.99566 
  961000       960500    -10811.98    900.17582   -11712.156    4153.1761   -15865.332    91.373777    469.86389    1243.3223    376.81363    9.0196422    263.21484    123.22183      46.7237      46.7237      46.7237           90           90           90     102002.7    696.66662 
  962000       961500   -10833.201    902.60328   -11735.804    4133.6124   -15869.416     91.62018    343.34643    77.101356    381.32163   -101.22681    293.62117    20.727539      46.7237      46.7237      46.7237           90           90           90     102002.7    267.25647 
  963000       962500   -10813.092    898.97606   -11712.068    4148.2025    -15860.27    91.251993   -27.269927    669.38827    76.546808     78.69269   -64.695298   -94.686923      46.7237      46.7237      46.7237           90           90           90     102002.7    239.55505 
  964000       963500   -10819.478    899.46937   -11718.947    4145.4518   -15864.399    91.302068    365.62257    596.13936    166.71048   -124.89767   -165.41821   -54.006942      46.7237      46.7237      46.7237           90           90           90     102002.7    376.15747 
  965000       964500   -10817.032    900.14256   -11717.175     4146.872   -15864.047    91.370401    599.34698    675.04153   -27.980426    206.93714   -7.1850131    30.735411      46.7237      46.7237      46.7237           90           90           90     102002.7    415.46936 
  966000       965500   -10823.382     924.1163   -11747.498    4123.1403   -15870.638    93.803894    428.63577    484.28852    245.53004   -14.989488    165.63166    106.53148      46.7237      46.7237      46.7237           90           90           90     102002.7    386.15144 
  967000       966500   -10800.221    911.89812   -11712.119     4158.224   -15870.343    92.563667    313.97546    251.59109    435.91713    167.20415   -129.92213    114.42405      46.7237      46.7237      46.7237           90           90           90     102002.7    333.82789 
  968000       967500   -10824.232    900.27637   -11724.509    4124.0549   -15848.564    91.383984    262.08247    299.08892     182.3625    174.45885   -102.96095   -54.274059      46.7237      46.7237      46.7237           90           90           90     102002.7    247.84463 
  969000       968500   -10839.521     897.5535   -11737.074    4136.4072   -15873.482    91.107594     835.3524    115.35647    274.23263   -138.39409   -157.41672    6.3565564      46.7237      46.7237      46.7237           90           90           90     102002.7    408.31384 
  970000       969500   -10809.115    894.31664   -11703.431    4149.5852   -15853.016    90.779032    537.64551    500.64253    701.35785    65.202413   -109.87563    118.92937      46.7237      46.7237      46.7237           90           90           90     102002.7    579.88196 
  971000       970500   -10844.511    901.78275   -11746.294    4112.9059     -15859.2    91.536891    229.79461    650.65139    629.33476   -70.750337   -178.92534    188.96298      46.7237      46.7237      46.7237           90           90           90     102002.7    503.26025 
  972000       971500   -10796.566    920.53647   -11717.102    4145.0396   -15862.142    93.440517    530.60229    575.71447    290.33407     58.58837   -55.563052    7.2382057      46.7237      46.7237      46.7237           90           90           90     102002.7    465.55028 
  973000       972500   -10831.047    896.78171   -11727.829    4138.1762   -15866.005    91.029252    218.41965    653.28354    500.12713   -106.79382   -75.920489   -34.514333      46.7237      46.7237      46.7237           90           90           90     102002.7    457.27677 
  974000       973500   -10812.561    908.47881   -11721.039    4152.1364   -15873.176    92.216586    360.20759    666.11315    138.01087    41.127565    161.16016   -39.195439      46.7237      46.7237      46.7237           90           90           90     102002.7    388.11054 
  975000       974500   -10793.225    919.71089   -11712.936    4152.7073   -15865.643    93.356715    171.61022    590.10414    380.40841    78.336315    127.48291   -111.73258      46.7237      46.7237      46.7237           90           90           90     102002.7    380.70759 
  976000       975500   -10822.755    897.28874   -11720.044    4143.2513   -15863.295     91.08072    393.82708    281.61169    109.28593    289.96431   -122.56649    72.878862      46.7237      46.7237      46.7237           90           90           90     102002.7     261.5749 
  977000       976500   -10841.809    886.51513   -11728.324    4142.3347   -15870.659    89.987127    552.25497    456.93561     188.9734   -68.382244     6.394657   -69.606998      46.7237      46.7237      46.7237           90           90           90     102002.7    399.38799 
  978000       977500   -10823.568    894.61024   -11718.179    4159.7285   -15877.907    90.808834    713.48553    989.10174    298.69697   -87.430482    4.6844113    30.630512      46.7237      46.7237      46.7237           90           90           90     102002.7    667.09474 
  979000       978500   -10828.401    899.42229   -11727.823    4147.1355   -15874.959    91.297289    459.99965    -62.05102    610.14368   -32.175421    21.502087    36.551209      46.7237      46.7237      46.7237           90           90           90     102002.7    336.03077 
  980000       979500   -10832.794    891.72843   -11724.522    4146.6966   -15871.219    90.516311    949.52252    576.06726    648.36768    70.280235    47.097568   -37.890383      46.7237      46.7237      46.7237           90           90           90     102002.7    724.65249 
  981000       980500   -10811.644     907.0333   -11718.677    4155.0699   -15873.747    92.069857    882.11509    568.43753     438.9163   -64.629468   -12.742533   -111.26837      46.7237      46.7237      46.7237           90           90           90     102002.7    629.82297 
  982000       981500   -10807.251    904.44183   -11711.693    4130.7466    -15842.44    91.806805     884.2951      779.481    993.87085    182.86979    147.68926   -107.12471      46.7237      46.7237      46.7237           90           90           90     102002.7    885.88232 
  983000       982500   -10834.122    898.88245   -11733.005    4141.2384   -15874.243    91.242491    601.16963     468.0911    510.33894   -141.35937   -105.67551    51.754117      46.7237      46.7237      46.7237           90           90           90     102002.7    526.53322 
  984000       983500   -10803.109    907.56733   -11710.676    4158.8891   -15869.565    92.124064    189.24549    249.71266    144.42915    242.88865    99.344701    280.92191      46.7237      46.7237      46.7237           90           90           90     102002.7    194.46243 
  985000       984500   -10845.493    895.47027   -11740.964    4145.9539   -15886.918    90.896133     337.2383   -82.151728    360.78465   -85.991878    106.71399    158.57975      46.7237      46.7237      46.7237           90           90           90     102002.7    205.29041 
  986000       985500   -10828.212    897.72509   -11725.937    4140.4412   -15866.378    91.125012    710.57202    606.30186    206.40393    69.080376    -62.74949    -62.65495      46.7237      46.7237      46.7237           90           90           90     102002.7    507.75927 
  987000       986500   -10841.803     873.7253   -11715.528    4142.4592   -15857.987    88.688875    370.43965    297.23229    424.14251   -267.34236    5.7720201   -82.699582      46.7237      46.7237      46.7237           90           90           90     102002.7    363.93815 
  988000       987500   -10809.624    908.65866   -11718.283    4147.3012   -15865.584    92.234841    157.59612    180.19085    75.973458   -103.19714   -63.042972   -114.84332      46.7237      46.7237      46.7237           90           90           90     102002.7    137.92014 
  989000       988500   -10850.325    878.87056   -11729.195    4142.1383   -15871.334    89.211152    323.04636    842.58816    608.10764   -110.12209    -129.5675   -112.65132      46.7237      46.7237      46.7237           90           90           90     102002.7    591.24739 
  990000       989500   -10816.322    911.06209   -11727.384    4144.0919   -15871.476    92.478805    182.31966    797.43435    638.31271   -171.48042    1.3470865    40.588969      46.7237      46.7237      46.7237           90           90           90     102002.7    539.35557 
  991000       990500   -10827.268    887.21286   -11714.481    4136.7211   -15851.202    90.057951     180.2835    504.02664    537.45386   -101.05999   -156.52066   -243.36991      46.7237      46.7237      46.7237           90           90           90     102002.7    407.25467 
  992000       991500   -10837.273    892.09178   -11729.365    4130.2961   -15859.661    90.553194    423.79207    590.89183    321.56153   -39.679056    126.97451   -15.139709      46.7237      46.7237      46.7237           90           90           90     102002.7    445.41514 
  993000       992500   -10833.886    900.22852   -11734.115    4125.4281   -15859.543    91.379127    488.13054    610.66071     680.1493   -124.86412   -188.73189    -58.26632      46.7237      46.7237      46.7237           90           90           90     102002.7    592.98018 
  994000       993500   -10840.626    894.82047   -11735.446    4125.0078   -15860.454    90.830173      439.134     766.6023    745.74241   -42.454089    246.42758    45.296444      46.7237      46.7237      46.7237           90           90           90     102002.7     650.4929 
  995000       994500   -10845.376    890.40057   -11735.776    4136.3586   -15872.135    90.381524    411.06684    488.14278    488.46353    81.093184   -280.01228    176.28641      46.7237      46.7237      46.7237           90           90           90     102002.7    462.55772 
  996000       995500   -10821.018     910.9151   -11731.933    4141.2764   -15873.209    92.463885    272.74444    350.91438   -97.800069   -258.74528   -275.12248   -163.96419      46.7237      46.7237      46.7237           90           90           90     102002.7    175.28625 
  997000       996500    -10816.07    907.32292   -11723.393    4128.7997   -15852.193    92.099255    596.93946    635.30874     477.0398    76.008459    233.97922    66.307513      46.7237      46.7237      46.7237           90           90           90     102002.7    569.76267 
  998000       997500   -10835.846    894.20567   -11730.052    4138.6663   -15868.718    90.767768    428.57403     182.4479    221.41836    260.56532    66.580729    246.26133      46.7237      46.7237      46.7237           90           90           90     102002.7     277.4801 
  999000       998500   -10833.821    892.82393   -11726.645    4136.1782   -15862.823    90.627512    476.30594    265.12064    379.79566   -114.16238   -26.929226    22.687394      46.7237      46.7237      46.7237           90           90           90     102002.7    373.74075 
 1000000       999500   -10820.541    905.28679   -11725.828    4127.5014   -15853.329    91.892574    445.48951    506.18768    736.01532    98.225295   -34.786878   -171.41072      46.7237      46.7237      46.7237           90           90           90     102002.7    562.56417 
 1000500      1000000    -10852.37    895.06959    -11747.44    4142.7456   -15890.185    90.855461    587.07942    281.03356    215.51876    143.57742    157.90805    31.165725      46.7237      46.7237      46.7237           90           90           90     102002.7    361.21058 
Loop time of 2271.57 on 16 procs for 500000 steps with 3306 atoms

Performance: 19.018 ns/day, 1.262 hours/ns, 220.112 timesteps/s
99.8% CPU use with 16 MPI tasks x no OpenMP threads

MPI task timing breakdown:
Section |  min time  |  avg time  |  max time  |%varavg| %total
---------------------------------------------------------------
Pair    | 1126.9     | 1532.9     | 1847.7     | 448.5 | 67.48
Bond    | 112.67     | 184.05     | 238.58     | 274.3 |  8.10
Neigh   | 14.902     | 14.959     | 14.994     |   0.8 |  0.66
Comm    | 187.07     | 507.11     | 973.34     | 884.3 | 22.32
Output  | 0.13367    | 0.1404     | 0.14103    |   0.5 |  0.01
Modify  | 24.074     | 25.384     | 27.911     |  26.5 |  1.12
Other   |            | 7.031      |            |       |  0.31

Nlocal:    206.625 ave 250 max 163 min
Histogram: 1 1 0 3 2 4 3 0 0 2
Nghost:    4161 ave 4198 max 4107 min
Histogram: 1 0 1 1 2 2 3 3 1 2
Neighs:    11455.8 ave 15157 max 7492 min
Histogram: 2 1 2 2 2 1 0 0 3 3

Total # of neighbors = 183292
Ave neighs/atom = 55.4422
Ave special neighs/atom = 3.48457
Neighbor list builds = 4087
Dangerous builds = 0
Total wall time: 1:10:04
