LAMMPS (30 Mar 2018)
Reading data file ...
  orthogonal box = (0 0 0) to (46.7237 46.7237 46.7237)
  2 by 3 by 4 MPI processor grid
  reading atoms ...
  1745 atoms
  scanning bonds ...
  5 = max bonds/atom
  scanning angles ...
  10 = max angles/atom
  scanning dihedrals ...
  32 = max dihedrals/atom
  scanning impropers ...
  3 = max impropers/atom
  reading bonds ...
  2064 bonds
  reading angles ...
  3696 angles
  reading dihedrals ...
  6240 dihedrals
  reading impropers ...
  1008 impropers
Finding 1-2 1-3 1-4 neighbors ...
  special bond factors lj:   0          0          0         
  special bond factors coul: 0          0          0         
  5 = max # of 1-2 neighbors
  8 = max # of 1-3 neighbors
  20 = max # of 1-4 neighbors
  19 = max # of special neighbors
Finding 1-2 1-3 1-4 neighbors ...
  special bond factors lj:   0          0          1         
  special bond factors coul: 1          1          1         
  5 = max # of 1-2 neighbors
  8 = max # of 1-3 neighbors
  19 = max # of special neighbors
WARNING: Using 'neigh_modify every 1 delay 0 check yes' setting during minimization (../min.cpp:168)
Neighbor list info ...
  update every 1 steps, delay 0 steps, check yes
  max neighbors/atom: 2000, page size: 100000
  master list distance cutoff = 16
  ghost atom cutoff = 16
  binsize = 8, bins = 6 6 6
  3 neighbor lists, perpetual/occasional/extra = 3 0 0
  (1) pair buck6d/coul/gauss/dsf, perpetual, skip from (3)
      attributes: half, newton on
      pair build: skip
      stencil: none
      bin: none
  (2) pair lj/cut, perpetual, skip from (3)
      attributes: half, newton on
      pair build: skip
      stencil: none
      bin: none
  (3) neighbor class addition, perpetual
      attributes: half, newton on
      pair build: half/bin/newton
      stencil: half/bin/3d/newton
      bin: standard
Setting up cg style minimization ...
  Unit style    : real
  Current step  : 0
WARNING: Inconsistent image flags (../domain.cpp:786)
Per MPI rank memory allocation (min/avg/max) = 22.87 | 23.28 | 24.42 Mbytes
Step Temp E_pair E_mol TotEng Press 
       0            0   -11561.591    6482.8914   -5078.6997    6272.1877 
     507            0   -11589.866    3739.3172   -7850.5484   -540.11761 
Loop time of 1.19689 on 24 procs for 507 steps with 1745 atoms

99.8% CPU use with 24 MPI tasks x no OpenMP threads

Minimization stats:
  Stopping criterion = max force evaluations
  Energy initial, next-to-last, final = 
        -5078.69965044     -7850.51202729     -7850.54837198
  Force two-norm initial, final = 2576.92 9.10072
  Force max component initial, final = 151.986 0.874418
  Final line search alpha, max atom move = 0.0125677 0.0109894
  Iterations, force evaluations = 507 1001

MPI task timing breakdown:
Section |  min time  |  avg time  |  max time  |%varavg| %total
---------------------------------------------------------------
Pair    | 0.43239    | 0.60447    | 0.72131    |  10.3 | 50.50
Bond    | 0.12721    | 0.15663    | 0.18866    |   4.3 | 13.09
Neigh   | 0.0069234  | 0.0070107  | 0.0070803  |   0.1 |  0.59
Comm    | 0.25389    | 0.40291    | 0.56071    |  12.1 | 33.66
Output  | 0          | 0          | 0          |   0.0 |  0.00
Modify  | 0          | 0          | 0          |   0.0 |  0.00
Other   |            | 0.02588    |            |       |  2.16

Nlocal:    72.7083 ave 83 max 59 min
Histogram: 1 0 4 0 3 3 4 5 2 2
Nghost:    1980.46 ave 2152 max 1894 min
Histogram: 16 0 0 0 0 0 0 0 0 8
Neighs:    7643.08 ave 10964 max 4243 min
Histogram: 1 2 4 1 2 5 3 4 0 2

Total # of neighbors = 183434
Ave neighs/atom = 105.12
Ave special neighs/atom = 6.60172
Neighbor list builds = 13
Dangerous builds = 0
Neighbor list info ...
  update every 1 steps, delay 10 steps, check yes
  max neighbors/atom: 2000, page size: 100000
  master list distance cutoff = 16
  ghost atom cutoff = 16
  binsize = 8, bins = 6 6 6
  3 neighbor lists, perpetual/occasional/extra = 3 0 0
  (1) pair buck6d/coul/gauss/dsf, perpetual, skip from (3)
      attributes: half, newton on
      pair build: skip
      stencil: none
      bin: none
  (2) pair lj/cut, perpetual, skip from (3)
      attributes: half, newton on
      pair build: skip
      stencil: none
      bin: none
  (3) neighbor class addition, perpetual
      attributes: half, newton on
      pair build: half/bin/newton
      stencil: half/bin/3d/newton
      bin: standard
Setting up Verlet run ...
  Unit style    : real
  Current step  : 507
  Time step     : 1
WARNING: Inconsistent image flags (../domain.cpp:786)
Per MPI rank memory allocation (min/avg/max) = 22.52 | 22.68 | 23.31 Mbytes
Step Temp PotEng TotEng Press Volume Lx Ly Lz 
     507          110   -7850.5484   -7278.7098   -283.84945     102002.7      46.7237      46.7237      46.7237 
    1000    93.698653   -7327.7622   -6840.6666   -789.01213     102002.7      46.7237      46.7237      46.7237 
    2000    104.77767   -7223.5567   -6678.8665   -616.55421     102002.7      46.7237      46.7237      46.7237 
    3000    111.69355   -7282.5803   -6701.9377   -739.37951     102002.7      46.7237      46.7237      46.7237 
    4000    107.78441   -7274.9916   -6714.6708   -474.06138     102002.7      46.7237      46.7237      46.7237 
    5000    110.07552   -7254.8196   -6682.5884   -735.76181     102002.7      46.7237      46.7237      46.7237 
    6000    107.30964   -7285.0713   -6727.2187    -974.2634     102002.7      46.7237      46.7237      46.7237 
    7000    110.94073   -7263.1107   -6686.3817   -934.14724     102002.7      46.7237      46.7237      46.7237 
    8000    109.18227   -7239.0085    -6671.421   -1027.7857     102002.7      46.7237      46.7237      46.7237 
    9000    109.86844   -7277.6711   -6706.5165   -727.84142     102002.7      46.7237      46.7237      46.7237 
   10000    107.50485   -7269.8541   -6710.9866   -958.48219     102002.7      46.7237      46.7237      46.7237 
   11000    112.21781   -7261.2446   -6677.8767   -885.83311     102002.7      46.7237      46.7237      46.7237 
   12000    107.81728    -7298.828   -6738.3363   -1011.7144     102002.7      46.7237      46.7237      46.7237 
   13000     113.0683    -7277.032   -6689.2427   -762.28682     102002.7      46.7237      46.7237      46.7237 
   14000     109.1588   -7282.3335   -6714.8679   -906.08659     102002.7      46.7237      46.7237      46.7237 
   15000    111.52452   -7267.4618    -6687.698   -819.16532     102002.7      46.7237      46.7237      46.7237 
   16000    110.08334   -7273.4447   -6701.1729   -595.42463     102002.7      46.7237      46.7237      46.7237 
   17000    107.94022   -7274.7436   -6713.6128   -808.19659     102002.7      46.7237      46.7237      46.7237 
   18000    111.42165   -7270.1635   -6690.9344   -528.44684     102002.7      46.7237      46.7237      46.7237 
   19000     107.2663    -7264.269   -6706.6416   -733.53206     102002.7      46.7237      46.7237      46.7237 
   20000    107.19248   -7265.3364   -6708.0928   -748.18345     102002.7      46.7237      46.7237      46.7237 
   21000    110.85271   -7262.5703   -6686.2989   -775.22062     102002.7      46.7237      46.7237      46.7237 
   22000    108.69758   -7286.9816   -6721.9136   -882.74416     102002.7      46.7237      46.7237      46.7237 
   23000      108.283   -7271.7967    -6708.884   -674.83778     102002.7      46.7237      46.7237      46.7237 
   24000    105.15353   -7283.1523   -6736.5083   -772.25274     102002.7      46.7237      46.7237      46.7237 
   25000    110.31301   -7268.7722   -6695.3063   -535.86662     102002.7      46.7237      46.7237      46.7237 
   26000    104.53938   -7274.7454   -6731.2941    -940.5705     102002.7      46.7237      46.7237      46.7237 
   27000     106.7943    -7269.767   -6714.5933   -508.64978     102002.7      46.7237      46.7237      46.7237 
   28000    112.19093   -7268.4479   -6685.2196   -791.06294     102002.7      46.7237      46.7237      46.7237 
   29000    107.09507   -7283.4978   -6726.7606   -828.49049     102002.7      46.7237      46.7237      46.7237 
   30000    113.27815   -7270.3069   -6681.4267   -494.42923     102002.7      46.7237      46.7237      46.7237 
   31000    109.20737   -7251.6094   -6683.8914   -871.20355     102002.7      46.7237      46.7237      46.7237 
   32000     106.3211   -7278.3211   -6725.6074   -635.26733     102002.7      46.7237      46.7237      46.7237 
   33000    110.37188   -7258.8533   -6685.0815   -807.22688     102002.7      46.7237      46.7237      46.7237 
   34000    109.67007   -7267.9405   -6697.8171    -708.9295     102002.7      46.7237      46.7237      46.7237 
   35000    109.90449   -7275.6258   -6704.2837   -750.15021     102002.7      46.7237      46.7237      46.7237 
   36000    110.07586   -7260.6541   -6688.4211   -825.18612     102002.7      46.7237      46.7237      46.7237 
   37000    113.67496   -7261.1942   -6670.2512    -932.2874     102002.7      46.7237      46.7237      46.7237 
   38000    111.34518   -7259.7543   -6680.9228     -911.814     102002.7      46.7237      46.7237      46.7237 
   39000     106.6217   -7289.3265   -6735.0501   -1031.0313     102002.7      46.7237      46.7237      46.7237 
   40000    109.50139   -7268.3934   -6699.1468   -899.28341     102002.7      46.7237      46.7237      46.7237 
   41000    108.43228   -7258.4061   -6694.7174   -857.70808     102002.7      46.7237      46.7237      46.7237 
   42000    108.47415   -7269.2598   -6705.3534   -287.82975     102002.7      46.7237      46.7237      46.7237 
   43000    110.06526   -7263.3405   -6691.1627   -740.30742     102002.7      46.7237      46.7237      46.7237 
   44000    108.39073   -7278.0234   -6714.5506   -856.79925     102002.7      46.7237      46.7237      46.7237 
   45000    107.74126   -7264.6017   -6704.5053   -444.25244     102002.7      46.7237      46.7237      46.7237 
   46000    112.44297   -7285.8562   -6701.3178   -778.40125     102002.7      46.7237      46.7237      46.7237 
   47000    112.45114   -7281.2265   -6696.6456   -662.77328     102002.7      46.7237      46.7237      46.7237 
   48000    107.52861   -7266.2023   -6707.2112    -752.5308     102002.7      46.7237      46.7237      46.7237 
   49000    112.33121   -7255.3534    -6671.396   -648.54866     102002.7      46.7237      46.7237      46.7237 
   50000    110.93622   -7281.3679   -6704.6624    -358.5174     102002.7      46.7237      46.7237      46.7237 
   51000    110.10541   -7263.0105   -6690.6239   -870.17884     102002.7      46.7237      46.7237      46.7237 
   52000    108.05449   -7294.8463   -6733.1214   -688.15764     102002.7      46.7237      46.7237      46.7237 
   53000    110.03319    -7269.739   -6697.7279   -694.63055     102002.7      46.7237      46.7237      46.7237 
   54000     113.2931   -7260.2651   -6671.3072   -741.50791     102002.7      46.7237      46.7237      46.7237 
   55000    107.97861   -7267.4862   -6706.1559   -726.16626     102002.7      46.7237      46.7237      46.7237 
   56000    113.44732    -7275.753   -6685.9934    -687.5592     102002.7      46.7237      46.7237      46.7237 
   57000    111.15133   -7277.3042   -6699.4803     -590.769     102002.7      46.7237      46.7237      46.7237 
   58000    108.60554   -7267.0727   -6702.4832   -793.85452     102002.7      46.7237      46.7237      46.7237 
   59000    110.67345   -7249.3252   -6673.9856    -832.9142     102002.7      46.7237      46.7237      46.7237 
   60000    109.25958   -7283.5722   -6715.5827   -898.52828     102002.7      46.7237      46.7237      46.7237 
   61000     108.8204   -7283.5917   -6717.8853   -765.45212     102002.7      46.7237      46.7237      46.7237 
   62000    105.17968   -7249.3177   -6702.5377   -735.84166     102002.7      46.7237      46.7237      46.7237 
   63000    108.23683   -7268.6424   -6705.9697   -995.67822     102002.7      46.7237      46.7237      46.7237 
   64000     108.5056   -7275.2441   -6711.1742   -775.10207     102002.7      46.7237      46.7237      46.7237 
   65000     108.8345   -7276.9687    -6711.189   -1056.4096     102002.7      46.7237      46.7237      46.7237 
   66000    112.13875   -7257.3843   -6674.4273   -843.69477     102002.7      46.7237      46.7237      46.7237 
   67000     111.3997   -7271.4677   -6692.3527   -729.26216     102002.7      46.7237      46.7237      46.7237 
   68000    110.28408   -7276.0725   -6702.7571   -818.00018     102002.7      46.7237      46.7237      46.7237 
   69000     108.3407   -7263.8373   -6700.6246   -603.18128     102002.7      46.7237      46.7237      46.7237 
   70000    110.90046   -7276.0527    -6699.533   -697.83578     102002.7      46.7237      46.7237      46.7237 
   71000    110.48585   -7264.8091   -6690.4447   -530.99955     102002.7      46.7237      46.7237      46.7237 
   72000    111.00048   -7260.6349   -6683.5952   -514.50447     102002.7      46.7237      46.7237      46.7237 
   73000    110.51721   -7274.9007   -6700.3734    -583.9866     102002.7      46.7237      46.7237      46.7237 
   74000    112.15195   -7267.4476    -6684.422   -881.24298     102002.7      46.7237      46.7237      46.7237 
   75000    109.19237   -7284.6921    -6717.052   -609.90622     102002.7      46.7237      46.7237      46.7237 
   76000    108.43287   -7267.6396   -6703.9477   -861.22707     102002.7      46.7237      46.7237      46.7237 
   77000    109.80224    -7259.126   -6688.3155    -429.6621     102002.7      46.7237      46.7237      46.7237 
   78000    108.54193    -7261.898   -6697.6392   -610.33607     102002.7      46.7237      46.7237      46.7237 
   79000    109.93172   -7249.1861   -6677.7025    -586.0296     102002.7      46.7237      46.7237      46.7237 
   80000    109.59145   -7265.7321   -6696.0174   -642.68162     102002.7      46.7237      46.7237      46.7237 
   81000     109.5608   -7276.5599   -6707.0045   -498.51617     102002.7      46.7237      46.7237      46.7237 
   82000    112.07958   -7257.7259   -6675.0765   -488.17428     102002.7      46.7237      46.7237      46.7237 
   83000    106.32833   -7259.9421   -6707.1908   -731.37138     102002.7      46.7237      46.7237      46.7237 
   84000    111.78686   -7263.4838   -6682.3562   -772.86873     102002.7      46.7237      46.7237      46.7237 
   85000    107.84452   -7278.3082   -6717.6749   -667.17094     102002.7      46.7237      46.7237      46.7237 
   86000    110.97289   -7269.5198   -6692.6236   -750.91796     102002.7      46.7237      46.7237      46.7237 
   87000    109.47349   -7281.2213   -6712.1197    -627.0104     102002.7      46.7237      46.7237      46.7237 
   88000     108.3996   -7276.7808    -6713.262   -755.19507     102002.7      46.7237      46.7237      46.7237 
   89000    111.33264    -7271.166   -6692.3996   -873.06456     102002.7      46.7237      46.7237      46.7237 
   90000    108.69959   -7261.2851   -6696.2068   -569.80939     102002.7      46.7237      46.7237      46.7237 
   91000     109.2601   -7267.5384   -6699.5462   -673.30021     102002.7      46.7237      46.7237      46.7237 
   92000    111.28103   -7263.2792   -6684.7812   -886.86441     102002.7      46.7237      46.7237      46.7237 
   93000    109.31403   -7249.8442   -6681.5717   -559.80184     102002.7      46.7237      46.7237      46.7237 
   94000    109.71125   -7272.3212   -6701.9836   -905.40282     102002.7      46.7237      46.7237      46.7237 
   95000    109.75344   -7271.7038   -6701.1469   -799.86807     102002.7      46.7237      46.7237      46.7237 
   96000     111.2349   -7260.9727   -6682.7144   -461.74697     102002.7      46.7237      46.7237      46.7237 
   97000    107.63818   -7272.6048   -6713.0442   -770.54681     102002.7      46.7237      46.7237      46.7237 
   98000    110.36709   -7265.6586   -6691.9117   -626.69697     102002.7      46.7237      46.7237      46.7237 
   99000    110.30282   -7279.7182   -6706.3054   -630.50909     102002.7      46.7237      46.7237      46.7237 
  100000    112.20291    -7261.385   -6678.0945   -579.04753     102002.7      46.7237      46.7237      46.7237 
  101000    110.19181   -7267.8756   -6695.0398   -646.24551     102002.7      46.7237      46.7237      46.7237 
  102000    107.44285   -7275.6953   -6717.1502   -652.90904     102002.7      46.7237      46.7237      46.7237 
  103000    110.95771   -7247.8447   -6671.0274   -539.72809     102002.7      46.7237      46.7237      46.7237 
  104000    109.04839   -7262.6796    -6695.788   -720.00852     102002.7      46.7237      46.7237      46.7237 
  105000    108.69694   -7280.2534   -6715.1888   -977.38836     102002.7      46.7237      46.7237      46.7237 
  106000    108.54075   -7266.5258   -6702.2731   -734.98982     102002.7      46.7237      46.7237      46.7237 
  107000    110.66117   -7270.2041   -6694.9284   -724.28973     102002.7      46.7237      46.7237      46.7237 
  108000    109.24252   -7288.2295   -6720.3286   -633.34662     102002.7      46.7237      46.7237      46.7237 
  109000    110.87285   -7264.6313   -6688.2551   -731.58924     102002.7      46.7237      46.7237      46.7237 
  110000    107.00032   -7276.6274   -6720.3827   -387.96499     102002.7      46.7237      46.7237      46.7237 
  111000    110.01448   -7270.0699    -6698.156   -505.84087     102002.7      46.7237      46.7237      46.7237 
  112000    104.63113   -7255.3424    -6711.414   -873.69387     102002.7      46.7237      46.7237      46.7237 
  113000    114.56199   -7255.5864   -6660.0322   -543.36638     102002.7      46.7237      46.7237      46.7237 
  114000    109.15988   -7248.1264   -6680.6551   -1064.8945     102002.7      46.7237      46.7237      46.7237 
  115000    106.45197   -7252.2844   -6698.8903   -648.89256     102002.7      46.7237      46.7237      46.7237 
  116000    111.33027   -7261.9915   -6683.2375   -726.42804     102002.7      46.7237      46.7237      46.7237 
  117000    108.23235   -7298.0415   -6735.3921   -666.41064     102002.7      46.7237      46.7237      46.7237 
  118000    108.42248   -7258.4129   -6694.7751   -551.48442     102002.7      46.7237      46.7237      46.7237 
  119000    109.62626   -7261.8691   -6691.9734    -660.4471     102002.7      46.7237      46.7237      46.7237 
  120000    108.94932   -7280.1331   -6713.7565   -1069.1378     102002.7      46.7237      46.7237      46.7237 
  121000      108.106   -7260.0399   -6698.0473   -845.54194     102002.7      46.7237      46.7237      46.7237 
  122000    109.80708   -7290.8033   -6719.9676   -816.51976     102002.7      46.7237      46.7237      46.7237 
  123000    109.88559   -7266.5805   -6695.3366   -565.65405     102002.7      46.7237      46.7237      46.7237 
  124000    107.92358    -7280.017   -6718.9728   -943.77191     102002.7      46.7237      46.7237      46.7237 
  125000    108.74644    -7260.747   -6695.4251   -658.88686     102002.7      46.7237      46.7237      46.7237 
  126000      115.356   -7263.2965   -6663.6145   -851.88506     102002.7      46.7237      46.7237      46.7237 
  127000    110.15157   -7270.8061   -6698.1795   -564.76475     102002.7      46.7237      46.7237      46.7237 
  128000    108.77439   -7275.2961   -6709.8289   -836.04512     102002.7      46.7237      46.7237      46.7237 
  129000    111.70711   -7255.1613   -6674.4482    -707.6455     102002.7      46.7237      46.7237      46.7237 
  130000    111.72613   -7264.1054   -6683.2935   -676.84456     102002.7      46.7237      46.7237      46.7237 
  131000    108.79049   -7266.1916   -6700.6406   -950.49976     102002.7      46.7237      46.7237      46.7237 
  132000    110.08327     -7276.55   -6704.2785   -381.12094     102002.7      46.7237      46.7237      46.7237 
  133000    108.61364   -7263.6661   -6699.0345   -913.79066     102002.7      46.7237      46.7237      46.7237 
  134000    109.44308   -7271.0209   -6702.0775   -861.26591     102002.7      46.7237      46.7237      46.7237 
  135000    108.59127   -7267.7854   -6703.2701   -458.66663     102002.7      46.7237      46.7237      46.7237 
  136000    111.32674    -7303.091   -6724.3553   -821.73023     102002.7      46.7237      46.7237      46.7237 
  137000    111.96311   -7276.7922   -6694.7483   -774.53969     102002.7      46.7237      46.7237      46.7237 
  138000    109.96802   -7279.6861   -6708.0138   -955.02304     102002.7      46.7237      46.7237      46.7237 
  139000    111.37267   -7271.6607   -6692.6862   -692.65865     102002.7      46.7237      46.7237      46.7237 
  140000    107.36202   -7284.5183   -6726.3934    -1003.718     102002.7      46.7237      46.7237      46.7237 
  141000    107.77594   -7266.6589   -6706.3822   -950.80596     102002.7      46.7237      46.7237      46.7237 
  142000    112.77547   -7268.1025   -6681.8355   -799.86607     102002.7      46.7237      46.7237      46.7237 
  143000    108.36273   -7266.1362    -6702.809   -812.85283     102002.7      46.7237      46.7237      46.7237 
  144000    109.64761   -7268.1744   -6698.1677   -912.10005     102002.7      46.7237      46.7237      46.7237 
  145000    106.41497   -7259.7405   -6706.5389   -1009.0412     102002.7      46.7237      46.7237      46.7237 
  146000    109.34996   -7278.9284   -6710.4691   -975.76073     102002.7      46.7237      46.7237      46.7237 
  147000    108.86063   -7263.3906    -6697.475   -721.30321     102002.7      46.7237      46.7237      46.7237 
  148000    106.74981    -7267.032   -6712.0896   -968.95354     102002.7      46.7237      46.7237      46.7237 
  149000    107.41969   -7277.2039   -6718.7791   -628.50389     102002.7      46.7237      46.7237      46.7237 
  150000    109.37485   -7264.3629   -6695.7742   -803.49224     102002.7      46.7237      46.7237      46.7237 
  151000    111.39574   -7267.7156   -6688.6212   -823.98215     102002.7      46.7237      46.7237      46.7237 
  152000    111.78126   -7262.7923   -6681.6938   -796.84363     102002.7      46.7237      46.7237      46.7237 
  153000    107.43425   -7284.4163   -6725.9158   -820.83106     102002.7      46.7237      46.7237      46.7237 
  154000    112.45018   -7269.4306   -6684.8546   -647.29406     102002.7      46.7237      46.7237      46.7237 
  155000    106.81662   -7277.4743   -6722.1846   -626.29533     102002.7      46.7237      46.7237      46.7237 
  156000    109.11759   -7279.5123   -6712.2609   -863.29616     102002.7      46.7237      46.7237      46.7237 
  157000    110.40572   -7263.3909   -6689.4431   -809.99012     102002.7      46.7237      46.7237      46.7237 
  158000    110.80924   -7263.4654   -6687.4199   -562.01701     102002.7      46.7237      46.7237      46.7237 
  159000     110.9823   -7282.1369   -6705.1918   -710.37587     102002.7      46.7237      46.7237      46.7237 
  160000    109.38362   -7278.0379   -6709.4036   -569.02645     102002.7      46.7237      46.7237      46.7237 
  161000    106.75737   -7257.8662   -6702.8845   -771.63642     102002.7      46.7237      46.7237      46.7237 
  162000    112.10528   -7282.4478   -6699.6649    -813.4597     102002.7      46.7237      46.7237      46.7237 
  163000    111.14145   -7291.5885    -6713.816   -325.01946     102002.7      46.7237      46.7237      46.7237 
  164000    114.37379   -7287.9339   -6693.3581   -869.72401     102002.7      46.7237      46.7237      46.7237 
  165000    110.01139   -7274.0113   -6702.1135    -642.6631     102002.7      46.7237      46.7237      46.7237 
  166000    112.04183   -7255.3402   -6672.8871   -753.97601     102002.7      46.7237      46.7237      46.7237 
  167000    108.08375   -7278.5514   -6716.6744   -964.83367     102002.7      46.7237      46.7237      46.7237 
  168000    109.24466    -7287.124    -6719.212   -520.62742     102002.7      46.7237      46.7237      46.7237 
  169000    111.51899   -7254.5775   -6674.8424   -594.14338     102002.7      46.7237      46.7237      46.7237 
  170000    105.58065   -7268.1463   -6719.2818   -474.60064     102002.7      46.7237      46.7237      46.7237 
  171000    116.15044   -7251.2014   -6647.3896   -897.49544     102002.7      46.7237      46.7237      46.7237 
  172000    108.21583   -7266.6219   -6704.0584   -783.85694     102002.7      46.7237      46.7237      46.7237 
  173000    105.86886   -7294.4905   -6744.1278   -864.89162     102002.7      46.7237      46.7237      46.7237 
  174000    112.35341   -7275.4389    -6691.366    -833.6929     102002.7      46.7237      46.7237      46.7237 
  175000     107.5911   -7266.6668    -6707.351   -575.96479     102002.7      46.7237      46.7237      46.7237 
  176000     105.5334   -7281.9752   -6733.3564    -789.3622     102002.7      46.7237      46.7237      46.7237 
  177000    108.67124   -7262.1055   -6697.1744   -661.10387     102002.7      46.7237      46.7237      46.7237 
  178000    113.30536     -7286.24   -6697.2184   -712.32616     102002.7      46.7237      46.7237      46.7237 
  179000    108.91754   -7280.7285   -6714.5171   -689.81891     102002.7      46.7237      46.7237      46.7237 
  180000    110.79031   -7266.7264   -6690.7794   -591.54488     102002.7      46.7237      46.7237      46.7237 
  181000    114.21071   -7265.7565   -6672.0284   -653.63497     102002.7      46.7237      46.7237      46.7237 
  182000    109.36647   -7272.1629   -6703.6177   -755.49622     102002.7      46.7237      46.7237      46.7237 
  183000    113.89769   -7263.7515   -6671.6507   -502.01697     102002.7      46.7237      46.7237      46.7237 
  184000     108.9453   -7264.9076   -6698.5519   -362.35276     102002.7      46.7237      46.7237      46.7237 
  185000    106.89701   -7273.8074   -6718.0998   -709.59576     102002.7      46.7237      46.7237      46.7237 
  186000    110.17613    -7254.176   -6681.4217    -449.4309     102002.7      46.7237      46.7237      46.7237 
  187000    103.98859   -7283.7696   -6743.1815   -737.43538     102002.7      46.7237      46.7237      46.7237 
  188000    114.27644   -7278.0181   -6683.9483   -912.53662     102002.7      46.7237      46.7237      46.7237 
  189000    111.57746   -7271.4545   -6691.4154   -474.11063     102002.7      46.7237      46.7237      46.7237 
  190000    108.13105   -7256.5915   -6694.4687   -906.85017     102002.7      46.7237      46.7237      46.7237 
  191000    110.65752   -7256.4905   -6681.2338   -733.21885     102002.7      46.7237      46.7237      46.7237 
  192000     109.4398   -7272.6634    -6703.737   -619.67446     102002.7      46.7237      46.7237      46.7237 
  193000    111.80479   -7272.3992   -6691.1783   -599.43627     102002.7      46.7237      46.7237      46.7237 
  194000    106.65292   -7272.8986   -6718.4599   -658.75251     102002.7      46.7237      46.7237      46.7237 
  195000    112.19489   -7266.0371   -6682.7883   -1026.5181     102002.7      46.7237      46.7237      46.7237 
  196000    107.93672   -7271.1892   -6710.0766   -794.00735     102002.7      46.7237      46.7237      46.7237 
  197000    110.35398    -7265.232   -6691.5532   -824.98464     102002.7      46.7237      46.7237      46.7237 
  198000     113.2856   -7278.0493   -6689.1303   -678.02342     102002.7      46.7237      46.7237      46.7237 
  199000      107.851   -7258.2447   -6697.5778   -782.22084     102002.7      46.7237      46.7237      46.7237 
  200000    110.03538   -7260.0725     -6688.05   -797.56237     102002.7      46.7237      46.7237      46.7237 
  201000    108.84011   -7270.3445   -6704.5357   -583.10273     102002.7      46.7237      46.7237      46.7237 
  202000    110.11457   -7272.1988   -6699.7646   -836.85565     102002.7      46.7237      46.7237      46.7237 
  203000    106.63823   -7251.1351   -6696.7728   -748.07667     102002.7      46.7237      46.7237      46.7237 
  204000    111.18211    -7272.344   -6694.3601   -824.61509     102002.7      46.7237      46.7237      46.7237 
  205000    110.28238   -7272.4258   -6699.1192   -640.38575     102002.7      46.7237      46.7237      46.7237 
  206000    111.28561   -7273.2221   -6694.7002   -753.16341     102002.7      46.7237      46.7237      46.7237 
  207000    108.56743   -7264.4873   -6700.0959   -717.85305     102002.7      46.7237      46.7237      46.7237 
  208000    109.34404   -7293.7816    -6725.353   -814.16286     102002.7      46.7237      46.7237      46.7237 
  209000      111.773    -7274.778   -6693.7224   -783.08039     102002.7      46.7237      46.7237      46.7237 
  210000    109.45899   -7242.7714   -6673.7453   -813.51712     102002.7      46.7237      46.7237      46.7237 
  211000      110.228   -7275.9829    -6702.959   -1020.2019     102002.7      46.7237      46.7237      46.7237 
  212000    111.14665   -7264.7703   -6686.9708   -762.25641     102002.7      46.7237      46.7237      46.7237 
  213000    106.82605   -7256.3351   -6700.9964   -904.34705     102002.7      46.7237      46.7237      46.7237 
  214000    111.20127   -7288.1369   -6710.0534   -663.71172     102002.7      46.7237      46.7237      46.7237 
  215000    111.80383    -7252.183   -6670.9672   -612.04075     102002.7      46.7237      46.7237      46.7237 
  216000    110.39527    -7271.938   -6698.0446   -915.31253     102002.7      46.7237      46.7237      46.7237 
  217000      110.059   -7271.0461   -6698.9008   -859.48444     102002.7      46.7237      46.7237      46.7237 
  218000    104.39453   -7267.9701   -6725.2717   -892.36199     102002.7      46.7237      46.7237      46.7237 
  219000    109.58503   -7259.9683   -6690.2869   -1000.4266     102002.7      46.7237      46.7237      46.7237 
  220000    106.99891   -7280.9365   -6724.6992   -736.12125     102002.7      46.7237      46.7237      46.7237 
  221000    109.49419   -7275.8022   -6706.5931   -646.25587     102002.7      46.7237      46.7237      46.7237 
  222000    111.39156    -7250.546   -6671.4733   -707.09482     102002.7      46.7237      46.7237      46.7237 
  223000    110.86645   -7289.1821   -6712.8392   -815.23358     102002.7      46.7237      46.7237      46.7237 
  224000    112.70176   -7268.2032   -6682.3194   -729.80758     102002.7      46.7237      46.7237      46.7237 
  225000    111.78617   -7256.0389   -6674.9149   -541.68014     102002.7      46.7237      46.7237      46.7237 
  226000    109.67992   -7271.9362   -6701.7615   -702.45986     102002.7      46.7237      46.7237      46.7237 
  227000    110.84366   -7285.5436   -6709.3192    -691.1348     102002.7      46.7237      46.7237      46.7237 
  228000    110.18519   -7274.5598   -6701.7585    -788.6558     102002.7      46.7237      46.7237      46.7237 
  229000    112.89523   -7251.8653   -6664.9757   -590.50552     102002.7      46.7237      46.7237      46.7237 
  230000    112.48036   -7285.0975   -6700.3646   -383.51373     102002.7      46.7237      46.7237      46.7237 
  231000    109.40326   -7255.0974   -6686.3609   -739.51733     102002.7      46.7237      46.7237      46.7237 
  232000    112.35202   -7251.8045   -6667.7388   -885.58772     102002.7      46.7237      46.7237      46.7237 
  233000    106.70622   -7270.4163   -6715.7005   -691.10463     102002.7      46.7237      46.7237      46.7237 
  234000    108.89535   -7256.4474   -6690.3514   -795.82014     102002.7      46.7237      46.7237      46.7237 
  235000    108.28464   -7269.1025   -6706.1813   -868.41383     102002.7      46.7237      46.7237      46.7237 
  236000    109.27395    -7248.367   -6680.3027   -746.56558     102002.7      46.7237      46.7237      46.7237 
  237000    112.51131   -7298.5089   -6713.6152   -890.95538     102002.7      46.7237      46.7237      46.7237 
  238000    109.16317   -7263.3943    -6695.906   -811.05775     102002.7      46.7237      46.7237      46.7237 
  239000    112.37238   -7268.4941   -6684.3226    -832.7249     102002.7      46.7237      46.7237      46.7237 
  240000     106.9624   -7285.4769   -6729.4293   -717.41145     102002.7      46.7237      46.7237      46.7237 
  241000    107.59986   -7252.2779   -6692.9165    -511.9218     102002.7      46.7237      46.7237      46.7237 
  242000    109.03671   -7279.9194   -6713.0885   -624.44132     102002.7      46.7237      46.7237      46.7237 
  243000    110.95496   -7257.7662   -6680.9632   -421.62161     102002.7      46.7237      46.7237      46.7237 
  244000    105.75343   -7272.0639   -6722.3013   -788.62403     102002.7      46.7237      46.7237      46.7237 
  245000    116.45414   -7245.6149   -6640.2242   -677.39145     102002.7      46.7237      46.7237      46.7237 
  246000    111.39503   -7289.2477    -6710.157   -470.64841     102002.7      46.7237      46.7237      46.7237 
  247000    110.72744   -7273.7893    -6698.169   -661.69922     102002.7      46.7237      46.7237      46.7237 
  248000    110.00813   -7251.2685   -6679.3876    -806.7695     102002.7      46.7237      46.7237      46.7237 
  249000    112.76037   -7284.9419   -6698.7534   -530.73387     102002.7      46.7237      46.7237      46.7237 
  250000    108.78802   -7292.4205   -6726.8824    -723.1838     102002.7      46.7237      46.7237      46.7237 
  251000    112.95139   -7270.0524   -6682.8709   -665.57826     102002.7      46.7237      46.7237      46.7237 
  252000    111.11321   -7265.6773   -6688.0517   -688.85853     102002.7      46.7237      46.7237      46.7237 
  253000    110.60944   -7289.6265   -6714.6197   -917.65317     102002.7      46.7237      46.7237      46.7237 
  254000    110.98503   -7265.1271   -6688.1678   -832.42072     102002.7      46.7237      46.7237      46.7237 
  255000    108.17308   -7275.6409   -6713.2996   -1109.9298     102002.7      46.7237      46.7237      46.7237 
  256000    114.40047   -7257.9532   -6663.2386   -768.89221     102002.7      46.7237      46.7237      46.7237 
  257000    109.18081   -7272.0093   -6704.4293   -669.92933     102002.7      46.7237      46.7237      46.7237 
  258000    110.31336   -7268.0778   -6694.6101   -768.73746     102002.7      46.7237      46.7237      46.7237 
  259000    107.05766   -7274.6707   -6718.1279   -589.54115     102002.7      46.7237      46.7237      46.7237 
  260000    108.40425   -7268.1159   -6704.5729    -588.6594     102002.7      46.7237      46.7237      46.7237 
  261000    110.15266   -7253.3154   -6680.6832   -699.16371     102002.7      46.7237      46.7237      46.7237 
  262000     104.5806   -7275.2533   -6731.5876   -885.82545     102002.7      46.7237      46.7237      46.7237 
  263000    110.36017   -7256.8738   -6683.1629   -747.21308     102002.7      46.7237      46.7237      46.7237 
  264000     107.9163   -7271.5497   -6710.5432   -824.48531     102002.7      46.7237      46.7237      46.7237 
  265000    111.33419   -7277.3203   -6698.5458   -507.08857     102002.7      46.7237      46.7237      46.7237 
  266000    108.90051   -7276.7934   -6710.6706   -1009.2679     102002.7      46.7237      46.7237      46.7237 
  267000    110.12819    -7261.495     -6688.99   -818.98313     102002.7      46.7237      46.7237      46.7237 
  268000     112.3182   -7254.9929   -6671.1031   -853.82893     102002.7      46.7237      46.7237      46.7237 
  269000    109.44313   -7270.3157    -6701.372   -851.71125     102002.7      46.7237      46.7237      46.7237 
  270000      109.826   -7279.0535   -6708.1194   -994.20531     102002.7      46.7237      46.7237      46.7237 
  271000    109.29567   -7276.9915   -6708.8145   -787.30414     102002.7      46.7237      46.7237      46.7237 
  272000    106.78481   -7267.8464   -6712.7221   -556.97777     102002.7      46.7237      46.7237      46.7237 
  273000    111.40248   -7246.3979   -6667.2685   -616.88198     102002.7      46.7237      46.7237      46.7237 
  274000    107.34099   -7266.8158   -6708.8002    -730.3685     102002.7      46.7237      46.7237      46.7237 
  275000    107.38665   -7264.8998   -6706.6468   -788.71007     102002.7      46.7237      46.7237      46.7237 
  276000    111.53349   -7263.9468   -6684.1363   -712.73479     102002.7      46.7237      46.7237      46.7237 
  277000    109.64221   -7257.4779   -6687.4992   -742.09537     102002.7      46.7237      46.7237      46.7237 
  278000    106.84829    -7265.985   -6710.5307   -856.53608     102002.7      46.7237      46.7237      46.7237 
  279000    111.18857   -7283.2831   -6705.2657   -594.32778     102002.7      46.7237      46.7237      46.7237 
  280000    112.18413   -7283.1255   -6699.9326   -1076.4269     102002.7      46.7237      46.7237      46.7237 
  281000    111.22982   -7272.5413   -6694.3094   -303.13478     102002.7      46.7237      46.7237      46.7237 
  282000    108.23826   -7272.3847   -6709.7045   -931.69883     102002.7      46.7237      46.7237      46.7237 
  283000    110.22391   -7257.4011   -6684.3984   -832.16718     102002.7      46.7237      46.7237      46.7237 
  284000    112.89003    -7293.525   -6706.6624   -824.66606     102002.7      46.7237      46.7237      46.7237 
  285000    110.71929   -7263.8659   -6688.2881   -734.33111     102002.7      46.7237      46.7237      46.7237 
  286000    111.61941    -7276.954   -6696.6969   -794.49115     102002.7      46.7237      46.7237      46.7237 
  287000    107.64148   -7275.2132   -6715.6355   -747.37721     102002.7      46.7237      46.7237      46.7237 
  288000    111.18349   -7266.6237   -6688.6327   -1016.5263     102002.7      46.7237      46.7237      46.7237 
  289000    108.42874   -7272.4158   -6708.7455   -751.62947     102002.7      46.7237      46.7237      46.7237 
  290000    108.70595    -7268.398   -6703.2865   -923.75275     102002.7      46.7237      46.7237      46.7237 
  291000    112.22473   -7258.8105   -6675.4066    -601.4683     102002.7      46.7237      46.7237      46.7237 
  292000    108.97471   -7273.6009   -6707.0923   -696.63228     102002.7      46.7237      46.7237      46.7237 
  293000    112.76374   -7261.7014   -6675.4954    -326.8697     102002.7      46.7237      46.7237      46.7237 
  294000    111.00305   -7263.2707   -6686.2177   -757.62524     102002.7      46.7237      46.7237      46.7237 
  295000    106.03047   -7281.7178    -6730.515    -578.6731     102002.7      46.7237      46.7237      46.7237 
  296000    109.48157   -7278.4687   -6709.3251   -544.75156     102002.7      46.7237      46.7237      46.7237 
  297000    106.57984     -7251.86   -6697.8012   -577.70775     102002.7      46.7237      46.7237      46.7237 
  298000    111.91089   -7274.0708   -6692.2984   -641.80467     102002.7      46.7237      46.7237      46.7237 
  299000    112.56712   -7249.5581   -6664.3742   -497.99767     102002.7      46.7237      46.7237      46.7237 
  300000    107.90496   -7265.6641   -6704.7166   -573.49467     102002.7      46.7237      46.7237      46.7237 
  301000    110.61356   -7252.2196   -6677.1914   -652.20227     102002.7      46.7237      46.7237      46.7237 
  302000    108.88399   -7256.9183   -6690.8813   -651.56785     102002.7      46.7237      46.7237      46.7237 
  303000    113.24932   -7253.0367   -6664.3064   -516.96078     102002.7      46.7237      46.7237      46.7237 
  304000    107.37131   -7257.6454   -6699.4721   -830.19528     102002.7      46.7237      46.7237      46.7237 
  305000    114.04899   -7275.1933   -6682.3059   -757.97456     102002.7      46.7237      46.7237      46.7237 
  306000    108.49774   -7262.3911   -6698.3621   -618.39875     102002.7      46.7237      46.7237      46.7237 
  307000    109.73801   -7272.5313   -6702.0547   -806.36018     102002.7      46.7237      46.7237      46.7237 
  308000    111.68416   -7275.3631   -6694.7693   -755.58348     102002.7      46.7237      46.7237      46.7237 
  309000    108.65607   -7278.6456   -6713.7935   -872.18056     102002.7      46.7237      46.7237      46.7237 
  310000    111.86908   -7266.3011   -6684.7461   -582.18331     102002.7      46.7237      46.7237      46.7237 
  311000    111.52935   -7254.9647   -6675.1757   -637.28171     102002.7      46.7237      46.7237      46.7237 
  312000    107.98417   -7279.7053   -6718.3461   -894.18417     102002.7      46.7237      46.7237      46.7237 
  313000    109.96704   -7261.9237   -6690.2565     -745.924     102002.7      46.7237      46.7237      46.7237 
  314000    111.76296   -7290.7644    -6709.761   -625.65379     102002.7      46.7237      46.7237      46.7237 
  315000    112.93093   -7257.8921   -6670.8169   -693.93911     102002.7      46.7237      46.7237      46.7237 
  316000    107.34706   -7272.5254   -6714.4782   -777.25315     102002.7      46.7237      46.7237      46.7237 
  317000    107.26705   -7261.4057   -6703.7744   -877.76066     102002.7      46.7237      46.7237      46.7237 
  318000    115.42842   -7262.7938   -6662.7354   -864.10023     102002.7      46.7237      46.7237      46.7237 
  319000    106.14833   -7259.8379   -6708.0223   -987.99749     102002.7      46.7237      46.7237      46.7237 
  320000    107.51501   -7248.9771   -6690.0568   -1016.8762     102002.7      46.7237      46.7237      46.7237 
  321000    105.93807   -7265.9641   -6715.2416   -816.37621     102002.7      46.7237      46.7237      46.7237 
  322000    109.34571   -7283.6955   -6715.2582   -966.76576     102002.7      46.7237      46.7237      46.7237 
  323000    114.22514   -7271.0421   -6677.2389   -847.42666     102002.7      46.7237      46.7237      46.7237 
  324000    108.72481   -7281.1888   -6715.9793   -819.86092     102002.7      46.7237      46.7237      46.7237 
  325000     110.5276   -7245.6329   -6671.0516   -889.81273     102002.7      46.7237      46.7237      46.7237 
  326000    111.04242   -7272.3059   -6695.0482    -926.3755     102002.7      46.7237      46.7237      46.7237 
  327000    112.02609   -7277.8268   -6695.4556   -932.96669     102002.7      46.7237      46.7237      46.7237 
  328000    112.95535   -7265.6303   -6678.4282   -828.72437     102002.7      46.7237      46.7237      46.7237 
  329000     109.7226   -7275.8638   -6705.4673   -663.56655     102002.7      46.7237      46.7237      46.7237 
  330000    105.35381   -7265.0158   -6717.3306   -747.02894     102002.7      46.7237      46.7237      46.7237 
  331000    110.65502   -7265.5523   -6690.3086   -452.44273     102002.7      46.7237      46.7237      46.7237 
  332000    111.67191   -7255.3104   -6674.7803   -784.77164     102002.7      46.7237      46.7237      46.7237 
  333000    108.76707   -7274.9707   -6709.5415   -638.85664     102002.7      46.7237      46.7237      46.7237 
  334000    107.60874   -7254.4747   -6695.0671   -702.38518     102002.7      46.7237      46.7237      46.7237 
  335000    112.89019   -7269.2551   -6682.3918   -707.46646     102002.7      46.7237      46.7237      46.7237 
  336000    110.61269   -7280.4299   -6705.4062   -818.87515     102002.7      46.7237      46.7237      46.7237 
  337000    106.28432   -7263.9818   -6711.4593   -752.41454     102002.7      46.7237      46.7237      46.7237 
  338000    110.92759   -7258.8244   -6682.1637   -795.52407     102002.7      46.7237      46.7237      46.7237 
  339000    107.74867   -7261.6332   -6701.4983   -929.49688     102002.7      46.7237      46.7237      46.7237 
  340000    109.33478   -7280.7418   -6712.3614   -813.43624     102002.7      46.7237      46.7237      46.7237 
  341000    108.45852   -7265.2633   -6701.4381   -416.89366     102002.7      46.7237      46.7237      46.7237 
  342000    111.24703    -7249.464   -6671.1427   -926.11537     102002.7      46.7237      46.7237      46.7237 
  343000    110.36309   -7273.3026   -6699.5764   -773.06976     102002.7      46.7237      46.7237      46.7237 
  344000    115.28073   -7273.1777   -6673.8871   -729.31352     102002.7      46.7237      46.7237      46.7237 
  345000    109.17799    -7281.705   -6714.1396   -798.71044     102002.7      46.7237      46.7237      46.7237 
  346000    112.40596   -7262.1562   -6677.8101   -554.92356     102002.7      46.7237      46.7237      46.7237 
  347000     114.1637    -7278.196   -6684.7123   -749.17815     102002.7      46.7237      46.7237      46.7237 
  348000    109.29885   -7299.9798   -6731.7862   -712.35045     102002.7      46.7237      46.7237      46.7237 
  349000    111.12348   -7272.3544   -6694.6753   -959.13586     102002.7      46.7237      46.7237      46.7237 
  350000    107.61401   -7272.8198   -6713.3848   -792.44161     102002.7      46.7237      46.7237      46.7237 
  351000    112.40984   -7281.4598   -6697.0935   -984.80197     102002.7      46.7237      46.7237      46.7237 
  352000    110.13417   -7245.5051    -6672.969   -974.28474     102002.7      46.7237      46.7237      46.7237 
  353000    109.38809   -7283.7886   -6715.1311   -1041.1699     102002.7      46.7237      46.7237      46.7237 
  354000    111.31636   -7281.1912   -6702.5095   -700.41583     102002.7      46.7237      46.7237      46.7237 
  355000     113.4898   -7265.9884    -6676.008   -715.59717     102002.7      46.7237      46.7237      46.7237 
  356000    108.02575   -7278.4033   -6716.8279   -660.30743     102002.7      46.7237      46.7237      46.7237 
  357000    112.09545   -7259.4425   -6676.7107   -748.51334     102002.7      46.7237      46.7237      46.7237 
  358000    113.67821   -7275.1834   -6684.2236   -525.65688     102002.7      46.7237      46.7237      46.7237 
  359000    110.11616   -7290.8314   -6718.3889   -960.17278     102002.7      46.7237      46.7237      46.7237 
  360000    109.28895   -7262.4223   -6694.2801   -577.80322     102002.7      46.7237      46.7237      46.7237 
  361000    110.02691   -7279.7055    -6707.727   -841.00693     102002.7      46.7237      46.7237      46.7237 
  362000    113.07548   -7263.1456   -6675.3191   -772.84691     102002.7      46.7237      46.7237      46.7237 
  363000    110.44353   -7268.1518   -6694.0075   -1032.8515     102002.7      46.7237      46.7237      46.7237 
  364000    109.42309   -7284.4469   -6715.6074   -862.59885     102002.7      46.7237      46.7237      46.7237 
  365000    112.52376   -7282.0817   -6697.1233   -1048.5486     102002.7      46.7237      46.7237      46.7237 
  366000    113.62312   -7251.4333   -6660.7598   -800.75255     102002.7      46.7237      46.7237      46.7237 
  367000    104.83844    -7259.972   -6714.9659   -712.63066     102002.7      46.7237      46.7237      46.7237 
  368000    108.64838   -7261.5468   -6696.7347   -564.49731     102002.7      46.7237      46.7237      46.7237 
  369000    109.83879   -7283.6208   -6712.6203   -551.73549     102002.7      46.7237      46.7237      46.7237 
  370000    109.08229   -7271.3059    -6704.238   -788.32026     102002.7      46.7237      46.7237      46.7237 
  371000    107.85837   -7248.2414   -6687.5361   -606.32528     102002.7      46.7237      46.7237      46.7237 
  372000    110.45822   -7268.2028   -6693.9821   -615.28288     102002.7      46.7237      46.7237      46.7237 
  373000    107.49518   -7276.0665   -6717.2493   -750.21181     102002.7      46.7237      46.7237      46.7237 
  374000    111.99085   -7258.9854   -6676.7973   -810.08711     102002.7      46.7237      46.7237      46.7237 
  375000    110.95536   -7283.2023   -6706.3973   -981.54192     102002.7      46.7237      46.7237      46.7237 
  376000     112.4842   -7277.9342   -6693.1814   -967.25276     102002.7      46.7237      46.7237      46.7237 
  377000    108.36212   -7241.5164   -6678.1924   -814.88599     102002.7      46.7237      46.7237      46.7237 
  378000    109.24451   -7267.2553   -6699.3442   -815.94914     102002.7      46.7237      46.7237      46.7237 
  379000    114.39502   -7279.3984   -6684.7122   -820.50412     102002.7      46.7237      46.7237      46.7237 
  380000    105.07762   -7267.7426   -6721.4931   -690.75722     102002.7      46.7237      46.7237      46.7237 
  381000    112.79302   -7271.7577   -6685.3995   -729.23672     102002.7      46.7237      46.7237      46.7237 
  382000    113.95199   -7267.8454   -6675.4623   -746.51252     102002.7      46.7237      46.7237      46.7237 
  383000    106.89416   -7272.3422   -6716.6494   -887.63356     102002.7      46.7237      46.7237      46.7237 
  384000    109.88788   -7258.5677    -6687.312   -550.76861     102002.7      46.7237      46.7237      46.7237 
  385000    108.46575   -7268.1504   -6704.2876   -679.25691     102002.7      46.7237      46.7237      46.7237 
  386000    108.47915    -7257.863   -6693.9306   -769.77717     102002.7      46.7237      46.7237      46.7237 
  387000    106.69825   -7278.5551   -6723.8808   -607.96585     102002.7      46.7237      46.7237      46.7237 
  388000    110.96798   -7271.1993   -6694.3286   -759.61355     102002.7      46.7237      46.7237      46.7237 
  389000     111.0502   -7281.3448   -6704.0467    -636.3615     102002.7      46.7237      46.7237      46.7237 
  390000    108.01742   -7285.4457   -6723.9137   -1029.0368     102002.7      46.7237      46.7237      46.7237 
  391000    110.35994   -7257.3385   -6683.6288   -671.36948     102002.7      46.7237      46.7237      46.7237 
  392000    108.90965   -7267.6342   -6701.4638   -788.33367     102002.7      46.7237      46.7237      46.7237 
  393000    108.42154   -7259.6345   -6696.0016   -651.13869     102002.7      46.7237      46.7237      46.7237 
  394000     111.0761   -7264.6156   -6687.1828   -527.59491     102002.7      46.7237      46.7237      46.7237 
  395000    107.50945   -7252.3396   -6693.4482   -622.42279     102002.7      46.7237      46.7237      46.7237 
  396000    108.98723   -7271.1839   -6704.6103   -698.97326     102002.7      46.7237      46.7237      46.7237 
  397000    112.42711   -7258.7698   -6674.3138   -728.18831     102002.7      46.7237      46.7237      46.7237 
  398000    108.20375   -7278.5437    -6716.043   -839.43793     102002.7      46.7237      46.7237      46.7237 
  399000    112.92807   -7284.5834   -6697.5231   -717.94716     102002.7      46.7237      46.7237      46.7237 
  400000    111.85181   -7272.6747   -6691.2094   -493.33057     102002.7      46.7237      46.7237      46.7237 
  401000    110.58662   -7280.0153   -6705.1272   -617.99522     102002.7      46.7237      46.7237      46.7237 
  402000    109.49688   -7260.5003   -6691.2772   -672.47219     102002.7      46.7237      46.7237      46.7237 
  403000    108.64784    -7262.137   -6697.3277   -941.22276     102002.7      46.7237      46.7237      46.7237 
  404000    106.30836   -7288.9666   -6736.3191   -614.72923     102002.7      46.7237      46.7237      46.7237 
  405000    111.36115   -7269.4582   -6690.5436   -666.16122     102002.7      46.7237      46.7237      46.7237 
  406000    106.20442   -7266.7618   -6714.6546   -897.90209     102002.7      46.7237      46.7237      46.7237 
  407000    111.04824   -7259.4585   -6682.1706   -974.22747     102002.7      46.7237      46.7237      46.7237 
  408000    108.44999    -7275.971   -6712.1902   -816.09852     102002.7      46.7237      46.7237      46.7237 
  409000    113.21236    -7280.664   -6692.1259   -1031.4632     102002.7      46.7237      46.7237      46.7237 
  410000    111.25046    -7290.801   -6712.4618   -822.22065     102002.7      46.7237      46.7237      46.7237 
  411000    108.16475   -7285.7586   -6723.4606   -873.22327     102002.7      46.7237      46.7237      46.7237 
  412000    114.08244   -7274.5438   -6681.4825   -883.52566     102002.7      46.7237      46.7237      46.7237 
  413000    107.58071   -7290.0601   -6730.7982   -934.75934     102002.7      46.7237      46.7237      46.7237 
  414000     111.0437   -7280.9046   -6703.6402    -961.2398     102002.7      46.7237      46.7237      46.7237 
  415000    109.50158    -7260.459   -6691.2115   -814.27746     102002.7      46.7237      46.7237      46.7237 
  416000    110.74112   -7286.8232   -6711.1319    -1018.444     102002.7      46.7237      46.7237      46.7237 
  417000    107.63481   -7255.1816   -6695.6386   -859.11315     102002.7      46.7237      46.7237      46.7237 
  418000    110.31752   -7281.6022   -6708.1129   -1056.6832     102002.7      46.7237      46.7237      46.7237 
  419000    115.48458   -7256.4297   -6656.0793   -765.68265     102002.7      46.7237      46.7237      46.7237 
  420000     110.8016   -7273.5566   -6697.5508   -856.32796     102002.7      46.7237      46.7237      46.7237 
  421000    109.88472   -7291.0578   -6719.8185   -850.63858     102002.7      46.7237      46.7237      46.7237 
  422000      108.261   -7269.8292   -6707.0309   -951.86201     102002.7      46.7237      46.7237      46.7237 
  423000    109.13332   -7284.6683   -6717.3352   -572.77544     102002.7      46.7237      46.7237      46.7237 
  424000    110.91923     -7269.42   -6692.8027    -708.1926     102002.7      46.7237      46.7237      46.7237 
  425000    109.67466   -7258.3645   -6688.2172   -685.68585     102002.7      46.7237      46.7237      46.7237 
  426000     105.3071   -7259.7844    -6712.342   -683.41692     102002.7      46.7237      46.7237      46.7237 
  427000    111.04003   -7283.8988   -6706.6535   -816.79648     102002.7      46.7237      46.7237      46.7237 
  428000    111.17571   -7259.3538   -6681.4032   -628.45294     102002.7      46.7237      46.7237      46.7237 
  429000    108.31593   -7279.5753   -6716.4914   -698.68079     102002.7      46.7237      46.7237      46.7237 
  430000    110.88516   -7273.6268   -6697.1867   -866.42596     102002.7      46.7237      46.7237      46.7237 
  431000    108.27523   -7273.7293   -6710.8569   -744.36021     102002.7      46.7237      46.7237      46.7237 
  432000    112.20216   -7259.9172   -6676.6307   -1034.5812     102002.7      46.7237      46.7237      46.7237 
  433000    107.97454   -7261.8576   -6700.5484   -862.48408     102002.7      46.7237      46.7237      46.7237 
  434000    115.56685   -7266.0218   -6665.2438   -749.29183     102002.7      46.7237      46.7237      46.7237 
  435000    109.05772   -7251.7134   -6684.7733   -741.83095     102002.7      46.7237      46.7237      46.7237 
  436000    109.17185   -7281.6027   -6714.0692   -744.05229     102002.7      46.7237      46.7237      46.7237 
  437000    109.17217   -7277.3729   -6709.8378   -728.81597     102002.7      46.7237      46.7237      46.7237 
  438000    112.20513   -7290.3863   -6707.0843    -838.3767     102002.7      46.7237      46.7237      46.7237 
  439000    110.99717   -7257.0444    -6680.022   -772.43143     102002.7      46.7237      46.7237      46.7237 
  440000    108.78123   -7269.5612   -6704.0584   -959.34756     102002.7      46.7237      46.7237      46.7237 
  441000    113.12768   -7260.5695   -6672.4715    -701.1838     102002.7      46.7237      46.7237      46.7237 
  442000    109.05164   -7270.3907   -6703.4822   -713.12631     102002.7      46.7237      46.7237      46.7237 
  443000    108.16151   -7272.5093   -6710.2281   -611.16237     102002.7      46.7237      46.7237      46.7237 
  444000    111.30376   -7277.1874   -6698.5712   -762.52089     102002.7      46.7237      46.7237      46.7237 
  445000    106.42246   -7262.8219   -6709.5813   -612.16577     102002.7      46.7237      46.7237      46.7237 
  446000    106.41614    -7255.435   -6702.2272   -743.57954     102002.7      46.7237      46.7237      46.7237 
  447000    108.80483   -7266.1834   -6700.5579   -1001.0932     102002.7      46.7237      46.7237      46.7237 
  448000    108.98716   -7265.4197   -6698.8463   -731.34553     102002.7      46.7237      46.7237      46.7237 
  449000    110.27203   -7273.6822   -6700.4294   -768.68844     102002.7      46.7237      46.7237      46.7237 
  450000    110.44429   -7259.1934   -6685.0451   -678.46678     102002.7      46.7237      46.7237      46.7237 
  451000    106.18781   -7272.5631   -6720.5423   -846.26111     102002.7      46.7237      46.7237      46.7237 
  452000     109.5184   -7269.5348   -6700.1998   -798.78621     102002.7      46.7237      46.7237      46.7237 
  453000     109.3233   -7291.7869   -6723.4661   -656.07088     102002.7      46.7237      46.7237      46.7237 
  454000    111.69123    -7273.546   -6692.9155   -973.93012     102002.7      46.7237      46.7237      46.7237 
  455000    114.46758   -7252.0902   -6657.0268   -1007.0663     102002.7      46.7237      46.7237      46.7237 
  456000    107.13819    -7275.735   -6718.7737   -817.66787     102002.7      46.7237      46.7237      46.7237 
  457000    109.26107   -7260.0851   -6692.0878   -779.76656     102002.7      46.7237      46.7237      46.7237 
  458000    107.42101   -7261.2843   -6702.8527   -517.91486     102002.7      46.7237      46.7237      46.7237 
  459000    111.58997   -7257.5296   -6677.4255   -948.15415     102002.7      46.7237      46.7237      46.7237 
  460000    108.12419   -7287.9038   -6725.8167   -1249.0409     102002.7      46.7237      46.7237      46.7237 
  461000    110.49837    -7272.879   -6698.4496   -918.04126     102002.7      46.7237      46.7237      46.7237 
  462000    106.93272   -7271.3303   -6715.4371   -1039.7584     102002.7      46.7237      46.7237      46.7237 
  463000     108.6477   -7294.5295   -6729.7209   -838.99994     102002.7      46.7237      46.7237      46.7237 
  464000    108.98227   -7271.3779     -6704.83   -887.50099     102002.7      46.7237      46.7237      46.7237 
  465000    109.17048   -7286.3414   -6718.8151   -898.68129     102002.7      46.7237      46.7237      46.7237 
  466000    111.10759   -7270.5899   -6692.9935   -639.02453     102002.7      46.7237      46.7237      46.7237 
  467000    107.05907   -7276.5241    -6719.974   -608.49751     102002.7      46.7237      46.7237      46.7237 
  468000    112.38468   -7282.1589   -6697.9235   -801.28491     102002.7      46.7237      46.7237      46.7237 
  469000    106.99688   -7275.0303   -6718.8035   -742.25838     102002.7      46.7237      46.7237      46.7237 
  470000    114.92546   -7242.7365   -6645.2927   -475.72729     102002.7      46.7237      46.7237      46.7237 
  471000    107.86184   -7261.7062   -6700.9829   -943.04612     102002.7      46.7237      46.7237      46.7237 
  472000    104.55161   -7268.0102   -6724.4952   -829.22071     102002.7      46.7237      46.7237      46.7237 
  473000    109.42735   -7262.8174   -6693.9558   -970.32715     102002.7      46.7237      46.7237      46.7237 
  474000    108.15028    -7285.827   -6723.6043   -754.52052     102002.7      46.7237      46.7237      46.7237 
  475000    110.70248   -7270.8511   -6695.3606   -487.88874     102002.7      46.7237      46.7237      46.7237 
  476000    113.09549   -7264.7478   -6676.8172   -594.83234     102002.7      46.7237      46.7237      46.7237 
  477000    108.25048   -7271.6965   -6708.9528   -565.27143     102002.7      46.7237      46.7237      46.7237 
  478000    109.27338   -7290.2713   -6722.2101   -569.03638     102002.7      46.7237      46.7237      46.7237 
  479000     107.4022    -7259.311   -6700.9771   -469.89017     102002.7      46.7237      46.7237      46.7237 
  480000    110.65142   -7294.0791   -6718.8541   -809.60684     102002.7      46.7237      46.7237      46.7237 
  481000    108.36535   -7264.0324   -6700.6915    -972.7185     102002.7      46.7237      46.7237      46.7237 
  482000    108.63785   -7264.0525   -6699.2951   -699.79852     102002.7      46.7237      46.7237      46.7237 
  483000     107.5642   -7277.2996   -6718.1236   -695.66656     102002.7      46.7237      46.7237      46.7237 
  484000    108.66946   -7263.1879   -6698.2661   -369.69201     102002.7      46.7237      46.7237      46.7237 
  485000    110.75312   -7275.5903   -6699.8366   -807.92195     102002.7      46.7237      46.7237      46.7237 
  486000    108.80982   -7278.6932   -6713.0418   -541.48356     102002.7      46.7237      46.7237      46.7237 
  487000      112.895   -7237.5217   -6650.6333   -723.48766     102002.7      46.7237      46.7237      46.7237 
  488000    109.73398   -7271.8554   -6701.3997   -731.16341     102002.7      46.7237      46.7237      46.7237 
  489000    104.37423   -7277.7143   -6735.1215    -518.6319     102002.7      46.7237      46.7237      46.7237 
  490000     111.0173   -7271.9517   -6694.8247   -750.49878     102002.7      46.7237      46.7237      46.7237 
  491000    105.07088   -7270.5837   -6724.3693   -675.34425     102002.7      46.7237      46.7237      46.7237 
  492000    108.56678   -7276.0948   -6711.7069   -835.42255     102002.7      46.7237      46.7237      46.7237 
  493000    111.72368   -7273.4424   -6692.6432   -518.20249     102002.7      46.7237      46.7237      46.7237 
  494000    113.29262   -7258.6491   -6669.6937   -861.73826     102002.7      46.7237      46.7237      46.7237 
  495000    109.69031   -7272.8938   -6702.6651   -686.38542     102002.7      46.7237      46.7237      46.7237 
  496000    111.78287   -7262.5329    -6681.426   -602.11356     102002.7      46.7237      46.7237      46.7237 
  497000    107.02462   -7266.0344   -6709.6633   -770.66219     102002.7      46.7237      46.7237      46.7237 
  498000     107.4778   -7259.9126   -6701.1857   -682.69948     102002.7      46.7237      46.7237      46.7237 
  499000    114.53091   -7268.2444   -6672.8517   -764.25345     102002.7      46.7237      46.7237      46.7237 
  500000    108.58265   -7251.7539   -6687.2835   -582.04561     102002.7      46.7237      46.7237      46.7237 
  500507    107.32371   -7250.0254   -6692.0996    -739.1239     102002.7      46.7237      46.7237      46.7237 
Loop time of 557.195 on 24 procs for 500000 steps with 1745 atoms

Performance: 77.531 ns/day, 0.310 hours/ns, 897.352 timesteps/s
99.9% CPU use with 24 MPI tasks x no OpenMP threads

MPI task timing breakdown:
Section |  min time  |  avg time  |  max time  |%varavg| %total
---------------------------------------------------------------
Pair    | 186.45     | 275.81     | 355.94     | 295.4 | 49.50
Bond    | 70.695     | 78.416     | 83.46      |  39.7 | 14.07
Neigh   | 1.8143     | 1.8337     | 1.8459     |   0.9 |  0.33
Comm    | 110.38     | 194.01     | 281.83     | 348.0 | 34.82
Output  | 0.30963    | 0.30994    | 0.31361    |   0.1 |  0.06
Modify  | 3.4393     | 3.8506     | 4.0899     |   9.2 |  0.69
Other   |            | 2.966      |            |       |  0.53

Nlocal:    72.7083 ave 101 max 49 min
Histogram: 2 1 4 3 5 2 3 2 0 2
Nghost:    1987.46 ave 2151 max 1880 min
Histogram: 4 11 1 0 0 0 0 0 2 6
Neighs:    7642.46 ave 12609 max 3892 min
Histogram: 2 2 6 1 4 4 0 2 2 1

Total # of neighbors = 183419
Ave neighs/atom = 105.111
Ave special neighs/atom = 6.60172
Neighbor list builds = 3483
Dangerous builds = 0
Neighbor list info ...
  update every 1 steps, delay 10 steps, check yes
  max neighbors/atom: 2000, page size: 100000
  master list distance cutoff = 16
  ghost atom cutoff = 16
  binsize = 8, bins = 6 6 6
  3 neighbor lists, perpetual/occasional/extra = 3 0 0
  (1) pair buck6d/coul/gauss/dsf, perpetual, skip from (3)
      attributes: half, newton on
      pair build: skip
      stencil: none
      bin: none
  (2) pair lj/cut, perpetual, skip from (3)
      attributes: half, newton on
      pair build: skip
      stencil: none
      bin: none
  (3) neighbor class addition, perpetual
      attributes: half, newton on
      pair build: half/bin/newton
      stencil: half/bin/3d/newton
      bin: standard
Setting up Verlet run ...
  Unit style    : real
  Current step  : 500507
  Time step     : 1
WARNING: Inconsistent image flags (../domain.cpp:786)
Per MPI rank memory allocation (min/avg/max) = 23.92 | 24.45 | 24.57 Mbytes
Step Time TotEng KinEng PotEng E_mol E_pair Temp Pxx Pyy Pzz Pxy Pxz Pyz Cella Cellb Cellc CellAlpha CellBeta CellGamma Volume Press 
  500507       500000   -6692.0996    557.92579   -7250.0254    4336.1751     -11586.2    107.32371   -510.44156   -1003.9487   -702.98144    153.67467   -57.095194    -24.77497      46.7237      46.7237      46.7237           90           90           90     102002.7    -739.1239 
  501000       500493   -6696.3994    568.09271   -7264.4921    4323.1061   -11587.598    109.27943   -1188.6573   -853.86336   -1311.1775    303.28271   -202.93907    119.09931      46.7237      46.7237      46.7237           90           90           90     102002.7   -1117.8994 
  502000       501493   -6717.8047     564.2836   -7282.0883    4289.8215    -11571.91     108.5467   -726.92771   -744.00528   -1204.5338   -93.954404   -24.101463   -165.21029      46.7237      46.7237      46.7237           90           90           90     102002.7   -891.82228 
  503000       502493   -6682.2743    583.23933   -7265.5137    4301.0203   -11566.534    112.19307   -755.53659   -771.69023    -283.1007     44.27721    36.276129   -286.62556      46.7237      46.7237      46.7237           90           90           90     102002.7   -603.44251 
  504000       503493   -6703.4458    571.96657   -7275.4123    4301.0385   -11576.451    110.02462   -805.81317   -1209.4214   -806.39423    385.07472    234.06664    234.73632      46.7237      46.7237      46.7237           90           90           90     102002.7   -940.54295 
  505000       504493   -6683.9711    582.37793    -7266.349    4317.1016   -11583.451    112.02737   -694.19291   -1053.0166   -873.89818    -179.6003   -94.379576   -7.6322017      46.7237      46.7237      46.7237           90           90           90     102002.7   -873.70256 
  506000       505493   -6720.6775    568.82462   -7289.5021    4304.4388   -11593.941    109.42022   -927.23511   -1334.4368   -895.73459   -119.56032   -197.19005     130.3801      46.7237      46.7237      46.7237           90           90           90     102002.7   -1052.4688 
  507000       506493   -6706.2618    563.67987   -7269.9417    4300.7693   -11570.711    108.43057   -822.19939   -938.56563   -720.00685    77.109594   -114.04406   -129.02798      46.7237      46.7237      46.7237           90           90           90     102002.7   -826.92395 
  508000       507493   -6690.2373    567.84346   -7258.0808    4332.1054   -11590.186    109.23149   -1125.5557   -662.46075   -903.49595   -44.290342   -264.73105     175.1021      46.7237      46.7237      46.7237           90           90           90     102002.7   -897.17081 
  509000       508493   -6711.1619    563.36825   -7274.5301    4306.9572   -11581.487    108.37063   -794.06577   -966.21785   -713.20259   -143.56578   -18.204663    54.516217      46.7237      46.7237      46.7237           90           90           90     102002.7    -824.4954 
  510000       509493   -6663.0318    600.36529   -7263.3971    4323.9314   -11587.328    115.48745   -529.67472   -713.32035   -856.35198   -416.95542    8.3689871    60.247697      46.7237      46.7237      46.7237           90           90           90     102002.7   -699.78235 
  511000       510493   -6712.1599    554.29529   -7266.4552    4319.7238   -11586.179    106.62533   -915.12137   -362.17065    -1021.996    94.118113   -104.22176    98.375413      46.7237      46.7237      46.7237           90           90           90     102002.7   -766.42935 
  512000       511493   -6684.7156    567.67237   -7252.3879    4329.0984   -11581.486    109.19858   -727.71879   -803.74704   -634.99099   -159.76026    201.80537    134.57826      46.7237      46.7237      46.7237           90           90           90     102002.7   -722.15227 
  513000       512493    -6735.575    546.95437   -7282.5294    4284.4669   -11566.996    105.21322   -447.20165   -765.75203   -730.76623    36.923218   -109.70514   -39.711593      46.7237      46.7237      46.7237           90           90           90     102002.7   -647.90664 
  514000       513493   -6687.4388    576.35352   -7263.7924    4316.3413   -11580.134     110.8685   -663.83193   -566.90783   -763.34467   -61.157717   -359.74584   -30.016636      46.7237      46.7237      46.7237           90           90           90     102002.7   -664.69481 
  515000       514493   -6692.8285    574.20181   -7267.0303     4303.309   -11570.339    110.45459   -1157.9208   -497.64715    -243.4176     128.8108    -68.29352    47.463941      46.7237      46.7237      46.7237           90           90           90     102002.7   -632.99517 
  516000       515493   -6710.0813    562.15533   -7272.2366    4304.7039    -11576.94    108.13731   -808.14841    -511.5289   -473.87976    114.44047    -92.73489    192.58139      46.7237      46.7237      46.7237           90           90           90     102002.7   -597.85236 
  517000       516493   -6664.9075    590.87513   -7255.7827    4333.3442   -11589.127     113.6619   -502.37538   -995.00531   -660.98264    208.50756   -122.80744    54.278349      46.7237      46.7237      46.7237           90           90           90     102002.7   -719.45444 
  518000       517493   -6685.8841    566.99685   -7252.8809    4321.5167   -11574.398    109.06863    -461.7296   -596.14343   -733.60011   -160.97088   -115.81617   -130.09164      46.7237      46.7237      46.7237           90           90           90     102002.7   -597.15771 
  519000       518493   -6703.5685    566.87314   -7270.4417    4294.1604   -11564.602    109.04484   -764.61674   -775.53956   -326.86115    -19.20542   -35.929382    318.20658      46.7237      46.7237      46.7237           90           90           90     102002.7   -622.33915 
  520000       519493   -6690.9316    565.96094   -7256.8925    4311.9279    -11568.82    108.86936    -354.5083   -662.63732   -858.92682    182.92204   -162.60428     4.041109      46.7237      46.7237      46.7237           90           90           90     102002.7   -625.35748 
  521000       520493   -6709.9343    571.13804   -7281.0723    4316.9534   -11598.026    109.86524   -733.07554    -1288.068   -464.45292    57.768443    98.767463   -94.999936      46.7237      46.7237      46.7237           90           90           90     102002.7   -828.53216 
  522000       521493   -6711.3686    563.65513   -7275.0238    4298.1156   -11573.139    108.42581   -993.43591   -1327.0891   -741.91282    4.8593871   -112.44739   -102.32064      46.7237      46.7237      46.7237           90           90           90     102002.7   -1020.8126 
  523000       522493   -6685.5174    581.55871   -7267.0761    4307.2535    -11574.33    111.86978   -1025.8548   -516.77887   -756.16453    142.90854    51.234322    110.48302      46.7237      46.7237      46.7237           90           90           90     102002.7   -766.26605 
  524000       523493   -6670.7754     576.9669   -7247.7423    4331.4666   -11579.209    110.98649   -899.53906   -883.08461   -701.06765    200.79737   -183.62557    25.889551      46.7237      46.7237      46.7237           90           90           90     102002.7   -827.89711 
  525000       524493   -6702.3533    572.18673     -7274.54    4303.2096    -11577.75    110.06697   -932.32263   -951.19798   -615.55578   -106.82146   -326.06768   -272.09029      46.7237      46.7237      46.7237           90           90           90     102002.7   -833.02546 
  526000       525493   -6724.9387    557.74658   -7282.6853    4312.2433   -11594.929    107.28923   -289.64909    -812.3321   -841.21828    31.329239    313.73858    134.56046      46.7237      46.7237      46.7237           90           90           90     102002.7   -647.73316 
  527000       526493   -6672.4811    594.72838   -7267.2094    4287.0017   -11554.211    114.40312    -475.3239   -448.15396   -984.16237   -207.11153   -136.01034   -210.34973      46.7237      46.7237      46.7237           90           90           90     102002.7   -635.88007 
  528000       527493   -6709.5349     573.1454   -7282.6803    4300.7256   -11583.406    110.25138    -833.9755   -733.62443   -653.64642   -195.77633    3.9941474   -92.222225      46.7237      46.7237      46.7237           90           90           90     102002.7   -740.41545 
  529000       528493   -6681.4282    582.94989   -7264.3781    4316.4883   -11580.866    112.13739   -1318.1851   -831.41091   -970.70182    47.876154    11.139809   -5.6384588      46.7237      46.7237      46.7237           90           90           90     102002.7   -1040.0993 
  530000       529493   -6694.8817    571.41873   -7266.3004    4328.5354   -11594.836    109.91923    -969.0492   -570.99435   -766.27601    44.859309    138.78083    -3.474825      46.7237      46.7237      46.7237           90           90           90     102002.7   -768.77318 
  531000       530493   -6686.3442    580.75221   -7267.0964    4306.1358   -11573.232    111.71464   -337.34286   -437.92116   -708.89621    7.3624946    96.273647   -339.17959      46.7237      46.7237      46.7237           90           90           90     102002.7   -494.72008 
  532000       531493   -6705.9407    566.85976   -7272.8005    4290.8863   -11563.687    109.04226   -1181.7258   -659.80288   -1088.9587   -275.41786    33.129337   -242.17686      46.7237      46.7237      46.7237           90           90           90     102002.7   -976.82912 
  533000       532493   -6717.9465    561.46646   -7279.4129    4287.7637   -11567.177    108.00479   -612.55038   -482.86892   -340.98196    -90.23167    54.792875   -77.442857      46.7237      46.7237      46.7237           90           90           90     102002.7   -478.80042 
  534000       533493   -6680.0659    594.49114    -7274.557    4302.1003   -11576.657    114.35749   -985.32551   -527.12538   -581.91119    -79.28125    99.328644    148.93409      46.7237      46.7237      46.7237           90           90           90     102002.7   -698.12069 
  535000       534493    -6708.018    559.56498    -7267.583    4301.1692   -11568.752    107.63902   -936.42613   -716.15883   -717.24912   -252.57875    166.80309    11.462093      46.7237      46.7237      46.7237           90           90           90     102002.7   -789.94469 
  536000       535493    -6697.081    574.73124   -7271.8122    4316.9416   -11588.754    110.55643   -626.60398   -599.08478    -791.3465    26.748245    41.156222    69.319434      46.7237      46.7237      46.7237           90           90           90     102002.7   -672.34509 
  537000       536493   -6661.2651     589.2404   -7250.5055    4329.9883   -11580.494    113.34744   -1276.9238   -693.34134   -827.54309   -153.01321   -43.681331    100.80681      46.7237      46.7237      46.7237           90           90           90     102002.7   -932.60274 
  538000       537493   -6702.7128    566.40114   -7269.1139    4328.6687   -11597.783    108.95404   -360.91635   -382.94528   -983.31854    55.367069    103.87134    12.864881      46.7237      46.7237      46.7237           90           90           90     102002.7   -575.72672 
  539000       538493   -6686.2553    578.82543   -7265.0808     4307.358   -11572.439      111.344    -375.3408   -701.10111    -555.1824   -29.783123    -103.7473    152.31597      46.7237      46.7237      46.7237           90           90           90     102002.7   -543.87477 
  540000       539493   -6690.1797    591.97443   -7282.1541      4303.98   -11586.134    113.87337   -394.30754   -349.06384   -854.93486   -154.82831    192.93749    105.25058      46.7237      46.7237      46.7237           90           90           90     102002.7   -532.76875 
  541000       540493   -6712.2741    566.50913   -7278.7833    4300.5281   -11579.311    108.97481   -1288.2448   -1074.4396   -873.82462    170.72275   -50.203385    139.81135      46.7237      46.7237      46.7237           90           90           90     102002.7   -1078.8363 
  542000       541493    -6697.336    574.70694    -7272.043     4295.608   -11567.651    110.55176   -805.70004   -686.62572   -772.65988    274.10916   -359.22503    72.341014      46.7237      46.7237      46.7237           90           90           90     102002.7   -754.99521 
  543000       542493   -6686.3498    584.06615   -7270.4159    4309.0579   -11579.474    112.35212   -943.67471    -646.6527   -583.22728   -39.049451    74.578294    91.054569      46.7237      46.7237      46.7237           90           90           90     102002.7   -724.51823 
  544000       543493    -6715.599    557.48723   -7273.0862    4308.5849   -11581.671    107.23934   -968.54156   -878.27661   -668.38115    100.94081    77.425264   -123.87428      46.7237      46.7237      46.7237           90           90           90     102002.7   -838.39977 
  545000       544493   -6687.3064    585.92327   -7273.2297    4320.0835   -11593.313    112.70936   -619.69558   -737.69036   -1234.5968    45.907241    -126.6308   -74.701658      46.7237      46.7237      46.7237           90           90           90     102002.7   -863.99425 
  546000       545493   -6685.1681     570.4551   -7255.6232    4313.1825   -11568.806    109.73387   -820.08024   -772.84041   -809.12759   -44.701232   -81.820965    44.522288      46.7237      46.7237      46.7237           90           90           90     102002.7   -800.68274 
  547000       546493   -6698.5329      574.504   -7273.0369    4300.0185   -11573.055    110.51272   -369.45196   -903.37399   -1186.3551   -77.664123   -30.298961   -193.86842      46.7237      46.7237      46.7237           90           90           90     102002.7   -819.72701 
  548000       547493   -6692.6424    577.18378   -7269.8262    4314.9562   -11584.782    111.02821   -859.13586   -955.96002   -1014.4149   -107.03169   -26.123366    63.895418      46.7237      46.7237      46.7237           90           90           90     102002.7   -943.17024 
  549000       548493   -6711.7604    556.48957     -7268.25    4317.2212   -11585.471    107.04743   -1167.0349   -844.46194   -961.83783    239.88482   -26.537832   -20.776985      46.7237      46.7237      46.7237           90           90           90     102002.7   -991.11156 
  550000       549493   -6699.4708    578.05422    -7277.525    4293.4211   -11570.946    111.19565   -938.62893    -832.0948   -869.35126    134.13341   -118.13604    96.994936      46.7237      46.7237      46.7237           90           90           90     102002.7     -880.025 
  551000       550493   -6680.9357    580.34299   -7261.2787    4316.3248   -11577.604    111.63592   -298.38253   -764.32002   -1336.1538    134.31431   -52.017015    253.44018      46.7237      46.7237      46.7237           90           90           90     102002.7   -799.61878 
  552000       551493   -6691.0582    589.75054   -7280.8087    4308.2822   -11589.091    113.44558   -996.52915   -1128.4599   -515.82139    107.67434   -137.65292    140.72882      46.7237      46.7237      46.7237           90           90           90     102002.7   -880.27013 
  553000       552493   -6703.3522     566.5186   -7269.8708    4303.4502   -11573.321    108.97663   -464.06482   -603.37524   -887.62145   0.21424082   -62.838725    39.130288      46.7237      46.7237      46.7237           90           90           90     102002.7   -651.68717 
  554000       553493   -6688.7427    586.02092   -7274.7636    4312.6753   -11587.439    112.72814   -614.84303   -691.16833   -472.23401    33.542247   -84.370726    49.605988      46.7237      46.7237      46.7237           90           90           90     102002.7   -592.74845 
  555000       554493   -6712.8547     566.2075   -7279.0622    4305.6547   -11584.717    108.91679   -866.05344   -1023.0335   -950.94145   -229.87805   -101.52854    27.663286      46.7237      46.7237      46.7237           90           90           90     102002.7   -946.67613 
[...]
  936000       935493   -6676.6032    577.18942   -7253.7926    4319.7428   -11573.535    111.02929   -223.29939   -847.09838   -760.63115   -27.086083    78.852041    77.070118      46.7237      46.7237      46.7237           90           90           90     102002.7   -610.34297 
  937000       936493   -6703.0239    576.20912   -7279.2331    4299.9677   -11579.201    110.84072   -655.17343   -853.81537   -690.08846   -147.92467    223.66289   -168.66917      46.7237      46.7237      46.7237           90           90           90     102002.7   -733.02576 
  938000       937493   -6683.7636    568.63349   -7252.3971    4309.5738   -11561.971    109.38346   -803.75736   -329.05845   -400.64204    73.853424    155.79181    121.32388      46.7237      46.7237      46.7237           90           90           90     102002.7   -511.15262 
  939000       938493   -6707.2746    567.75959   -7275.0342    4293.3188   -11568.353    109.21535   -678.68139   -485.39462   -246.11829   -93.110676    103.52042    114.67005      46.7237      46.7237      46.7237           90           90           90     102002.7   -470.06477 
  940000       939493    -6716.082    558.58425   -7274.6662    4292.0033    -11566.67    107.45037   -865.14404   -811.60322   -288.44349   -23.751593    -55.69916     -268.639      46.7237      46.7237      46.7237           90           90           90     102002.7   -655.06358 
  941000       940493   -6705.5272    563.68431   -7269.2115    4320.4292   -11589.641    108.43143   -1070.4566    -784.8245   -814.23376    205.25247      309.844    72.436196      46.7237      46.7237      46.7237           90           90           90     102002.7   -889.83829 
  942000       941493   -6687.9157    586.11505   -7274.0308    4300.7454   -11574.776    112.74625    -397.7011   -636.44603   -330.16398    212.87328    142.29489   -202.54742      46.7237      46.7237      46.7237           90           90           90     102002.7   -454.77037 
  943000       942493    -6714.143    567.89133   -7282.0344    4302.1671   -11584.201     109.2407   -467.52498    -804.3093   -89.012544     71.91863     130.7479    11.761046      46.7237      46.7237      46.7237           90           90           90     102002.7   -453.61561 
  944000       943493   -6697.5983    571.28265   -7268.8809    4317.6874   -11586.568    109.89306   -754.50368   -557.00889   -900.64628   -17.592244   -191.73134    180.89716      46.7237      46.7237      46.7237           90           90           90     102002.7   -737.38628 
  945000       944493    -6677.484    585.39812   -7262.8821    4319.1748   -11582.057    112.60834   -800.77966   -653.14797   -477.83103     35.96031   -219.36339    11.427869      46.7237      46.7237      46.7237           90           90           90     102002.7   -643.91956 
  946000       945493   -6704.3006    568.56703   -7272.8676    4316.9582   -11589.826    109.37067   -394.75348   -1006.3649   -1050.6367   -12.055591   -162.01301   -123.89015      46.7237      46.7237      46.7237           90           90           90     102002.7   -817.25171 
  947000       946493   -6670.0375    569.90748   -7239.9449    4344.9178   -11584.863    109.62853   -1032.9924   -302.69369   -1079.5759   -46.660243    64.127338    43.894344      46.7237      46.7237      46.7237           90           90           90     102002.7   -805.08734 
  948000       947493   -6690.2426    578.97338    -7269.216    4309.4886   -11578.705    111.37246   -995.22957   -761.86229    -674.3894    45.190926   -28.794056   -129.64035      46.7237      46.7237      46.7237           90           90           90     102002.7   -810.49375 
  949000       948493    -6686.765    584.37077   -7271.1358    4318.8961   -11590.032    112.41071   -549.38603   -1155.0729   -679.75449    87.321935    173.43624    79.804797      46.7237      46.7237      46.7237           90           90           90     102002.7   -794.73782 
  950000       949493   -6713.8959    563.73064   -7277.6266    4305.4048   -11583.031    108.44034    -634.1436   -410.02825   -346.28446    -1.418388    295.31089    75.250336      46.7237      46.7237      46.7237           90           90           90     102002.7   -463.48544 
  951000       950493   -6722.8563    575.14113   -7297.9975    4281.3525    -11579.35    110.63528    -696.4761   -656.62251   -645.43537   -68.770695   -1.8251281   -110.39343      46.7237      46.7237      46.7237           90           90           90     102002.7     -666.178 
  952000       951493   -6694.9013    575.14084   -7270.0421     4320.968    -11591.01    110.63523   -439.63496   -432.65753   -811.69564   -82.603026    206.30023   -119.65316      46.7237      46.7237      46.7237           90           90           90     102002.7   -561.32938 
  953000       952493   -6704.7301    573.18525   -7277.9154    4295.1143    -11573.03    110.25904   -941.63111   -988.20428   -604.98984   -28.617646   -41.435756   -66.933174      46.7237      46.7237      46.7237           90           90           90     102002.7   -844.94174 
  954000       953493   -6695.1739    577.76788   -7272.9418    4304.9504   -11577.892    111.14057   -871.23893   -905.09185   -604.05159    172.89894   -2.3878415    7.0732872      46.7237      46.7237      46.7237           90           90           90     102002.7   -793.46079 
  955000       954493   -6724.4538     556.5688   -7281.0226    4304.2361   -11585.259    107.06267   -871.76783   -727.08316   -999.26152   -117.69124   -3.0884472   -47.579621      46.7237      46.7237      46.7237           90           90           90     102002.7    -866.0375 
  956000       955493   -6712.5519    568.31733   -7280.8693    4297.2997   -11578.169    109.32264   -1046.4461    -786.8279   -1007.4925   -196.92264    18.365331    41.140755      46.7237      46.7237      46.7237           90           90           90     102002.7   -946.92214 
  957000       956493   -6688.6833    579.99731   -7268.6806    4314.4908   -11583.171    111.56943   -728.69511   -752.24756    -558.2102   -79.346935    20.442776   -42.651221      46.7237      46.7237      46.7237           90           90           90     102002.7   -679.71762 
  958000       957493   -6703.9797    568.11117   -7272.0908    4311.0496    -11583.14    109.28298   -722.60734   -577.08181   -1091.9375   -171.71291  -0.51884207    26.020898      46.7237      46.7237      46.7237           90           90           90     102002.7   -797.20889 
  959000       958493   -6718.7059    558.73011    -7277.436     4304.456   -11581.892    107.47843   -348.13048   -1118.0001   -538.01055   -9.1827322    178.93881    152.74933      46.7237      46.7237      46.7237           90           90           90     102002.7   -668.04704 
  960000       959493   -6693.2037    577.77879   -7270.9825    4310.1541   -11581.137    111.14267   -1006.1925   -693.00898   -721.86961   -92.548189   -191.07928   -29.458344      46.7237      46.7237      46.7237           90           90           90     102002.7   -807.02369 
  961000       960493    -6670.213    594.76729   -7264.9803    4315.1311   -11580.111    114.41061   -867.52749   -691.23653   -473.43775    112.49833    139.08585   -28.887846      46.7237      46.7237      46.7237           90           90           90     102002.7   -677.40059 
  962000       961493   -6688.4308    572.27027    -7260.701    4324.6324   -11585.333    110.08304   -1006.1675   -863.57519   -76.477863    22.162396   -21.145091    46.652864      46.7237      46.7237      46.7237           90           90           90     102002.7   -648.74017 
  963000       962493   -6693.2398    576.27869   -7269.5184    4310.5966   -11580.115     110.8541   -732.27724   -999.10542   -674.01156    70.618809   -93.842017   -163.22766      46.7237      46.7237      46.7237           90           90           90     102002.7   -801.79807 
  964000       963493   -6685.9218    584.48002   -7270.4019    4311.7631   -11582.165    112.43173   -791.56026   -499.76484    -741.2849   -87.111464   -122.04177   -28.519883      46.7237      46.7237      46.7237           90           90           90     102002.7   -677.53667 
  965000       964493   -6704.3216    569.23424   -7273.5558    4297.6602   -11571.216    109.49902   -865.37835   -989.99983   -44.052934   -32.619917    50.483844   -31.346643      46.7237      46.7237      46.7237           90           90           90     102002.7   -633.14371 
  966000       965493   -6687.8147    594.34513   -7282.1598    4298.5589   -11580.719     114.3294   -271.49262   -868.22087   -765.98004    -113.8166    300.01134    10.437511      46.7237      46.7237      46.7237           90           90           90     102002.7   -635.23118 
  967000       966493   -6684.1726    574.09464   -7258.2673    4321.6175   -11579.885    110.43398    -639.5787   -1294.5437   -1111.6851    -327.3231    75.953215   -50.987985      46.7237      46.7237      46.7237           90           90           90     102002.7   -1015.2692 
  968000       967493   -6713.8272    559.64333   -7273.4705     4303.465   -11576.935    107.65409   -514.79712   -970.57119   -439.02494   -129.62943   -214.07704   -42.985183      46.7237      46.7237      46.7237           90           90           90     102002.7   -641.46442 
  969000       968493   -6703.5937    560.80693   -7264.4007    4319.5059   -11583.907    107.87793   -881.51081   -430.89172   -348.71023   -87.317107   -299.56944   -48.619011      46.7237      46.7237      46.7237           90           90           90     102002.7   -553.70426 
  970000       969493   -6692.5624    577.38956    -7269.952    4311.1718   -11581.124    111.06779   -745.01397   -884.42727   -945.68677    54.896991    337.45724    144.06167      46.7237      46.7237      46.7237           90           90           90     102002.7     -858.376 
  971000       970493   -6700.8298    570.99573   -7271.8256    4300.2157   -11572.041    109.83786   -529.26574   -724.05152   -705.69892   -15.421702    100.62795    9.2254229      46.7237      46.7237      46.7237           90           90           90     102002.7   -653.00539 
  972000       971493    -6692.396    571.83832   -7264.2344    4294.4939   -11558.728    109.99995   -485.90712   -504.99405   -721.07956   -48.643654    147.08043   -207.00753      46.7237      46.7237      46.7237           90           90           90     102002.7   -570.66024 
  973000       972493   -6730.7264     566.8237   -7297.5501    4275.1447   -11572.695    109.03532   -178.86432   -823.53639   -1011.7797    86.668413   -145.87157    -137.5135      46.7237      46.7237      46.7237           90           90           90     102002.7   -671.39347 
  974000       973493    -6687.196    573.63712   -7260.8332    4315.1145   -11575.948    110.34597   -311.45998   -768.56318   -336.40522   -52.328715    95.416017     101.8642      46.7237      46.7237      46.7237           90           90           90     102002.7   -472.14279 
  975000       974493   -6715.8305    555.48311   -7271.3136    4305.9589   -11577.273    106.85383   -428.09837   -632.34535   -709.81366   -68.825514    53.929665    5.8195413      46.7237      46.7237      46.7237           90           90           90     102002.7   -590.08579 
  976000       975493   -6683.5779    579.70406   -7263.2819    4324.1792   -11587.461    111.51302    -665.1341    -877.7503   -747.62664   -92.481199   -77.868066    62.834377      46.7237      46.7237      46.7237           90           90           90     102002.7   -763.50368 
  977000       976493    -6713.264    563.27297   -7276.5369    4313.1309   -11589.668     108.3523   -665.05381   -872.59784   -987.57242   -36.096384    303.32406     128.8081      46.7237      46.7237      46.7237           90           90           90     102002.7   -841.74136 
  978000       977493   -6678.5852    580.42995   -7259.0151    4331.2318   -11590.247    111.65265   -967.55637   -972.65634   -668.64638   -16.295707   -117.20466    140.88472      46.7237      46.7237      46.7237           90           90           90     102002.7    -869.6197 
  979000       978493   -6711.9464    570.44107   -7282.3874    4300.6987   -11583.086    109.73117    -797.3191   -689.31754    -822.0636    202.67674     136.9312    374.37926      46.7237      46.7237      46.7237           90           90           90     102002.7   -769.56674 
  980000       979493   -6695.3447     577.3048   -7272.6495    4295.8405    -11568.49    111.05149   -802.75346   -374.09843   -867.66575    -156.1196   -175.59356    240.46249      46.7237      46.7237      46.7237           90           90           90     102002.7   -681.50588 
  981000       980493   -6703.9191    574.14597   -7278.0651    4304.2619   -11582.327    110.44385   -1357.8194   -853.22821   -627.16919   -85.248575    116.84428   -29.442533      46.7237      46.7237      46.7237           90           90           90     102002.7   -946.07227 
  982000       981493   -6685.0189    578.17387   -7263.1928    4314.5745   -11577.767    111.21866   -675.97378   -1352.7765   -575.93671    -170.8476    41.855315    129.95975      46.7237      46.7237      46.7237           90           90           90     102002.7     -868.229 
  983000       982493   -6690.5103    575.75799   -7266.2683    4297.7843   -11564.053    110.75394   -977.06929   -985.91621   -1159.7253    107.10667     72.41242    102.86883      46.7237      46.7237      46.7237           90           90           90     102002.7   -1040.9036 
  984000       983493   -6698.2139    571.60352   -7269.8175    4313.8129    -11583.63    109.95478   -518.45154   -751.08035   -1071.3794    109.42107    48.715634   -76.070436      46.7237      46.7237      46.7237           90           90           90     102002.7   -780.30375 
  985000       984493   -6708.9474    571.83529   -7280.7827     4305.838   -11586.621    109.99936   -590.43125   -1022.7358   -874.29347   -239.41608   -180.93299   -21.017984      46.7237      46.7237      46.7237           90           90           90     102002.7   -829.15351 
  986000       985493   -6694.3828    568.94315    -7263.326    4316.4238    -11579.75    109.44303   -563.27516   -873.94011   -988.01307     235.5686   -103.27379    85.023529      46.7237      46.7237      46.7237           90           90           90     102002.7   -808.40945 
  987000       986493   -6684.7199    579.58254   -7264.3024    4319.1866   -11583.489    111.48964   -718.43399   -225.09613   -855.92319    234.06935   -247.83478   -88.462088      46.7237      46.7237      46.7237           90           90           90     102002.7   -599.81777 
  988000       987493   -6680.0389    582.21006    -7262.249    4320.9368   -11583.186    111.99507   -1027.3507   -991.45297   -719.46578    131.18802    248.81079   -182.69674      46.7237      46.7237      46.7237           90           90           90     102002.7    -912.7565 
  989000       988493   -6694.7973    565.04939   -7259.8467    4307.6915   -11567.538    108.69401   -802.99045   -1118.7817   -56.027368    243.95327    94.828774   -168.25296      46.7237      46.7237      46.7237           90           90           90     102002.7   -659.26649 
  990000       989493    -6680.149      567.036    -7247.185    4325.2191   -11572.404    109.07616   -1092.9203   -814.78286   -800.57605   -161.52087    155.22589    307.65827      46.7237      46.7237      46.7237           90           90           90     102002.7   -902.75972 
  991000       990493   -6695.7182    575.82251   -7271.5407    4292.6008   -11564.142    110.76635   -1365.7921   -379.26274   -924.51354    101.26996    42.850874    138.55351      46.7237      46.7237      46.7237           90           90           90     102002.7   -889.85613 
  992000       991493   -6667.3974      574.248   -7241.6454    4328.6897   -11570.335    110.46348   -837.56419   -775.24504   -779.44464   -106.44802   -89.738701   -261.89743      46.7237      46.7237      46.7237           90           90           90     102002.7   -797.41795 
  993000       992493   -6691.4565    564.94449    -7256.401    4326.6122   -11583.013    108.67384   -922.42848   -728.18071   -1139.6084    51.953849    150.85935   -219.45521      46.7237      46.7237      46.7237           90           90           90     102002.7   -930.07252 
  994000       993493   -6707.9171    572.63403   -7280.5511    4285.7151   -11566.266    110.15301   -521.15252   -1006.3966   -1183.8605   -118.24783   -51.359526    165.49982      46.7237      46.7237      46.7237           90           90           90     102002.7   -903.80322 
  995000       994493   -6666.9261    592.23938   -7259.1655    4324.8675   -11584.033    113.92433   -635.19733   -535.04165   -616.96551    36.512495    67.411086   -111.17447      46.7237      46.7237      46.7237           90           90           90     102002.7   -595.73483 
  996000       995493   -6695.1078    568.59157   -7263.6994    4311.4959   -11575.195    109.37539   -809.32285   -787.04558   -684.15695    46.478671   -118.96858   -14.360344      46.7237      46.7237      46.7237           90           90           90     102002.7   -760.17513 
  997000       996493   -6704.7694    567.03353    -7271.803    4289.1636   -11560.967    109.07569    -659.0963    -399.6993   -602.96725    36.798418   -144.40324   -400.66396      46.7237      46.7237      46.7237           90           90           90     102002.7   -553.92095 
  998000       997493   -6691.2248     550.5738   -7241.7986    4337.6374   -11579.436    105.90946   -858.19011   -703.33866    -645.9896   -60.053405    88.044894    68.843737      46.7237      46.7237      46.7237           90           90           90     102002.7   -735.83946 
  999000       998493   -6697.6231    575.41849   -7273.0416    4317.1371   -11590.179    110.68864   -808.82363   -958.97517   -992.36961   -104.26354    122.54903   -195.26346      46.7237      46.7237      46.7237           90           90           90     102002.7   -920.05613 
 1000000       999493   -6710.8692     548.9736   -7259.8428    4337.4354   -11597.278    105.60164   -552.22213   -947.14523   -930.74997    209.65196    117.34211   -9.8300857      46.7237      46.7237      46.7237           90           90           90     102002.7   -810.03911 
 1000507      1000000    -6696.323     564.2288   -7260.5518    4324.0936   -11584.645    108.53616   -917.68568   -998.68716   -732.00198    67.382027   -25.089931    9.6694078      46.7237      46.7237      46.7237           90           90           90     102002.7   -882.79161 
Loop time of 616.492 on 24 procs for 500000 steps with 1745 atoms

Performance: 70.074 ns/day, 0.342 hours/ns, 811.040 timesteps/s
99.9% CPU use with 24 MPI tasks x no OpenMP threads

MPI task timing breakdown:
Section |  min time  |  avg time  |  max time  |%varavg| %total
---------------------------------------------------------------
Pair    | 212.54     | 304.99     | 388.66     | 323.4 | 49.47
Bond    | 72.969     | 82.581     | 90.939     |  53.6 | 13.40
Neigh   | 1.8276     | 1.8501     | 1.8668     |   1.0 |  0.30
Comm    | 124.3      | 211.42     | 308.78     | 394.9 | 34.29
Output  | 0.3594     | 0.40429    | 0.40643    |   1.5 |  0.07
Modify  | 11.63      | 12.223     | 12.584     |   7.4 |  1.98
Other   |            | 3.02       |            |       |  0.49

Nlocal:    72.7083 ave 105 max 46 min
Histogram: 1 2 0 5 7 4 3 1 0 1
Nghost:    1991.08 ave 2153 max 1881 min
Histogram: 4 10 2 0 0 0 0 0 0 8
Neighs:    7649.38 ave 11289 max 3883 min
Histogram: 1 4 1 2 5 0 5 2 0 4

Total # of neighbors = 183585
Ave neighs/atom = 105.206
Ave special neighs/atom = 6.60172
Neighbor list builds = 3474
Dangerous builds = 0
Total wall time: 0:19:35
