LAMMPS (30 Mar 2018)
Reading data file ...
  orthogonal box = (0 0 0) to (46.7237 46.7237 46.7237)
  2 by 2 by 4 MPI processor grid
  reading atoms ...
  3306 atoms
  scanning bonds ...
  5 = max bonds/atom
  scanning angles ...
  10 = max angles/atom
  scanning dihedrals ...
  32 = max dihedrals/atom
  scanning impropers ...
  3 = max impropers/atom
  reading bonds ...
  2064 bonds
  reading angles ...
  3696 angles
  reading dihedrals ...
  6240 dihedrals
  reading impropers ...
  1008 impropers
Finding 1-2 1-3 1-4 neighbors ...
  special bond factors lj:   0          0          0         
  special bond factors coul: 0          0          0         
  5 = max # of 1-2 neighbors
  8 = max # of 1-3 neighbors
  20 = max # of 1-4 neighbors
  19 = max # of special neighbors
Finding 1-2 1-3 1-4 neighbors ...
  special bond factors lj:   0          0          1         
  special bond factors coul: 1          1          1         
  5 = max # of 1-2 neighbors
  8 = max # of 1-3 neighbors
  19 = max # of special neighbors
WARNING: Using 'neigh_modify every 1 delay 0 check yes' setting during minimization (../min.cpp:168)
Neighbor list info ...
  update every 1 steps, delay 0 steps, check yes
  max neighbors/atom: 2000, page size: 100000
  master list distance cutoff = 16
  ghost atom cutoff = 16
  binsize = 8, bins = 6 6 6
  3 neighbor lists, perpetual/occasional/extra = 3 0 0
  (1) pair buck6d/coul/gauss/dsf, perpetual, skip from (3)
      attributes: half, newton on
      pair build: skip
      stencil: none
      bin: none
  (2) pair lj/cut, perpetual, skip from (3)
      attributes: half, newton on
      pair build: skip
      stencil: none
      bin: none
  (3) neighbor class addition, perpetual
      attributes: half, newton on
      pair build: half/bin/newton
      stencil: half/bin/3d/newton
      bin: standard
Setting up cg style minimization ...
  Unit style    : real
  Current step  : 0
WARNING: Inconsistent image flags (../domain.cpp:786)
Per MPI rank memory allocation (min/avg/max) = 23.02 | 23.48 | 23.92 Mbytes
Step Temp E_pair E_mol TotEng Press 
       0            0   -15956.006    6482.8914   -9473.1148    6461.4425 
     500            0   -16308.503    3765.1773   -12543.326   -1356.4922 
Loop time of 5.12033 on 16 procs for 500 steps with 3306 atoms

99.9% CPU use with 16 MPI tasks x no OpenMP threads

Minimization stats:
  Stopping criterion = max force evaluations
  Energy initial, next-to-last, final = 
        -9473.11477557     -12543.3046337     -12543.3260492
  Force two-norm initial, final = 2575.04 7.25936
  Force max component initial, final = 152.175 0.837621
  Final line search alpha, max atom move = 0.0157983 0.013233
  Iterations, force evaluations = 500 1000

MPI task timing breakdown:
Section |  min time  |  avg time  |  max time  |%varavg| %total
---------------------------------------------------------------
Pair    | 2.4505     | 3.1991     | 3.7451     |  19.2 | 62.48
Bond    | 0.29148    | 0.36354    | 0.43573    |   6.7 |  7.10
Neigh   | 0.03265    | 0.032763   | 0.032842   |   0.0 |  0.64
Comm    | 0.92241    | 1.4783     | 2.2282     |  28.7 | 28.87
Output  | 0          | 0          | 0          |   0.0 |  0.00
Modify  | 0          | 0          | 0          |   0.0 |  0.00
Other   |            | 0.04666    |            |       |  0.91

Nlocal:    206.625 ave 224 max 191 min
Histogram: 2 2 2 2 0 1 2 3 0 2
Nghost:    4140.81 ave 4159 max 4112 min
Histogram: 2 0 1 1 2 0 1 3 3 3
Neighs:    11504.5 ave 16709 max 7848 min
Histogram: 4 1 1 1 4 2 0 1 1 1

Total # of neighbors = 184072
Ave neighs/atom = 55.6782
Ave special neighs/atom = 3.48457
Neighbor list builds = 7
Dangerous builds = 0
Neighbor list info ...
  update every 1 steps, delay 10 steps, check yes
  max neighbors/atom: 2000, page size: 100000
  master list distance cutoff = 16
  ghost atom cutoff = 16
  binsize = 8, bins = 6 6 6
  3 neighbor lists, perpetual/occasional/extra = 3 0 0
  (1) pair buck6d/coul/gauss/dsf, perpetual, skip from (3)
      attributes: half, newton on
      pair build: skip
      stencil: none
      bin: none
  (2) pair lj/cut, perpetual, skip from (3)
      attributes: half, newton on
      pair build: skip
      stencil: none
      bin: none
  (3) neighbor class addition, perpetual
      attributes: half, newton on
      pair build: half/bin/newton
      stencil: half/bin/3d/newton
      bin: standard
Setting up Verlet run ...
  Unit style    : real
  Current step  : 500
  Time step     : 1
WARNING: Inconsistent image flags (../domain.cpp:786)
Per MPI rank memory allocation (min/avg/max) = 22.67 | 22.74 | 22.8 Mbytes
Step Temp PotEng TotEng Press Volume Lx Ly Lz 
     500           91   -12543.326   -11646.833   -954.73067     102002.7      46.7237      46.7237      46.7237 
    1000    75.959034   -11794.885   -11046.568    172.50994     102002.7      46.7237      46.7237      46.7237 
    2000    92.510141   -11646.941    -10735.57    11.891978     102002.7      46.7237      46.7237      46.7237 
    3000    92.383962   -11694.327   -10784.199    257.56576     102002.7      46.7237      46.7237      46.7237 
    4000    90.844768   -11645.981   -10751.017    594.87867     102002.7      46.7237      46.7237      46.7237 
    5000     91.69904   -11682.967   -10779.587    242.77119     102002.7      46.7237      46.7237      46.7237 
    6000    92.287638    -11668.43   -10759.251    229.49552     102002.7      46.7237      46.7237      46.7237 
    7000    91.535696   -11664.926   -10763.155    283.58136     102002.7      46.7237      46.7237      46.7237 
    8000    90.475945   -11655.015   -10763.684    387.37383     102002.7      46.7237      46.7237      46.7237 
    9000    91.064051   -11684.628   -10787.503     15.56837     102002.7      46.7237      46.7237      46.7237 
   10000    89.298854   -11689.981   -10810.247    318.13464     102002.7      46.7237      46.7237      46.7237 
   11000    91.060908   -11670.578   -10773.484    392.98364     102002.7      46.7237      46.7237      46.7237 
   12000    89.023982   -11690.778   -10813.752     567.8773     102002.7      46.7237      46.7237      46.7237 
   13000    93.463095   -11696.781   -10776.022    382.98875     102002.7      46.7237      46.7237      46.7237 
   14000    90.439991    -11670.95   -10779.973    272.11839     102002.7      46.7237      46.7237      46.7237 
   15000    92.312456   -11686.611   -10777.188    370.42154     102002.7      46.7237      46.7237      46.7237 
   16000    91.362441   -11677.009   -10776.944    775.97715     102002.7      46.7237      46.7237      46.7237 
   17000    89.973271   -11659.386   -10773.007    456.09959     102002.7      46.7237      46.7237      46.7237 
   18000    88.750211   -11684.821   -10810.491    510.83584     102002.7      46.7237      46.7237      46.7237 
   19000    91.610907   -11678.799   -10776.287    577.71583     102002.7      46.7237      46.7237      46.7237 
   20000     89.15105   -11702.002   -10823.723    499.93463     102002.7      46.7237      46.7237      46.7237 
   21000    88.905435   -11660.892   -10785.034    515.30763     102002.7      46.7237      46.7237      46.7237 
   22000    89.719136   -11686.293   -10802.418    107.16234     102002.7      46.7237      46.7237      46.7237 
   23000     92.93647   -11676.572   -10761.001    405.47032     102002.7      46.7237      46.7237      46.7237 
   24000    92.250549   -11705.133    -10796.32    577.52908     102002.7      46.7237      46.7237      46.7237 
   25000    91.657683   -11700.186   -10797.213    505.19048     102002.7      46.7237      46.7237      46.7237 
   26000    88.847097   -11656.339   -10781.055    545.53054     102002.7      46.7237      46.7237      46.7237 
   27000    90.110215   -11658.481   -10770.753    197.78169     102002.7      46.7237      46.7237      46.7237 
   28000    88.589213   -11666.748   -10794.005    65.828005     102002.7      46.7237      46.7237      46.7237 
   29000    89.782992   -11681.005   -10796.501    504.45664     102002.7      46.7237      46.7237      46.7237 
   30000    91.603128    -11674.91   -10772.474    388.33649     102002.7      46.7237      46.7237      46.7237 
   31000    92.029733     -11696.2   -10789.562    446.46169     102002.7      46.7237      46.7237      46.7237 
   32000    90.811135   -11674.544   -10779.911    338.23492     102002.7      46.7237      46.7237      46.7237 
   33000    90.043849   -11691.296   -10804.222    443.69048     102002.7      46.7237      46.7237      46.7237 
   34000    89.801463   -11676.088   -10791.402    343.23592     102002.7      46.7237      46.7237      46.7237 
   35000    90.884392   -11694.345   -10798.991    734.51072     102002.7      46.7237      46.7237      46.7237 
   36000    90.264805     -11682.3    -10793.05    302.17941     102002.7      46.7237      46.7237      46.7237 
   37000    90.201993   -11702.375   -10813.743     260.3577     102002.7      46.7237      46.7237      46.7237 
   38000    91.785208   -11672.379    -10768.15    380.38626     102002.7      46.7237      46.7237      46.7237 
   39000    92.440351   -11698.609   -10787.926    198.05599     102002.7      46.7237      46.7237      46.7237 
   40000    91.385859   -11670.526   -10770.231    595.08875     102002.7      46.7237      46.7237      46.7237 
   41000    90.603005   -11680.467   -10787.885     724.6898     102002.7      46.7237      46.7237      46.7237 
   42000    88.983804    -11710.12    -10833.49    519.92095     102002.7      46.7237      46.7237      46.7237 
   43000    92.753913     -11692.6   -10778.828    298.21871     102002.7      46.7237      46.7237      46.7237 
   44000    90.354418   -11697.797   -10807.663    465.08664     102002.7      46.7237      46.7237      46.7237 
   45000    91.847439   -11704.951   -10800.109    613.38314     102002.7      46.7237      46.7237      46.7237 
   46000      91.7784   -11685.251   -10781.089    284.64704     102002.7      46.7237      46.7237      46.7237 
   47000    89.641758   -11701.719   -10818.606     328.4972     102002.7      46.7237      46.7237      46.7237 
   48000    90.543443   -11705.218   -10813.223     686.1079     102002.7      46.7237      46.7237      46.7237 
   49000    92.053963   -11700.778   -10793.901    613.42328     102002.7      46.7237      46.7237      46.7237 
   50000    89.599096   -11706.384   -10823.691    315.55063     102002.7      46.7237      46.7237      46.7237 
   51000    90.909676   -11693.993    -10798.39    139.80782     102002.7      46.7237      46.7237      46.7237 
   52000    92.351288   -11697.486    -10787.68    599.35474     102002.7      46.7237      46.7237      46.7237 
   53000    91.066778   -11707.396   -10810.244    562.83717     102002.7      46.7237      46.7237      46.7237 
   54000     89.09288   -11710.092   -10832.387    388.75594     102002.7      46.7237      46.7237      46.7237 
   55000    92.703661   -11705.687    -10792.41    421.23195     102002.7      46.7237      46.7237      46.7237 
   56000    94.219215   -11709.154   -10780.947    443.93483     102002.7      46.7237      46.7237      46.7237 
   57000    90.363793   -11704.271   -10814.045    372.18531     102002.7      46.7237      46.7237      46.7237 
   58000    91.120599   -11694.288   -10796.606    481.53642     102002.7      46.7237      46.7237      46.7237 
   59000    89.387247   -11706.144   -10825.539    459.00475     102002.7      46.7237      46.7237      46.7237 
   60000     90.17864   -11687.485   -10799.083    750.43775     102002.7      46.7237      46.7237      46.7237 
   61000    91.111534   -11695.446   -10797.854    799.08146     102002.7      46.7237      46.7237      46.7237 
   62000    91.515416   -11701.335   -10799.764    784.76014     102002.7      46.7237      46.7237      46.7237 
   63000    92.683697   -11688.745   -10775.664    724.12463     102002.7      46.7237      46.7237      46.7237 
   64000     89.27075   -11698.097   -10818.639    428.72353     102002.7      46.7237      46.7237      46.7237 
   65000    93.490658   -11703.325   -10782.295    538.22057     102002.7      46.7237      46.7237      46.7237 
   66000    94.296246   -11703.077    -10774.11     530.5275     102002.7      46.7237      46.7237      46.7237 
   67000    91.457779   -11706.828   -10805.825    255.94693     102002.7      46.7237      46.7237      46.7237 
   68000    91.539457   -11700.374   -10798.566     321.1483     102002.7      46.7237      46.7237      46.7237 
   69000    90.824695   -11715.619   -10820.853    309.89091     102002.7      46.7237      46.7237      46.7237 
   70000    89.957112    -11706.31   -10820.091    356.10618     102002.7      46.7237      46.7237      46.7237 
   71000    91.681177   -11692.847   -10789.643    600.43468     102002.7      46.7237      46.7237      46.7237 
   72000    89.140991   -11720.773   -10842.594     418.3477     102002.7      46.7237      46.7237      46.7237 
   73000    89.017486   -11708.067   -10831.105    538.59432     102002.7      46.7237      46.7237      46.7237 
   74000    91.557267   -11701.912   -10799.928    380.00632     102002.7      46.7237      46.7237      46.7237 
   75000    89.959021   -11713.997   -10827.759    575.13585     102002.7      46.7237      46.7237      46.7237 
   76000    91.082713   -11712.895   -10815.587    478.11629     102002.7      46.7237      46.7237      46.7237 
   77000      92.9061     -11701.9   -10786.628    552.67417     102002.7      46.7237      46.7237      46.7237 
   78000    92.519352   -11713.053   -10801.592    320.68666     102002.7      46.7237      46.7237      46.7237 
   79000    91.516414    -11703.48   -10801.899     574.4116     102002.7      46.7237      46.7237      46.7237 
   80000    90.184003   -11707.915    -10819.46    699.05766     102002.7      46.7237      46.7237      46.7237 
   81000    91.354361   -11698.496   -10798.511    735.68839     102002.7      46.7237      46.7237      46.7237 
   82000    91.315111   -11723.586   -10823.988    236.06306     102002.7      46.7237      46.7237      46.7237 
   83000    89.971977   -11701.385   -10815.019    455.48552     102002.7      46.7237      46.7237      46.7237 
   84000    91.188289    -11705.87   -10807.521    158.15804     102002.7      46.7237      46.7237      46.7237 
   85000    89.538933   -11681.234   -10799.134    522.57378     102002.7      46.7237      46.7237      46.7237 
   86000    90.565276   -11713.304   -10821.093    293.72147     102002.7      46.7237      46.7237      46.7237 
   87000    91.521298   -11702.187   -10800.558    500.31215     102002.7      46.7237      46.7237      46.7237 
   88000    91.123007   -11698.676   -10800.971    521.30848     102002.7      46.7237      46.7237      46.7237 
   89000    93.164059   -11700.959   -10783.146    406.13497     102002.7      46.7237      46.7237      46.7237 
   90000    92.983016   -11711.353   -10795.323    563.87895     102002.7      46.7237      46.7237      46.7237 
   91000    92.115863   -11700.307    -10792.82    476.35538     102002.7      46.7237      46.7237      46.7237 
   92000    89.538124   -11712.799   -10830.708    362.69879     102002.7      46.7237      46.7237      46.7237 
   93000    90.250191   -11726.791   -10837.684    495.14447     102002.7      46.7237      46.7237      46.7237 
   94000    90.540969   -11694.426   -10802.454    451.99211     102002.7      46.7237      46.7237      46.7237 
   95000    90.493066   -11719.424   -10827.925    363.15594     102002.7      46.7237      46.7237      46.7237 
   96000    92.366535   -11704.959   -10795.003    442.94496     102002.7      46.7237      46.7237      46.7237 
   97000    90.977335     -11734.9    -10838.63    367.79013     102002.7      46.7237      46.7237      46.7237 
   98000    90.636129   -11695.744   -10802.835    331.99222     102002.7      46.7237      46.7237      46.7237 
   99000    91.177422   -11717.869   -10819.628    311.92265     102002.7      46.7237      46.7237      46.7237 
  100000    91.704196   -11690.842   -10787.411     299.2893     102002.7      46.7237      46.7237      46.7237 
  101000    94.455735   -11719.004   -10788.466    476.62212     102002.7      46.7237      46.7237      46.7237 
  102000     92.22537   -11699.868   -10791.303    501.04389     102002.7      46.7237      46.7237      46.7237 
  103000    88.593731   -11699.404   -10826.617    553.18292     102002.7      46.7237      46.7237      46.7237 
  104000    89.608394    -11682.98   -10800.196    444.90031     102002.7      46.7237      46.7237      46.7237 
  105000    91.704736   -11722.507   -10819.071    734.98579     102002.7      46.7237      46.7237      46.7237 
  106000    89.451414   -11713.487   -10832.249    577.89271     102002.7      46.7237      46.7237      46.7237 
  107000    90.756297   -11718.916   -10824.823     476.8807     102002.7      46.7237      46.7237      46.7237 
  108000    91.146292   -11699.756   -10801.821    615.45111     102002.7      46.7237      46.7237      46.7237 
  109000    91.451231   -11694.812   -10793.873    632.96856     102002.7      46.7237      46.7237      46.7237 
  110000    91.149384   -11694.166   -10796.201    392.38778     102002.7      46.7237      46.7237      46.7237 
  111000    90.953238   -11731.578   -10835.546    466.97164     102002.7      46.7237      46.7237      46.7237 
  112000    90.556955   -11704.325   -10812.196    559.44316     102002.7      46.7237      46.7237      46.7237 
  113000    92.013928   -11693.275   -10786.793    569.78819     102002.7      46.7237      46.7237      46.7237 
  114000    92.531212   -11719.305   -10807.727    542.91892     102002.7      46.7237      46.7237      46.7237 
  115000    91.996247   -11720.345   -10814.037    387.92925     102002.7      46.7237      46.7237      46.7237 
  116000    89.816108   -11697.222   -10812.392    508.43674     102002.7      46.7237      46.7237      46.7237 
  117000    92.067237   -11689.179   -10782.171    386.68297     102002.7      46.7237      46.7237      46.7237 
  118000    92.414024   -11705.226   -10794.802    345.52665     102002.7      46.7237      46.7237      46.7237 
  119000    90.853316   -11709.654   -10814.606    501.80901     102002.7      46.7237      46.7237      46.7237 
  120000    91.570322   -11696.183   -10794.071    311.73671     102002.7      46.7237      46.7237      46.7237 
  121000    90.245994   -11712.006    -10822.94    354.74456     102002.7      46.7237      46.7237      46.7237 
  122000    91.604953   -11714.681   -10812.228    565.59743     102002.7      46.7237      46.7237      46.7237 
  123000    88.987087   -11715.069   -10838.406    466.71183     102002.7      46.7237      46.7237      46.7237 
  124000     90.47538   -11715.067   -10823.742    334.26536     102002.7      46.7237      46.7237      46.7237 
  125000    91.787787   -11686.164    -10781.91    606.02969     102002.7      46.7237      46.7237      46.7237 
  126000    92.691228    -11711.05   -10797.895    550.54849     102002.7      46.7237      46.7237      46.7237 
  127000    92.272044   -11713.411   -10804.385    537.84969     102002.7      46.7237      46.7237      46.7237 
  128000    91.482847   -11705.255   -10804.005    383.11131     102002.7      46.7237      46.7237      46.7237 
  129000    88.252497   -11705.198   -10835.772     625.8242     102002.7      46.7237      46.7237      46.7237 
  130000    92.497055    -11723.19   -10811.948     577.7302     102002.7      46.7237      46.7237      46.7237 
  131000     91.94302   -11719.904    -10814.12    327.24895     102002.7      46.7237      46.7237      46.7237 
  132000    91.272881   -11754.216   -10855.034    360.77992     102002.7      46.7237      46.7237      46.7237 
  133000    92.022557   -11716.609   -10810.041    537.73947     102002.7      46.7237      46.7237      46.7237 
  134000    90.896194   -11732.018   -10836.547    560.75069     102002.7      46.7237      46.7237      46.7237 
  135000    91.025689    -11716.65   -10819.903    502.48011     102002.7      46.7237      46.7237      46.7237 
  136000    88.138234   -11731.788   -10863.487     572.3356     102002.7      46.7237      46.7237      46.7237 
  137000    91.020437   -11713.196   -10816.501     470.5705     102002.7      46.7237      46.7237      46.7237 
  138000     90.54717   -11708.905   -10816.872    390.25098     102002.7      46.7237      46.7237      46.7237 
  139000    90.374412   -11742.095   -10851.765    284.81508     102002.7      46.7237      46.7237      46.7237 
  140000    91.199587   -11721.635   -10823.175    417.92557     102002.7      46.7237      46.7237      46.7237 
  141000    91.020284   -11712.907   -10816.214    602.89296     102002.7      46.7237      46.7237      46.7237 
  142000    91.314576   -11711.265   -10811.673    520.36781     102002.7      46.7237      46.7237      46.7237 
  143000     90.64984   -11718.752   -10825.708    234.60199     102002.7      46.7237      46.7237      46.7237 
  144000    88.580726   -11729.714   -10857.054    536.58524     102002.7      46.7237      46.7237      46.7237 
  145000    92.093568    -11716.82   -10809.553    372.03471     102002.7      46.7237      46.7237      46.7237 
  146000    89.703409    -11736.82     -10853.1    396.44372     102002.7      46.7237      46.7237      46.7237 
  147000    91.668267    -11730.93   -10827.853    564.94001     102002.7      46.7237      46.7237      46.7237 
  148000    92.064116   -11691.856   -10784.879    291.07659     102002.7      46.7237      46.7237      46.7237 
  149000    91.586608   -11707.865   -10805.593    391.31659     102002.7      46.7237      46.7237      46.7237 
  150000    90.890129   -11722.207   -10826.796    344.11211     102002.7      46.7237      46.7237      46.7237 
  151000    88.922192   -11723.664    -10847.64     380.0027     102002.7      46.7237      46.7237      46.7237 
  152000    91.896728   -11714.097   -10808.769    397.90914     102002.7      46.7237      46.7237      46.7237 
  153000    91.864608   -11740.851   -10835.839    559.41013     102002.7      46.7237      46.7237      46.7237 
  154000    93.052181   -11723.216   -10806.505     675.0843     102002.7      46.7237      46.7237      46.7237 
  155000    90.839137    -11720.46   -10825.551    368.61539     102002.7      46.7237      46.7237      46.7237 
  156000    91.197033   -11719.045    -10820.61     253.2218     102002.7      46.7237      46.7237      46.7237 
  157000    92.411054   -11725.199   -10814.804    359.48394     102002.7      46.7237      46.7237      46.7237 
  158000    89.840764   -11741.673     -10856.6    340.15393     102002.7      46.7237      46.7237      46.7237 
  159000    91.641135   -11718.234   -10815.424     244.0978     102002.7      46.7237      46.7237      46.7237 
  160000    91.731034    -11686.06   -10782.364    552.89038     102002.7      46.7237      46.7237      46.7237 
  161000    91.398613    -11723.42       -10823     647.3174     102002.7      46.7237      46.7237      46.7237 
  162000    91.060986   -11703.825    -10806.73    543.51047     102002.7      46.7237      46.7237      46.7237 
  163000    91.004403   -11737.208   -10840.671    556.46873     102002.7      46.7237      46.7237      46.7237 
  164000    90.979616   -11717.585   -10821.292     824.3664     102002.7      46.7237      46.7237      46.7237 
  165000    91.559631    -11719.47   -10817.463    424.57898     102002.7      46.7237      46.7237      46.7237 
  166000    90.929554     -11729.2   -10833.401    251.80038     102002.7      46.7237      46.7237      46.7237 
  167000    92.209098   -11707.054   -10798.649     732.2599     102002.7      46.7237      46.7237      46.7237 
  168000    91.174253   -11706.555   -10808.345    307.05829     102002.7      46.7237      46.7237      46.7237 
  169000    90.322466   -11730.122   -10840.304    309.16707     102002.7      46.7237      46.7237      46.7237 
  170000     89.03789   -11732.337   -10855.173    386.85198     102002.7      46.7237      46.7237      46.7237 
  171000    89.971431   -11722.664   -10836.304    292.53645     102002.7      46.7237      46.7237      46.7237 
  172000     91.45129    -11713.21    -10812.27    758.47675     102002.7      46.7237      46.7237      46.7237 
  173000    90.995435   -11716.536   -10820.087     539.7154     102002.7      46.7237      46.7237      46.7237 
  174000     90.27864   -11719.075   -10829.688    310.09449     102002.7      46.7237      46.7237      46.7237 
  175000     89.30413   -11709.569   -10829.783     383.0983     102002.7      46.7237      46.7237      46.7237 
  176000    90.352708   -11726.554   -10836.437    489.76603     102002.7      46.7237      46.7237      46.7237 
  177000    91.256619   -11709.074   -10810.053    423.76811     102002.7      46.7237      46.7237      46.7237 
  178000    90.234848   -11732.874   -10843.918    636.27571     102002.7      46.7237      46.7237      46.7237 
  179000    91.867638   -11733.841     -10828.8    188.87042     102002.7      46.7237      46.7237      46.7237 
  180000    91.930861   -11730.435   -10824.771    180.89105     102002.7      46.7237      46.7237      46.7237 
  181000    91.504808   -11724.951   -10823.485    486.38155     102002.7      46.7237      46.7237      46.7237 
  182000    88.924275   -11702.136   -10826.092    484.44146     102002.7      46.7237      46.7237      46.7237 
  183000    90.051828   -11698.839   -10811.687    525.31167     102002.7      46.7237      46.7237      46.7237 
  184000    91.718105   -11735.162   -10831.594    233.35776     102002.7      46.7237      46.7237      46.7237 
  185000    90.237258   -11736.569    -10847.59    311.05852     102002.7      46.7237      46.7237      46.7237 
  186000    93.836278   -11730.402   -10805.966     637.3165     102002.7      46.7237      46.7237      46.7237 
  187000     89.46365   -11723.679   -10842.321    408.12725     102002.7      46.7237      46.7237      46.7237 
  188000    89.193073   -11730.782    -10852.09    528.68393     102002.7      46.7237      46.7237      46.7237 
  189000    91.155686   -11732.739   -10834.711    469.35448     102002.7      46.7237      46.7237      46.7237 
  190000    90.662328   -11707.479   -10814.312    563.61172     102002.7      46.7237      46.7237      46.7237 
  191000    91.735981   -11722.233   -10818.489    376.12007     102002.7      46.7237      46.7237      46.7237 
  192000    91.245072   -11716.579   -10817.671    159.83703     102002.7      46.7237      46.7237      46.7237 
  193000    90.250595   -11722.012   -10832.901    396.47233     102002.7      46.7237      46.7237      46.7237 
  194000    93.123052   -11730.603   -10813.194    507.45567     102002.7      46.7237      46.7237      46.7237 
  195000    90.388159   -11740.161   -10849.695    429.34992     102002.7      46.7237      46.7237      46.7237 
  196000    91.388994   -11732.901   -10832.575    287.73423     102002.7      46.7237      46.7237      46.7237 
  197000    91.552252   -11712.161   -10810.227    608.55105     102002.7      46.7237      46.7237      46.7237 
  198000    90.762066   -11738.309    -10844.16    727.62279     102002.7      46.7237      46.7237      46.7237 
  199000    92.623383   -11725.305   -10812.819    346.16418     102002.7      46.7237      46.7237      46.7237 
  200000    92.204868   -11732.593   -10824.229    622.91493     102002.7      46.7237      46.7237      46.7237 
  201000    90.428535    -11717.77   -10826.906    373.51432     102002.7      46.7237      46.7237      46.7237 
  202000    90.215585   -11715.219   -10826.453    235.14272     102002.7      46.7237      46.7237      46.7237 
  203000    90.361856    -11727.47   -10837.263    405.66576     102002.7      46.7237      46.7237      46.7237 
  204000    90.406837   -11727.634   -10836.984    549.73854     102002.7      46.7237      46.7237      46.7237 
  205000    90.170534   -11724.331   -10836.009    282.99972     102002.7      46.7237      46.7237      46.7237 
  206000    90.582095   -11717.854   -10825.477    478.37437     102002.7      46.7237      46.7237      46.7237 
  207000    89.604255   -11687.253   -10804.509     309.2258     102002.7      46.7237      46.7237      46.7237 
  208000    90.900471   -11691.462   -10795.949    627.21677     102002.7      46.7237      46.7237      46.7237 
  209000    91.619437   -11720.295   -10817.699    452.08253     102002.7      46.7237      46.7237      46.7237 
  210000    90.864082   -11736.837   -10841.683     684.4896     102002.7      46.7237      46.7237      46.7237 
  211000    90.400726   -11731.973   -10841.384    498.23307     102002.7      46.7237      46.7237      46.7237 
  212000    91.453138    -11713.96   -10813.002    678.66666     102002.7      46.7237      46.7237      46.7237 
  213000    91.837692   -11733.824   -10829.078     726.3149     102002.7      46.7237      46.7237      46.7237 
  214000    91.998783   -11723.602   -10817.269     619.9703     102002.7      46.7237      46.7237      46.7237 
  215000    89.614505   -11735.589   -10852.745     586.3548     102002.7      46.7237      46.7237      46.7237 
  216000    90.861553   -11735.869    -10840.74    376.31101     102002.7      46.7237      46.7237      46.7237 
  217000    90.737494   -11712.291   -10818.384    555.54683     102002.7      46.7237      46.7237      46.7237 
  218000    88.836662   -11715.836   -10840.655    184.36484     102002.7      46.7237      46.7237      46.7237 
  219000    90.145041   -11729.978   -10841.907    377.80436     102002.7      46.7237      46.7237      46.7237 
  220000    90.623686   -11721.776    -10828.99    524.50686     102002.7      46.7237      46.7237      46.7237 
  221000    91.771141   -11729.562   -10825.472    562.13616     102002.7      46.7237      46.7237      46.7237 
  222000    91.535788   -11724.844   -10823.072    207.98433     102002.7      46.7237      46.7237      46.7237 
  223000    90.166983   -11719.481   -10831.194    406.86001     102002.7      46.7237      46.7237      46.7237 
  224000    90.885191   -11723.444   -10828.081    727.52629     102002.7      46.7237      46.7237      46.7237 
  225000    89.914298   -11718.968   -10833.171    411.10448     102002.7      46.7237      46.7237      46.7237 
  226000       91.675   -11747.992   -10844.848    396.63217     102002.7      46.7237      46.7237      46.7237 
  227000    91.219174   -11723.583    -10824.93    189.28715     102002.7      46.7237      46.7237      46.7237 
  228000    90.436631   -11712.507   -10821.563    413.72186     102002.7      46.7237      46.7237      46.7237 
  229000    89.744757    -11726.53   -10842.402    455.38773     102002.7      46.7237      46.7237      46.7237 
  230000    90.694254       -11723   -10829.518    185.11864     102002.7      46.7237      46.7237      46.7237 
  231000    92.254576   -11722.246   -10813.393    508.41868     102002.7      46.7237      46.7237      46.7237 
  232000    90.980202   -11711.825   -10815.526    317.57693     102002.7      46.7237      46.7237      46.7237 
  233000    87.579515   -11734.131   -10871.334    241.64887     102002.7      46.7237      46.7237      46.7237 
  234000    90.219065   -11725.452   -10836.652    57.664738     102002.7      46.7237      46.7237      46.7237 
  235000    91.198842    -11738.95   -10840.497    95.778725     102002.7      46.7237      46.7237      46.7237 
  236000    91.533464   -11705.168   -10803.419    454.03706     102002.7      46.7237      46.7237      46.7237 
  237000    92.634676   -11743.772   -10831.174    376.37991     102002.7      46.7237      46.7237      46.7237 
  238000    90.816332   -11723.233   -10828.549    374.41439     102002.7      46.7237      46.7237      46.7237 
  239000    89.662236   -11716.398   -10833.083    434.06546     102002.7      46.7237      46.7237      46.7237 
  240000     90.81991   -11686.398   -10791.679    544.27774     102002.7      46.7237      46.7237      46.7237 
  241000    91.292296   -11728.479   -10829.106    599.15157     102002.7      46.7237      46.7237      46.7237 
  242000    91.707052   -11724.007   -10820.547    225.21178     102002.7      46.7237      46.7237      46.7237 
  243000    93.517453    -11723.06   -10801.766    164.48987     102002.7      46.7237      46.7237      46.7237 
  244000    89.320818   -11731.307   -10851.356    268.66289     102002.7      46.7237      46.7237      46.7237 
  245000    91.809404   -11716.015   -10811.548    479.81452     102002.7      46.7237      46.7237      46.7237 
  246000    89.474041   -11745.484   -10864.024    436.56905     102002.7      46.7237      46.7237      46.7237 
  247000     91.77678   -11726.526   -10822.379    422.57706     102002.7      46.7237      46.7237      46.7237 
  248000    88.896997   -11744.492   -10868.717    593.98753     102002.7      46.7237      46.7237      46.7237 
  249000    93.436526   -11734.021   -10813.524    569.04956     102002.7      46.7237      46.7237      46.7237 
  250000    90.739273   -11730.999   -10837.074    632.31434     102002.7      46.7237      46.7237      46.7237 
  251000    92.034617   -11763.135   -10856.449    161.73076     102002.7      46.7237      46.7237      46.7237 
  252000    92.343154   -11710.466   -10800.741    310.50937     102002.7      46.7237      46.7237      46.7237 
  253000    90.940537   -11730.511   -10834.603    269.93541     102002.7      46.7237      46.7237      46.7237 
  254000      91.1908   -11723.252   -10824.879    488.92417     102002.7      46.7237      46.7237      46.7237 
  255000    89.644203   -11720.407    -10837.27    235.36011     102002.7      46.7237      46.7237      46.7237 
  256000    93.041043   -11703.863   -10787.262    227.60741     102002.7      46.7237      46.7237      46.7237 
  257000    92.037407   -11724.951   -10818.237    233.13376     102002.7      46.7237      46.7237      46.7237 
  258000    90.448379   -11726.014   -10834.955    388.42552     102002.7      46.7237      46.7237      46.7237 
  259000    90.747907   -11719.119   -10825.109    782.86369     102002.7      46.7237      46.7237      46.7237 
  260000    91.727181   -11733.176   -10829.518    629.97513     102002.7      46.7237      46.7237      46.7237 
  261000     89.92174   -11730.833   -10844.962    327.17499     102002.7      46.7237      46.7237      46.7237 
  262000     90.59877   -11721.321    -10828.78    261.02166     102002.7      46.7237      46.7237      46.7237 
  263000    92.209095   -11715.957   -10807.552    274.36513     102002.7      46.7237      46.7237      46.7237 
  264000    89.929636   -11714.297   -10828.348    421.22328     102002.7      46.7237      46.7237      46.7237 
  265000    89.463142   -11713.514   -10832.161    515.18361     102002.7      46.7237      46.7237      46.7237 
  266000    91.632379   -11710.154    -10807.43     425.2174     102002.7      46.7237      46.7237      46.7237 
  267000    91.535716   -11734.456   -10832.685    689.52848     102002.7      46.7237      46.7237      46.7237 
  268000     89.28319   -11739.156   -10859.576    743.73302     102002.7      46.7237      46.7237      46.7237 
  269000    90.753901   -11740.167   -10846.098    622.81504     102002.7      46.7237      46.7237      46.7237 
  270000    92.505295     -11694.9   -10783.577    765.73784     102002.7      46.7237      46.7237      46.7237 
  271000    91.896707   -11722.682   -10817.354    605.94329     102002.7      46.7237      46.7237      46.7237 
  272000    91.220499   -11699.449   -10800.784     470.7564     102002.7      46.7237      46.7237      46.7237 
  273000    90.663291   -11730.278   -10837.101    480.22544     102002.7      46.7237      46.7237      46.7237 
  274000    90.894339   -11726.603   -10831.151    350.33847     102002.7      46.7237      46.7237      46.7237 
  275000    89.985571   -11720.416   -10833.917    59.718283     102002.7      46.7237      46.7237      46.7237 
  276000    88.387851   -11731.588   -10860.828    588.35157     102002.7      46.7237      46.7237      46.7237 
  277000    88.984573   -11738.556   -10861.918    267.57998     102002.7      46.7237      46.7237      46.7237 
  278000    89.971328   -11746.165   -10859.805    143.78672     102002.7      46.7237      46.7237      46.7237 
  279000    90.635511   -11712.389   -10819.486    427.20765     102002.7      46.7237      46.7237      46.7237 
  280000    91.010635   -11690.794   -10794.196    445.18187     102002.7      46.7237      46.7237      46.7237 
  281000    89.408004    -11715.53    -10834.72    402.68344     102002.7      46.7237      46.7237      46.7237 
  282000    90.519975   -11720.018   -10828.254    521.46708     102002.7      46.7237      46.7237      46.7237 
  283000    89.556294   -11723.463   -10841.192    343.74693     102002.7      46.7237      46.7237      46.7237 
  284000    88.839494   -11744.695   -10869.486    517.84671     102002.7      46.7237      46.7237      46.7237 
  285000    90.721348   -11718.101   -10824.353    524.42919     102002.7      46.7237      46.7237      46.7237 
  286000    92.109158   -11718.296   -10810.876    341.44029     102002.7      46.7237      46.7237      46.7237 
  287000    89.823127   -11712.891   -10827.992      262.696     102002.7      46.7237      46.7237      46.7237 
  288000    94.452146   -11707.661   -10777.159    434.30005     102002.7      46.7237      46.7237      46.7237 
  289000    93.155152   -11742.671   -10824.946    344.69115     102002.7      46.7237      46.7237      46.7237 
  290000    93.063239   -11730.789   -10813.969    515.14112     102002.7      46.7237      46.7237      46.7237 
  291000    92.667412   -11747.435   -10834.514    506.57004     102002.7      46.7237      46.7237      46.7237 
  292000    88.779294   -11699.342   -10824.726    414.16122     102002.7      46.7237      46.7237      46.7237 
  293000    90.560432   -11712.634   -10820.471    516.93317     102002.7      46.7237      46.7237      46.7237 
  294000     89.70978   -11719.278   -10835.495    495.68434     102002.7      46.7237      46.7237      46.7237 
  295000    90.648247   -11728.729     -10835.7    506.05102     102002.7      46.7237      46.7237      46.7237 
  296000    92.663967   -11720.114   -10807.228    79.611269     102002.7      46.7237      46.7237      46.7237 
  297000    90.332149   -11718.547   -10828.633     584.9529     102002.7      46.7237      46.7237      46.7237 
  298000    90.994072   -11732.088   -10835.653    725.91298     102002.7      46.7237      46.7237      46.7237 
  299000    91.589676   -11723.293    -10820.99    259.98833     102002.7      46.7237      46.7237      46.7237 
  300000    89.476595   -11718.126    -10836.64     188.0737     102002.7      46.7237      46.7237      46.7237 
  301000    91.515758   -11743.848   -10842.274    278.89786     102002.7      46.7237      46.7237      46.7237 
  302000    91.014911   -11727.972   -10831.332    435.89779     102002.7      46.7237      46.7237      46.7237 
  303000    91.603883   -11742.365   -10839.922    294.99632     102002.7      46.7237      46.7237      46.7237 
  304000    91.213003   -11735.312    -10836.72     616.0587     102002.7      46.7237      46.7237      46.7237 
  305000    92.361223   -11746.287   -10836.383    576.55933     102002.7      46.7237      46.7237      46.7237 
  306000    90.081867   -11738.454   -10851.006    372.72369     102002.7      46.7237      46.7237      46.7237 
  307000    91.011112   -11708.152   -10811.549     467.5375     102002.7      46.7237      46.7237      46.7237 
  308000    88.549568   -11723.534   -10851.181    587.25636     102002.7      46.7237      46.7237      46.7237 
  309000    90.840691   -11735.774    -10840.85    287.49064     102002.7      46.7237      46.7237      46.7237 
  310000    92.885631    -11740.67     -10825.6    485.78636     102002.7      46.7237      46.7237      46.7237 
  311000    92.041996   -11705.211   -10798.453    453.30678     102002.7      46.7237      46.7237      46.7237 
  312000    91.033138   -11738.383   -10841.563     260.8521     102002.7      46.7237      46.7237      46.7237 
  313000    89.217325   -11733.703   -10854.772    234.25087     102002.7      46.7237      46.7237      46.7237 
  314000    90.693062   -11719.781   -10826.311    473.44605     102002.7      46.7237      46.7237      46.7237 
  315000    91.687045   -11730.181   -10826.919    518.14356     102002.7      46.7237      46.7237      46.7237 
  316000     91.32173   -11726.848   -10827.185    560.58889     102002.7      46.7237      46.7237      46.7237 
  317000    91.703709   -11712.189   -10808.763    594.30798     102002.7      46.7237      46.7237      46.7237 
  318000     92.55579   -11745.383   -10833.563    426.00719     102002.7      46.7237      46.7237      46.7237 
  319000     90.64961   -11734.558   -10841.516    425.27978     102002.7      46.7237      46.7237      46.7237 
  320000    89.926195   -11716.673   -10830.758    515.26713     102002.7      46.7237      46.7237      46.7237 
  321000    93.816171   -11702.039   -10777.802    625.38556     102002.7      46.7237      46.7237      46.7237 
  322000    90.747428   -11729.411   -10835.406    704.73598     102002.7      46.7237      46.7237      46.7237 
  323000    92.699002   -11697.817   -10784.586    463.14916     102002.7      46.7237      46.7237      46.7237 
  324000    91.032376   -11730.954   -10834.142    557.38846     102002.7      46.7237      46.7237      46.7237 
  325000    93.813727    -11726.26   -10802.046    399.39274     102002.7      46.7237      46.7237      46.7237 
  326000     91.69432   -11730.644    -10827.31    341.29855     102002.7      46.7237      46.7237      46.7237 
  327000    91.584774   -11728.117   -10825.862    552.37245     102002.7      46.7237      46.7237      46.7237 
  328000    94.047392    -11732.57   -10806.055    286.62445     102002.7      46.7237      46.7237      46.7237 
  329000    89.876304   -11722.127   -10836.704    50.499228     102002.7      46.7237      46.7237      46.7237 
  330000    91.294977   -11692.872   -10793.472    495.69115     102002.7      46.7237      46.7237      46.7237 
  331000    91.537842   -11727.301   -10825.508    404.59437     102002.7      46.7237      46.7237      46.7237 
  332000    90.065606   -11705.371   -10818.083    486.00606     102002.7      46.7237      46.7237      46.7237 
  333000    92.448592   -11747.536   -10836.771    499.59059     102002.7      46.7237      46.7237      46.7237 
  334000    93.413256   -11727.267   -10806.999    370.71389     102002.7      46.7237      46.7237      46.7237 
  335000    89.922392   -11746.144   -10860.266    447.01989     102002.7      46.7237      46.7237      46.7237 
  336000    89.140191   -11734.064   -10855.893    681.09832     102002.7      46.7237      46.7237      46.7237 
  337000    91.691861   -11733.054   -10829.744    444.27619     102002.7      46.7237      46.7237      46.7237 
  338000    92.076682   -11710.121    -10803.02    619.12699     102002.7      46.7237      46.7237      46.7237 
  339000    91.446167   -11728.782   -10827.893    365.13327     102002.7      46.7237      46.7237      46.7237 
  340000    89.405152   -11737.297   -10856.515    519.55726     102002.7      46.7237      46.7237      46.7237 
  341000    92.072618   -11716.928   -10809.868    598.54312     102002.7      46.7237      46.7237      46.7237 
  342000    90.716055   -11725.383   -10831.687    491.21505     102002.7      46.7237      46.7237      46.7237 
  343000     90.71415   -11721.619   -10827.941    382.99535     102002.7      46.7237      46.7237      46.7237 
  344000    89.538741   -11723.803   -10841.705      439.357     102002.7      46.7237      46.7237      46.7237 
  345000    89.693701   -11704.793   -10821.168    540.25347     102002.7      46.7237      46.7237      46.7237 
  346000    90.354263   -11740.095   -10849.963    640.62124     102002.7      46.7237      46.7237      46.7237 
  347000    90.483326   -11725.664    -10834.26    599.35411     102002.7      46.7237      46.7237      46.7237 
  348000    92.132291   -11738.045   -10830.397      704.504     102002.7      46.7237      46.7237      46.7237 
  349000    88.610888   -11733.037    -10860.08    144.76118     102002.7      46.7237      46.7237      46.7237 
  350000    92.032306   -11741.265   -10834.602    194.89065     102002.7      46.7237      46.7237      46.7237 
  351000    92.253364   -11756.081    -10847.24    186.55318     102002.7      46.7237      46.7237      46.7237 
  352000    90.771148   -11729.994   -10835.755    318.86112     102002.7      46.7237      46.7237      46.7237 
  353000    92.206302   -11729.339   -10820.961    598.55308     102002.7      46.7237      46.7237      46.7237 
  354000     91.94462   -11715.585   -10809.785    443.06565     102002.7      46.7237      46.7237      46.7237 
  355000      89.8397   -11728.157   -10843.094     513.9565     102002.7      46.7237      46.7237      46.7237 
  356000    92.333512   -11739.373   -10829.743    447.94662     102002.7      46.7237      46.7237      46.7237 
  357000    92.060445   -11723.163   -10816.223    230.89278     102002.7      46.7237      46.7237      46.7237 
  358000    89.089967   -11720.117    -10842.44    348.45697     102002.7      46.7237      46.7237      46.7237 
  359000    91.278063   -11735.855   -10836.622    293.14004     102002.7      46.7237      46.7237      46.7237 
  360000    90.588047   -11750.171   -10857.735    333.62625     102002.7      46.7237      46.7237      46.7237 
  361000    94.000769   -11738.965   -10812.909    389.42542     102002.7      46.7237      46.7237      46.7237 
  362000    92.393491   -11722.846   -10812.624     287.2657     102002.7      46.7237      46.7237      46.7237 
  363000     88.40012    -11698.77   -10827.889     369.7143     102002.7      46.7237      46.7237      46.7237 
  364000    92.332068   -11736.305   -10826.689    432.12773     102002.7      46.7237      46.7237      46.7237 
  365000    91.265181   -11730.088   -10830.982    513.34845     102002.7      46.7237      46.7237      46.7237 
  366000    90.528103   -11753.205    -10861.36    640.84353     102002.7      46.7237      46.7237      46.7237 
  367000    93.463338   -11733.161     -10812.4    75.565205     102002.7      46.7237      46.7237      46.7237 
  368000    93.219973   -11743.673    -10825.31    350.18183     102002.7      46.7237      46.7237      46.7237 
  369000    90.867739   -11754.306   -10859.116    674.60285     102002.7      46.7237      46.7237      46.7237 
  370000      91.5064   -11733.272    -10831.79    460.96841     102002.7      46.7237      46.7237      46.7237 
  371000    91.683306   -11726.486   -10823.261    400.90469     102002.7      46.7237      46.7237      46.7237 
  372000    90.125251   -11719.891   -10832.015    434.46691     102002.7      46.7237      46.7237      46.7237 
  373000    92.037847   -11723.108    -10816.39    722.95456     102002.7      46.7237      46.7237      46.7237 
  374000    91.789304   -11725.318   -10821.049    527.12132     102002.7      46.7237      46.7237      46.7237 
  375000    91.469122   -11733.917   -10832.801    534.83573     102002.7      46.7237      46.7237      46.7237 
  376000    90.035864   -11731.248   -10844.252    493.96296     102002.7      46.7237      46.7237      46.7237 
  377000    91.495801   -11724.231   -10822.853    414.53935     102002.7      46.7237      46.7237      46.7237 
  378000    91.606554   -11718.357   -10815.888    500.43924     102002.7      46.7237      46.7237      46.7237 
  379000    92.098847   -11720.763   -10813.444    308.17514     102002.7      46.7237      46.7237      46.7237 
  380000    89.574325   -11746.047   -10863.599    266.38891     102002.7      46.7237      46.7237      46.7237 
  381000    91.151798   -11747.897   -10849.908    372.62402     102002.7      46.7237      46.7237      46.7237 
  382000    89.840619   -11696.994   -10811.922    51.103296     102002.7      46.7237      46.7237      46.7237 
  383000    90.718515   -11729.441   -10835.721    346.86235     102002.7      46.7237      46.7237      46.7237 
  384000    91.706913   -11710.143   -10806.685     346.3754     102002.7      46.7237      46.7237      46.7237 
  385000    92.379783   -11724.516   -10814.429    437.60659     102002.7      46.7237      46.7237      46.7237 
  386000    91.855651   -11746.947   -10842.024    346.57595     102002.7      46.7237      46.7237      46.7237 
  387000    92.360689   -11723.757   -10813.859    596.05907     102002.7      46.7237      46.7237      46.7237 
  388000    92.031076   -11734.113   -10827.462    423.24073     102002.7      46.7237      46.7237      46.7237 
  389000    90.615218   -11727.058   -10834.355    285.67396     102002.7      46.7237      46.7237      46.7237 
  390000    89.399562   -11739.914   -10859.187    449.13002     102002.7      46.7237      46.7237      46.7237 
  391000    90.595644   -11725.167   -10832.657    184.44985     102002.7      46.7237      46.7237      46.7237 
  392000    90.767686   -11730.798   -10836.593    473.09059     102002.7      46.7237      46.7237      46.7237 
  393000    90.756761   -11724.245   -10830.148     286.7876     102002.7      46.7237      46.7237      46.7237 
  394000    90.204372   -11740.454   -10851.799    190.36614     102002.7      46.7237      46.7237      46.7237 
  395000     90.50374   -11732.135    -10840.53    386.18612     102002.7      46.7237      46.7237      46.7237 
  396000    89.764501   -11716.357   -10832.035    349.03718     102002.7      46.7237      46.7237      46.7237 
  397000    92.138462   -11737.387   -10829.677    461.70466     102002.7      46.7237      46.7237      46.7237 
  398000    91.547394   -11743.167   -10841.281    479.92975     102002.7      46.7237      46.7237      46.7237 
  399000     90.66657   -11705.266   -10812.057     727.4014     102002.7      46.7237      46.7237      46.7237 
  400000    92.314134   -11750.787   -10841.347    489.75538     102002.7      46.7237      46.7237      46.7237 
  401000    90.116424   -11703.889     -10816.1    583.81179     102002.7      46.7237      46.7237      46.7237 
  402000    90.433058   -11738.524   -10847.616    628.41425     102002.7      46.7237      46.7237      46.7237 
  403000    91.021876   -11733.966   -10837.257    423.27058     102002.7      46.7237      46.7237      46.7237 
  404000     89.07407   -11735.816   -10858.296    319.36895     102002.7      46.7237      46.7237      46.7237 
  405000     92.45922   -11727.187   -10816.318    388.89675     102002.7      46.7237      46.7237      46.7237 
  406000    89.354237   -11726.121   -10845.841    419.31295     102002.7      46.7237      46.7237      46.7237 
  407000    88.033393   -11743.419   -10876.152    208.35702     102002.7      46.7237      46.7237      46.7237 
  408000     91.18027   -11725.665   -10827.396    423.08468     102002.7      46.7237      46.7237      46.7237 
  409000    92.191538   -11729.356   -10821.124    286.63205     102002.7      46.7237      46.7237      46.7237 
  410000    89.585682   -11763.772   -10881.212    169.51351     102002.7      46.7237      46.7237      46.7237 
  411000    90.458963   -11718.762   -10827.599    484.97654     102002.7      46.7237      46.7237      46.7237 
  412000    89.382216   -11724.783   -10844.227    399.00132     102002.7      46.7237      46.7237      46.7237 
  413000    91.772988   -11749.333   -10845.224    476.45934     102002.7      46.7237      46.7237      46.7237 
  414000    87.764615   -11735.375   -10870.755    456.86598     102002.7      46.7237      46.7237      46.7237 
  415000    92.091894   -11743.914   -10836.664    239.07694     102002.7      46.7237      46.7237      46.7237 
  416000     90.41057   -11735.265   -10844.578    440.63657     102002.7      46.7237      46.7237      46.7237 
  417000    89.635985    -11719.48   -10836.424    337.60277     102002.7      46.7237      46.7237      46.7237 
  418000    90.894677   -11733.089   -10837.633    510.06064     102002.7      46.7237      46.7237      46.7237 
  419000    92.303862   -11718.953   -10809.615    556.62303     102002.7      46.7237      46.7237      46.7237 
  420000    91.250979   -11733.953   -10834.987    503.36185     102002.7      46.7237      46.7237      46.7237 
  421000     91.06717   -11728.314   -10831.159    311.20475     102002.7      46.7237      46.7237      46.7237 
  422000    91.464741   -11726.064   -10824.992    607.37348     102002.7      46.7237      46.7237      46.7237 
  423000    89.566969   -11730.207   -10847.831    410.53184     102002.7      46.7237      46.7237      46.7237 
  424000    89.863821   -11751.774   -10866.473    146.78684     102002.7      46.7237      46.7237      46.7237 
  425000    93.302584   -11735.184   -10816.007    633.56017     102002.7      46.7237      46.7237      46.7237 
  426000    91.218994   -11721.494   -10822.843    584.89179     102002.7      46.7237      46.7237      46.7237 
  427000    90.181356   -11757.983   -10869.554    290.19627     102002.7      46.7237      46.7237      46.7237 
  428000    90.003348   -11759.238   -10872.563    564.52555     102002.7      46.7237      46.7237      46.7237 
  429000    93.743118   -11721.345   -10797.827    709.72169     102002.7      46.7237      46.7237      46.7237 
  430000    89.301934   -11723.824   -10844.059    481.47688     102002.7      46.7237      46.7237      46.7237 
  431000    89.566309   -11719.376   -10837.007    323.00838     102002.7      46.7237      46.7237      46.7237 
  432000    89.992308   -11723.624   -10837.058    151.69696     102002.7      46.7237      46.7237      46.7237 
  433000    93.180623   -11742.166    -10824.19    353.81956     102002.7      46.7237      46.7237      46.7237 
  434000    91.354238    -11736.57   -10836.587    413.57479     102002.7      46.7237      46.7237      46.7237 
  435000    89.857234    -11731.99   -10846.754    61.594559     102002.7      46.7237      46.7237      46.7237 
  436000    92.796687   -11747.178   -10832.984    348.34553     102002.7      46.7237      46.7237      46.7237 
  437000    90.617309   -11709.927   -10817.204    262.59145     102002.7      46.7237      46.7237      46.7237 
  438000    92.742432   -11724.712   -10811.053    295.43928     102002.7      46.7237      46.7237      46.7237 
  439000    89.956951   -11736.284   -10850.066    510.06321     102002.7      46.7237      46.7237      46.7237 
  440000       89.787   -11731.418   -10846.875    463.86609     102002.7      46.7237      46.7237      46.7237 
  441000    91.526443   -11721.937   -10820.257    423.93895     102002.7      46.7237      46.7237      46.7237 
  442000     91.68402    -11740.35   -10837.118    545.54267     102002.7      46.7237      46.7237      46.7237 
  443000    90.050131   -11727.594   -10840.458     264.4159     102002.7      46.7237      46.7237      46.7237 
  444000    90.543402   -11734.539   -10842.543    627.76728     102002.7      46.7237      46.7237      46.7237 
  445000    91.900585   -11725.549   -10820.184     255.6947     102002.7      46.7237      46.7237      46.7237 
  446000    92.745345   -11707.753   -10794.065    437.14203     102002.7      46.7237      46.7237      46.7237 
  447000    90.444219   -11740.214   -10849.196    65.803061     102002.7      46.7237      46.7237      46.7237 
  448000    91.783662   -11750.355   -10846.142    334.25141     102002.7      46.7237      46.7237      46.7237 
  449000    90.287774   -11724.185   -10834.708    409.80171     102002.7      46.7237      46.7237      46.7237 
  450000    91.986658   -11731.748   -10825.535      112.739     102002.7      46.7237      46.7237      46.7237 
  451000      90.2217   -11748.774   -10859.948    388.18873     102002.7      46.7237      46.7237      46.7237 
  452000    87.890942   -11723.843   -10857.979    514.09854     102002.7      46.7237      46.7237      46.7237 
  453000    91.188771   -11753.546   -10855.193    138.41459     102002.7      46.7237      46.7237      46.7237 
  454000    92.695588   -11738.663   -10825.465    337.83558     102002.7      46.7237      46.7237      46.7237 
  455000    89.638419   -11725.025   -10841.945     413.9144     102002.7      46.7237      46.7237      46.7237 
  456000    90.838461   -11717.688   -10822.786    486.39209     102002.7      46.7237      46.7237      46.7237 
  457000    91.805197    -11738.74   -10834.314    411.36988     102002.7      46.7237      46.7237      46.7237 
  458000     92.80452   -11728.512   -10814.241    256.65374     102002.7      46.7237      46.7237      46.7237 
  459000    92.676305   -11717.982   -10804.975    473.80786     102002.7      46.7237      46.7237      46.7237 
  460000    92.467023   -11735.702   -10824.756      646.326     102002.7      46.7237      46.7237      46.7237 
  461000    92.533782   -11741.551   -10829.948    289.23983     102002.7      46.7237      46.7237      46.7237 
  462000    89.344076   -11729.607   -10849.427     380.3416     102002.7      46.7237      46.7237      46.7237 
  463000    89.623524   -11722.333     -10839.4    305.45661     102002.7      46.7237      46.7237      46.7237 
  464000    92.603196   -11734.691   -10822.403     78.51751     102002.7      46.7237      46.7237      46.7237 
  465000    91.984915   -11730.528   -10824.331     566.6192     102002.7      46.7237      46.7237      46.7237 
  466000    89.513356   -11744.089   -10862.241    336.35046     102002.7      46.7237      46.7237      46.7237 
  467000    91.039573    -11725.05   -10828.167    394.10826     102002.7      46.7237      46.7237      46.7237 
  468000    89.678331   -11720.441   -10836.968    845.01882     102002.7      46.7237      46.7237      46.7237 
  469000     89.07108   -11729.473   -10851.982    319.11086     102002.7      46.7237      46.7237      46.7237 
  470000    93.687242   -11700.533   -10777.566    546.10421     102002.7      46.7237      46.7237      46.7237 
  471000    92.135039    -11732.14   -10824.464    305.85353     102002.7      46.7237      46.7237      46.7237 
  472000    92.046255   -11750.941    -10844.14    209.95335     102002.7      46.7237      46.7237      46.7237 
  473000    92.745332   -11726.742   -10813.054    439.55366     102002.7      46.7237      46.7237      46.7237 
  474000    92.307314   -11731.031   -10821.658    217.39825     102002.7      46.7237      46.7237      46.7237 
  475000    92.850185   -11692.245   -10777.524    75.126435     102002.7      46.7237      46.7237      46.7237 
  476000    90.618235    -11732.99   -10840.258    207.73628     102002.7      46.7237      46.7237      46.7237 
  477000    91.843051    -11728.78   -10823.981    155.59908     102002.7      46.7237      46.7237      46.7237 
  478000    93.680749   -11713.355   -10790.452    505.82296     102002.7      46.7237      46.7237      46.7237 
  479000    89.084465   -11703.347   -10825.725    136.14044     102002.7      46.7237      46.7237      46.7237 
  480000    90.222687   -11742.234   -10853.398    486.39226     102002.7      46.7237      46.7237      46.7237 
  481000    92.196264   -11716.942   -10808.663    482.50146     102002.7      46.7237      46.7237      46.7237 
  482000    90.722937   -11727.571   -10833.807    453.75535     102002.7      46.7237      46.7237      46.7237 
  483000    90.350998   -11730.915   -10840.815    563.92382     102002.7      46.7237      46.7237      46.7237 
  484000     92.24521   -11730.045   -10821.284    376.22829     102002.7      46.7237      46.7237      46.7237 
  485000    92.041249   -11723.235   -10816.483    571.36818     102002.7      46.7237      46.7237      46.7237 
  486000    89.613871   -11739.166   -10856.328    427.33202     102002.7      46.7237      46.7237      46.7237 
  487000    91.349834   -11730.144   -10830.204    495.07612     102002.7      46.7237      46.7237      46.7237 
  488000    89.678825   -11730.164   -10846.686    206.60425     102002.7      46.7237      46.7237      46.7237 
  489000    90.041966   -11730.309   -10843.253    393.44376     102002.7      46.7237      46.7237      46.7237 
  490000     92.40632   -11722.766   -10812.418    254.58387     102002.7      46.7237      46.7237      46.7237 
  491000     93.49294   -11732.472   -10811.419    511.46111     102002.7      46.7237      46.7237      46.7237 
  492000    91.979642   -11733.423   -10827.278     518.6688     102002.7      46.7237      46.7237      46.7237 
  493000    90.469417   -11728.547    -10837.28    440.85338     102002.7      46.7237      46.7237      46.7237 
  494000    91.157871   -11711.021   -10812.972    628.75906     102002.7      46.7237      46.7237      46.7237 
  495000    89.179082   -11717.598   -10839.043    594.08687     102002.7      46.7237      46.7237      46.7237 
  496000    91.154431   -11733.279   -10835.264    349.63773     102002.7      46.7237      46.7237      46.7237 
  497000    91.285566   -11719.982   -10820.676    361.69831     102002.7      46.7237      46.7237      46.7237 
  498000     90.56012    -11722.26     -10830.1     440.8642     102002.7      46.7237      46.7237      46.7237 
  499000    90.995358   -11691.912   -10795.464    598.10771     102002.7      46.7237      46.7237      46.7237 
  500000    90.686613   -11721.899   -10828.493     413.9633     102002.7      46.7237      46.7237      46.7237 
  500500    90.538546   -11729.836   -10837.888    248.83195     102002.7      46.7237      46.7237      46.7237 
Loop time of 2000.21 on 16 procs for 500000 steps with 3306 atoms

Performance: 21.598 ns/day, 1.111 hours/ns, 249.974 timesteps/s
99.9% CPU use with 16 MPI tasks x no OpenMP threads

MPI task timing breakdown:
Section |  min time  |  avg time  |  max time  |%varavg| %total
---------------------------------------------------------------
Pair    | 832.09     | 1210.5     | 1624.5     | 566.1 | 60.52
Bond    | 108.36     | 174.88     | 215.99     | 198.2 |  8.74
Neigh   | 15.166     | 15.211     | 15.282     |   1.0 |  0.76
Comm    | 128.97     | 582.56     | 1027.7     | 899.5 | 29.13
Output  | 0.021715   | 0.022495   | 0.026304   |   0.7 |  0.00
Modify  | 8.4218     | 10.096     | 11.534     |  33.4 |  0.50
Other   |            | 6.983      |            |       |  0.35

Nlocal:    206.625 ave 228 max 175 min
Histogram: 1 0 1 2 2 1 4 0 3 2
Nghost:    4159.81 ave 4201 max 4134 min
Histogram: 1 4 3 2 0 2 2 0 1 1
Neighs:    11461.9 ave 17029 max 6047 min
Histogram: 1 1 2 2 2 2 2 3 0 1

Total # of neighbors = 183391
Ave neighs/atom = 55.4722
Ave special neighs/atom = 3.48457
Neighbor list builds = 4081
Dangerous builds = 0
Neighbor list info ...
  update every 1 steps, delay 10 steps, check yes
  max neighbors/atom: 2000, page size: 100000
  master list distance cutoff = 16
  ghost atom cutoff = 16
  binsize = 8, bins = 6 6 6
  3 neighbor lists, perpetual/occasional/extra = 3 0 0
  (1) pair buck6d/coul/gauss/dsf, perpetual, skip from (3)
      attributes: half, newton on
      pair build: skip
      stencil: none
      bin: none
  (2) pair lj/cut, perpetual, skip from (3)
      attributes: half, newton on
      pair build: skip
      stencil: none
      bin: none
  (3) neighbor class addition, perpetual
      attributes: half, newton on
      pair build: half/bin/newton
      stencil: half/bin/3d/newton
      bin: standard
Setting up Verlet run ...
  Unit style    : real
  Current step  : 500500
  Time step     : 1
WARNING: Inconsistent image flags (../domain.cpp:786)
Per MPI rank memory allocation (min/avg/max) = 22.79 | 23.15 | 23.45 Mbytes
Step Time TotEng KinEng PotEng E_mol E_pair Temp Pxx Pyy Pzz Pxy Pxz Pyz Cella Cellb Cellc CellAlpha CellBeta CellGamma Volume Press 
  500500       500000   -10837.888    891.94748   -11729.836    4140.8952   -15870.731    90.538546   -69.989789     394.7036    421.78203   -303.37945    22.692272    16.898596      46.7237      46.7237      46.7237           90           90           90     102002.7    248.83195 
  501000       500500   -10841.961    886.28143   -11728.243    4147.9271    -15876.17    89.963405    82.077939    38.251727     -195.026   -223.95687    40.383865    36.571878      46.7237      46.7237      46.7237           90           90           90     102002.7   -24.898776 
  502000       501500   -10820.917    900.09292    -11721.01    4145.3154   -15866.325    91.365362    367.51617     277.8736    516.02166    114.73575   -120.52546   -6.8654408      46.7237      46.7237      46.7237           90           90           90     102002.7    387.13714 
  503000       502500   -10854.823    872.38145   -11727.205    4128.7183   -15855.923    88.552466    382.93811     266.9335    641.86811   -178.84761    62.411152   -69.560609      46.7237      46.7237      46.7237           90           90           90     102002.7    430.57991 
  504000       503500   -10804.538      912.392    -11716.93     4149.303   -15866.233      92.6138    569.67151    509.71776    44.976972    282.25594    153.11115   -139.24448      46.7237      46.7237      46.7237           90           90           90     102002.7    374.78875 
  505000       504500   -10836.635    877.90433   -11714.539    4158.5634   -15873.103    89.113074    282.06297    260.72833     250.4275    286.91419   -126.70768   -53.686121      46.7237      46.7237      46.7237           90           90           90     102002.7    264.40627 
  506000       505500   -10820.788     915.4068   -11736.194    4124.6637   -15860.858    92.919822    134.03971    50.078094    12.836834    166.71839    115.11609   -56.644877      46.7237      46.7237      46.7237           90           90           90     102002.7    65.651546 
  507000       506500   -10807.609    899.55503   -11707.164    4147.5345   -15854.698    91.310763    892.34099    796.57067     671.7882    61.584042    286.84009    108.59881      46.7237      46.7237      46.7237           90           90           90     102002.7    786.89996 
  508000       507500   -10834.072    884.90213   -11718.974    4127.4348   -15846.409    89.823397    356.42269    694.62701    680.76743   -89.164096   -91.761643    35.790095      46.7237      46.7237      46.7237           90           90           90     102002.7    577.27238 
  509000       508500   -10834.003    884.15777   -11718.161    4136.2834   -15854.444     89.74784     333.0858    76.269007    235.69342   -44.650752   -44.055379   -247.30208      46.7237      46.7237      46.7237           90           90           90     102002.7    215.01607 
  510000       509500   -10832.644    879.01911   -11711.664    4153.4758   -15865.139    89.226231    386.84561    508.66552    656.41365    9.7723485   -128.49499   -91.359853      46.7237      46.7237      46.7237           90           90           90     102002.7    517.30826 
  511000       510500   -10813.325    896.35129   -11709.677     4130.471   -15840.148    90.985562    296.32519    353.97313    322.58652   -60.761217    79.050924    47.239802      46.7237      46.7237      46.7237           90           90           90     102002.7    324.29495 
  512000       511500   -10858.325    892.62996   -11750.955    4112.8051    -15863.76    90.607823    421.10359    723.28598    724.68739   -104.88636     66.02097    154.04887      46.7237      46.7237      46.7237           90           90           90     102002.7    623.02565 
  513000       512500   -10815.931    898.52926    -11714.46    4152.7295   -15867.189     91.20664    477.22934    256.53812    283.81492    150.32545   -68.643225   -19.575724      46.7237      46.7237      46.7237           90           90           90     102002.7    339.19413 
  514000       513500   -10859.287    894.08331    -11753.37    4107.7997    -15861.17    90.755347    667.40994    124.34419    137.84078   -238.29057     89.39281    -172.8629      46.7237      46.7237      46.7237           90           90           90     102002.7    309.86497 
  515000       514500   -10831.748    907.60591   -11739.354    4128.7904   -15868.144     92.12798    489.84358   -22.304939    720.51693    11.579645   -303.15906    49.356759      46.7237      46.7237      46.7237           90           90           90     102002.7    396.01852 
  516000       515500   -10865.743    884.91329   -11750.657     4117.903    -15868.56    89.824529    701.61895    223.22587    396.77578    32.778372   -58.229894   -77.627059      46.7237      46.7237      46.7237           90           90           90     102002.7     440.5402 
  517000       516500   -10835.957    905.23515   -11741.192    4139.8067   -15880.999    91.887332     633.1434    64.788546    569.21361    98.898053   -42.231255   -15.304793      46.7237      46.7237      46.7237           90           90           90     102002.7    422.38185 
  518000       517500   -10839.588    896.03035   -11735.618    4139.3937   -15875.012    90.952984     599.7976    24.143651    188.80901     121.7537   -33.514053   -260.62799      46.7237      46.7237      46.7237           90           90           90     102002.7    270.91675 
  519000       518500   -10804.194    913.82893   -11718.023    4163.0381   -15881.061    92.759657    145.96948    628.19397    569.51361   -155.72103    119.54808   -14.685968      46.7237      46.7237      46.7237           90           90           90     102002.7    447.89236 
  520000       519500   -10835.798    893.43855   -11729.236    4142.2816   -15871.518      90.6899    621.45693    906.87423    378.29912    134.47702   -440.66906    275.71525      46.7237      46.7237      46.7237           90           90           90     102002.7    635.54343 
  521000       520500    -10842.77    882.83451   -11725.605    4126.3347   -15851.939     89.61352    587.99298    778.62374    435.23561    51.595029   -224.55844   -167.88077      46.7237      46.7237      46.7237           90           90           90     102002.7    600.61744 
  522000       521500   -10804.735    914.35513   -11719.091    4129.7582   -15848.849     92.81307    708.35102    350.41384    624.83205   -75.199216      154.613    114.97365      46.7237      46.7237      46.7237           90           90           90     102002.7    561.19897 
  523000       522500   -10870.121    870.42897    -11740.55     4119.872   -15860.422    88.354276     353.0443    161.34552    596.65759   -4.5980436    98.508206   -169.00587      46.7237      46.7237      46.7237           90           90           90     102002.7    370.34914 
  524000       523500   -10801.183    903.81666   -11704.999    4148.5417   -15853.541    91.743346    1027.2989    351.96646    4.2016983    295.61205    258.51621    36.482208      46.7237      46.7237      46.7237           90           90           90     102002.7    461.15567 
  525000       524500   -10798.697    907.45522   -11706.152    4167.3074   -15873.459    92.112684      991.799    88.328035   -121.74746    122.52063   -69.795684   -234.09399      46.7237      46.7237      46.7237           90           90           90     102002.7    319.45986 
  526000       525500   -10823.577     901.9826    -11725.56    4136.0774   -15861.637    91.557177    572.68104     670.8323    206.73863    90.511923    101.68071   -119.91269      46.7237      46.7237      46.7237           90           90           90     102002.7    483.41732 
  527000       526500   -10840.877    870.90583   -11711.783    4136.1347   -15847.918     88.40268    676.59167    506.52113    622.16666    114.45302    432.85662   -50.272046      46.7237      46.7237      46.7237           90           90           90     102002.7    601.75982 
  528000       527500   -10835.725    886.86886   -11722.594    4159.3771   -15881.971    90.023033    411.16763    124.53992    99.168465    149.39356   -36.466809    226.59611      46.7237      46.7237      46.7237           90           90           90     102002.7    211.62534 
  529000       528500   -10808.721    914.57601   -11723.297    4136.6305   -15859.927    92.835491    481.09666    503.15597    275.85454   -176.73482    21.594175   -65.337786      46.7237      46.7237      46.7237           90           90           90     102002.7    420.03573 
  530000       529500    -10824.05    919.62392   -11743.674    4126.9895   -15870.664    93.347888    286.34449     709.1997    549.08612    57.715179   -106.66902   -24.800575      46.7237      46.7237      46.7237           90           90           90     102002.7    514.87677 
  531000       530500   -10833.359    893.40657   -11726.765    4142.7153    -15869.48    90.686654     329.2177    286.24506     341.0177    3.9671888   -69.920943    115.98559      46.7237      46.7237      46.7237           90           90           90     102002.7    318.82682 
  532000       531500    -10844.19    907.01942    -11751.21    4123.9865   -15875.196    92.068448    314.36735    531.64664    360.92788     209.9423   -65.428858    42.434933      46.7237      46.7237      46.7237           90           90           90     102002.7    402.31396 
  533000       532500   -10826.198    892.66072   -11718.859    4155.5794   -15874.438    90.610945    778.60039   -92.854292    572.79351    65.971483    33.100278    208.35836      46.7237      46.7237      46.7237           90           90           90     102002.7     419.5132 
  534000       533500   -10843.013    894.64458   -11737.658    4113.6338   -15851.292     90.81232    305.16766   -374.55754    264.00786    79.502814   -158.10358     11.05468      46.7237      46.7237      46.7237           90           90           90     102002.7    64.872658 
  535000       534500   -10832.601    890.35489   -11722.956    4137.0538   -15860.009    90.376888    359.19234    715.07681    28.864423     168.4853    116.61369   -205.18042      46.7237      46.7237      46.7237           90           90           90     102002.7    367.71119 
  536000       535500   -10796.691    912.99072   -11709.682    4149.1809   -15858.863    92.674574    338.65567    542.85172     416.2108    230.69947    165.17329    24.025823      46.7237      46.7237      46.7237           90           90           90     102002.7    432.57273 
  537000       536500   -10824.127    906.08787   -11730.215    4127.5548    -15857.77    91.973889    812.42653    993.29172    69.448077    -91.55672    134.08895    168.38747      46.7237      46.7237      46.7237           90           90           90     102002.7    625.05544 
  538000       537500   -10860.206    900.27159   -11760.477    4095.4691   -15855.946    91.383499    811.30855    1079.4415    776.71829    75.207379   -115.77052     205.7283      46.7237      46.7237      46.7237           90           90           90     102002.7     889.1561 
  539000       538500   -10802.393    914.46553   -11716.858    4128.0948   -15844.953    92.824277     562.7129    495.20422    430.74258   -258.19838   -217.42453    142.61894      46.7237      46.7237      46.7237           90           90           90     102002.7     496.2199 
  540000       539500   -10841.252    882.26885   -11723.521    4139.0319   -15862.553    89.556101    631.54805    295.27158    35.163106   -26.218093    183.80194   -27.384447      46.7237      46.7237      46.7237           90           90           90     102002.7    320.66091 
  541000       540500   -10867.073    890.31422   -11757.387    4098.8646   -15856.252     90.37276    410.55761    779.29815    479.35515    146.23069    207.01287   -29.999666      46.7237      46.7237      46.7237           90           90           90     102002.7    556.40364 
  542000       541500   -10849.413    885.20967   -11734.623    4125.6788   -15860.301    89.854614    601.31575    358.52178    110.58424   -169.26098   -75.326114   -233.09005      46.7237      46.7237      46.7237           90           90           90     102002.7    356.80726 
  543000       542500   -10862.474    888.07704   -11750.551    4119.5093   -15870.061    90.145672    823.87493    318.16723    627.81708    114.09368    107.93552    214.58794      46.7237      46.7237      46.7237           90           90           90     102002.7    589.95308 
  544000       543500   -10821.614    904.94387   -11726.558    4134.8023    -15861.36    91.857765    493.54817     588.9833    253.86404    -228.3715     62.04084    178.33611      46.7237      46.7237      46.7237           90           90           90     102002.7    445.46517 
  545000       544500   -10834.858    904.51643   -11739.375    4135.2871   -15874.662    91.814377    619.69957    534.56994    264.12674    105.76881   -39.164504   -110.25898      46.7237      46.7237      46.7237           90           90           90     102002.7    472.79875 
  546000       545500   -10828.519     904.0847   -11732.604    4124.0756   -15856.679    91.770554    438.11218    1418.5827    1045.8802   -189.60646   -134.82489   -23.065577      46.7237      46.7237      46.7237           90           90           90     102002.7    967.52503 
  547000       546500   -10800.157    910.13025   -11710.287    4143.7864   -15854.073    92.384218    -160.7141    796.78167    451.55021    78.485908    109.27216   -111.74918      46.7237      46.7237      46.7237           90           90           90     102002.7    362.53926 
  548000       547500   -10808.951    896.88705   -11705.838    4137.9012   -15843.739    91.039945    549.23565    1500.3867    698.93987    56.410788    136.80628    77.688495      46.7237      46.7237      46.7237           90           90           90     102002.7    916.18742 
  549000       548500   -10819.668    892.10746   -11711.776    4135.5958   -15847.371    90.554785    634.15443    1177.3643    649.45415     -104.314    -29.14121    20.927308      46.7237      46.7237      46.7237           90           90           90     102002.7    820.32428 
  550000       549500    -10818.28    907.00124   -11725.281    4129.6248   -15854.906    92.066602    662.61991    735.31201     354.4159    39.154825    101.75133    41.399524      46.7237      46.7237      46.7237           90           90           90     102002.7    584.11594 
  551000       550500   -10854.923    893.56557   -11748.488    4112.5071   -15860.995    90.702794    822.21052    496.05037    469.71207   -3.5879028   -13.827877   -115.09468      46.7237      46.7237      46.7237           90           90           90     102002.7    595.99098 
  552000       551500   -10800.736    909.24934   -11709.985    4139.6468   -15849.632    92.294799    913.40783    397.12576    307.84771    11.075038   -128.94876   -240.58925      46.7237      46.7237      46.7237           90           90           90     102002.7    539.46043 
  553000       552500   -10842.132    872.27793    -11714.41    4143.5275   -15857.938    88.541957    567.04819    410.65416   0.28673781     264.5304   -66.355093    140.53652      46.7237      46.7237      46.7237           90           90           90     102002.7    325.99636 
  554000       553500   -10816.086     893.1663   -11709.252    4146.5564   -15855.809    90.662264    717.62202     683.8458    464.03505   -97.308277   -231.72204   -114.45068      46.7237      46.7237      46.7237           90           90           90     102002.7    621.83429 
  555000       554500   -10846.339    886.66799   -11733.007    4123.8805   -15856.888    90.002643     447.9704    649.17819    685.85446   -51.579376    115.49749   -42.955302      46.7237      46.7237      46.7237           90           90           90     102002.7    594.33435 
[...]
  936000       935500   -10860.119    894.96444   -11755.084    4114.2693   -15869.353    90.844788    700.01795    491.79321    405.83425   -143.88221    64.884775    66.149676      46.7237      46.7237      46.7237           90           90           90     102002.7    532.54847 
  937000       936500   -10829.118    898.73203    -11727.85    4139.7965   -15867.647    91.227222    611.47992    249.24385    151.13187    55.182671   -75.428645   -195.76544      46.7237      46.7237      46.7237           90           90           90     102002.7    337.28521 
  938000       937500   -10842.561    888.99319   -11731.554    4136.8477   -15868.402    90.238666    745.71804    424.29891    143.89313   -38.362978    32.029331    43.659305      46.7237      46.7237      46.7237           90           90           90     102002.7    437.97002 
  939000       938500   -10858.436    862.46485   -11720.901    4143.6632   -15864.564    87.545865     605.2455    789.39149     228.3199   -27.691921    85.470619    20.433257      46.7237      46.7237      46.7237           90           90           90     102002.7    540.98563 
  940000       939500   -10824.342    898.60483   -11722.947    4142.6546   -15865.601    91.214311    723.34247    738.10846    379.88812   -170.99503    270.49502    72.946805      46.7237      46.7237      46.7237           90           90           90     102002.7    613.77969 
  941000       940500    -10855.53    890.42645   -11745.956    4121.7995   -15867.756    90.384152    341.91606    526.56329    175.49033    54.743268   -121.18087   -188.57127      46.7237      46.7237      46.7237           90           90           90     102002.7    347.98989 
  942000       941500   -10845.056    893.11507   -11738.172     4113.367   -15851.539    90.657064    305.23459    133.47873    162.87088    234.66717   -23.978038   -95.573066      46.7237      46.7237      46.7237           90           90           90     102002.7    200.52807 
  943000       942500   -10825.586    897.05854   -11722.645    4137.5603   -15860.205    91.057352    520.76962    442.72562   -18.623413   -4.9831701   -76.123542    -261.7251      46.7237      46.7237      46.7237           90           90           90     102002.7    314.95727 
  944000       943500   -10836.279    882.69072   -11718.969    4139.2925   -15858.262    89.598924    278.03991    300.91198    319.24105   -5.7750949    91.483567     149.4851      46.7237      46.7237      46.7237           90           90           90     102002.7    299.39764 
  945000       944500   -10844.078    900.17673   -11744.255    4137.2282   -15881.483    91.373869    382.98908    749.32187    425.06436    33.539246   -195.30381    41.625816      46.7237      46.7237      46.7237           90           90           90     102002.7    519.12511 
  946000       945500   -10858.166    889.27268   -11747.439    4136.0268   -15883.466    90.267037    239.87606    666.21997    733.20204    267.38625    56.902187    153.40917      46.7237      46.7237      46.7237           90           90           90     102002.7    546.43269 
  947000       946500   -10833.402    878.25315   -11711.655    4145.7366   -15857.392    89.148482    460.05202     717.5795    354.23596    210.30909    17.633508   -12.095057      46.7237      46.7237      46.7237           90           90           90     102002.7     510.6225 
  948000       947500   -10829.171    905.15264   -11734.324    4132.8057    -15867.13    91.878957    538.70828    298.98612    351.42379    97.353452   -26.576556    27.043638      46.7237      46.7237      46.7237           90           90           90     102002.7    396.37273 
  949000       948500   -10822.161    891.90672   -11714.068    4154.4913   -15868.559    90.534409    449.04164    324.41118    230.28761    110.80362    -25.13448     140.6038      46.7237      46.7237      46.7237           90           90           90     102002.7    334.58014 
  950000       949500    -10846.98    909.87398   -11756.854    4139.3123   -15896.167    92.358204    493.95786   -21.892832    141.67485    29.346293   -74.148768   -195.13421      46.7237      46.7237      46.7237           90           90           90     102002.7    204.57996 
  951000       950500   -10833.566    903.52918   -11737.095    4127.0381   -15864.133    91.714166    752.83481   -37.194872    435.28982     37.64194    -11.21422    6.6684621      46.7237      46.7237      46.7237           90           90           90     102002.7    383.64325 
  952000       951500   -10879.853    878.51436   -11758.367    4122.3198   -15880.687    89.174996    338.85678    625.74675    305.58123   -11.593406   -268.41782   -157.58329      46.7237      46.7237      46.7237           90           90           90     102002.7    423.39492 
  953000       952500   -10826.968    906.44813   -11733.416    4139.3255   -15872.742    92.010458    680.31456    449.21207    507.34656    -74.15403    135.24221    46.122544      46.7237      46.7237      46.7237           90           90           90     102002.7     545.6244 
  954000       953500   -10877.171    867.23957   -11744.411    4131.7659   -15876.177    88.030531    935.44744    572.42614    22.976182    84.590217    32.981646    199.65927      46.7237      46.7237      46.7237           90           90           90     102002.7    510.28325 
  955000       954500   -10822.757    905.94162   -11728.699    4131.8764   -15860.575    91.959044    333.14703    143.28162    441.73933    146.83259   -148.47658    25.745446      46.7237      46.7237      46.7237           90           90           90     102002.7    306.05599 
  956000       955500   -10844.049    900.40669   -11744.455    4121.4149    -15865.87    91.397212    726.08729    837.28143    596.90418    78.619763   -91.713078   -277.04504      46.7237      46.7237      46.7237           90           90           90     102002.7    720.09097 
  957000       956500   -10880.583    877.28718    -11757.87    4121.5463   -15879.416    89.050429    525.85471    387.01286     516.3853    22.128423    21.313036   -249.75688      46.7237      46.7237      46.7237           90           90           90     102002.7    476.41762 
  958000       957500    -10847.36    915.40121   -11762.761    4135.7354   -15898.497    92.919254    306.47627     492.7309    135.62142   -35.130141   -16.303713   -31.273438      46.7237      46.7237      46.7237           90           90           90     102002.7    311.60953 
  959000       958500   -10840.375    884.34375   -11724.719    4121.8033   -15846.522    89.766718    311.98089    661.65524    899.37838   -165.66926    163.52424   -294.44936      46.7237      46.7237      46.7237           90           90           90     102002.7    624.33817 
  960000       959500    -10864.48    884.09074    -11748.57    4133.5398    -15882.11    89.741036    556.39566    312.80698    222.31814   -11.379873    303.01374    332.82384      46.7237      46.7237      46.7237           90           90           90     102002.7    363.84026 
  961000       960500   -10834.946    896.66913   -11731.615    4132.2749    -15863.89    91.017825    563.70011    134.51543    218.15387    37.340737   -128.95804   -61.844166      46.7237      46.7237      46.7237           90           90           90     102002.7    305.45647 
  962000       961500     -10842.7      880.482   -11723.182    4131.4932   -15854.675    89.374725    327.41871    663.44327    262.39322     138.3319   -105.28704   -153.74243      46.7237      46.7237      46.7237           90           90           90     102002.7    417.75174 
  963000       962500   -10832.618    890.76881   -11723.387    4145.6826    -15869.07    90.418904      389.518    475.21653      157.537   -42.323821    9.0032052    35.995289      46.7237      46.7237      46.7237           90           90           90     102002.7    340.75718 
  964000       963500   -10863.302    890.77841    -11754.08    4136.5715   -15890.652    90.419878    70.083801    513.95828    39.125283    69.421905   -163.35297   -115.75715      46.7237      46.7237      46.7237           90           90           90     102002.7    207.72246 
  965000       964500   -10830.736    894.46523   -11725.201    4135.0796   -15860.281    90.794114    748.16268    268.03407    297.12954    153.27482     82.54027     29.82044      46.7237      46.7237      46.7237           90           90           90     102002.7    437.77543 
  966000       965500   -10874.854    878.46117   -11753.315    4114.4498   -15867.765    89.169597    410.19279    17.799487    361.76265    167.33158   -1.7642328    19.120049      46.7237      46.7237      46.7237           90           90           90     102002.7    263.25164 
  967000       966500   -10806.317    906.23699   -11712.554    4137.8125   -15850.366    91.989026     950.6278    332.00697    340.37333   -4.8811487   -70.684715    97.141083      46.7237      46.7237      46.7237           90           90           90     102002.7     541.0027 
  968000       967500   -10825.213    907.78596   -11732.999     4122.795   -15855.794    92.146256    847.97545    572.11963    331.98612   -163.97635     322.3969    23.355266      46.7237      46.7237      46.7237           90           90           90     102002.7    584.02707 
  969000       968500   -10841.739    891.18772   -11732.927    4118.8751   -15851.802    90.461425    373.18789    482.01377    164.46271    45.714731   -87.958331    156.58363      46.7237      46.7237      46.7237           90           90           90     102002.7    339.88812 
  970000       969500   -10812.227     914.5246   -11726.752    4145.4776   -15872.229    92.830273    573.34149    1035.5783    576.24672    2.6580371    -206.7306   -170.39104      46.7237      46.7237      46.7237           90           90           90     102002.7    728.38885 
  971000       970500   -10823.817    897.81257    -11721.63     4150.398   -15872.028    91.133892    402.07786    97.825467    1063.7245    54.853981    162.43638    202.14891      46.7237      46.7237      46.7237           90           90           90     102002.7    521.20928 
  972000       971500   -10815.824    911.65906   -11727.483     4153.082   -15880.565    92.539401    723.29913    725.24849    -19.78435   -31.345776   -42.764594   -228.14895      46.7237      46.7237      46.7237           90           90           90     102002.7    476.25442 
  973000       972500   -10862.055     885.9119   -11747.967    4129.7988   -15877.766    89.925895    119.70707    475.10726    573.16659     2.607859    97.963422    264.04046      46.7237      46.7237      46.7237           90           90           90     102002.7    389.32697 
  974000       973500   -10830.841    885.56272   -11716.403    4135.6272   -15852.031    89.890451     710.6375    654.44943    564.28385   -7.9623163   -153.53346   -208.82664      46.7237      46.7237      46.7237           90           90           90     102002.7    643.12359 
  975000       974500   -10852.967    883.28559   -11736.252     4129.789   -15866.041    89.659307    400.37262    570.20615    201.55484   -10.573194   -20.159775    10.243325      46.7237      46.7237      46.7237           90           90           90     102002.7     390.7112 
  976000       975500   -10836.974    898.42073   -11735.395    4130.6513   -15866.046    91.195624    506.74272    493.54622    133.97966    276.02078   -35.986815    110.21742      46.7237      46.7237      46.7237           90           90           90     102002.7    378.08953 
  977000       976500   -10857.377    882.95992   -11740.337    4148.3807   -15888.718    89.626249    259.23409     405.9313    167.50347    102.35728   -156.65006    -6.432894      46.7237      46.7237      46.7237           90           90           90     102002.7    277.55629 
  978000       977500   -10835.476    899.41264   -11734.889     4125.212   -15860.101    91.296309    513.59736    557.11094    575.98054   -138.27569    102.29161    240.87702      46.7237      46.7237      46.7237           90           90           90     102002.7    548.89628 
  979000       978500   -10850.594    873.40251   -11723.997    4145.8409   -15869.838    88.656109     390.8141    71.883813    242.03894    26.699566   -116.60794    -175.4254      46.7237      46.7237      46.7237           90           90           90     102002.7    234.91228 
  980000       979500   -10848.842    895.44119   -11744.283    4138.6449   -15882.928    90.893181    853.42087   -63.706827    623.80367     159.9584    8.2058914   -45.580966      46.7237      46.7237      46.7237           90           90           90     102002.7    471.17257 
  981000       980500   -10829.893    901.75724    -11731.65    4128.0122   -15859.662    91.534302    416.39663    643.54517    151.93276    176.24055   -148.41211    14.274715      46.7237      46.7237      46.7237           90           90           90     102002.7    403.95819 
  982000       981500   -10860.629    887.91055    -11748.54    4138.4187   -15886.958    90.128772    586.06233    325.32003    106.18546    104.23033    10.705228   -63.469313      46.7237      46.7237      46.7237           90           90           90     102002.7    339.18927 
  983000       982500   -10863.021    889.46976   -11752.491    4124.6443   -15877.135    90.287042    658.63681    16.801604   -103.87813   -67.728559    92.007187   -111.48647      46.7237      46.7237      46.7237           90           90           90     102002.7    190.52009 
  984000       983500   -10817.265     898.8034   -11716.068    4149.0472   -15865.116    91.234468    662.97936    430.72345     14.68121   -95.583142    63.142817   -74.624405      46.7237      46.7237      46.7237           90           90           90     102002.7    369.46134 
  985000       984500     -10862.4    879.96195   -11742.362    4119.3444   -15861.707    89.321936   -77.982864     558.8711    125.66718    111.61293    -40.15966    137.27102      46.7237      46.7237      46.7237           90           90           90     102002.7    202.18514 
  986000       985500   -10850.604    883.12796   -11733.732    4125.2291   -15858.961    89.643307     675.4959    623.53831    334.74658   -1.8678721   -39.878918    137.34111      46.7237      46.7237      46.7237           90           90           90     102002.7     544.5936 
  987000       986500   -10837.831    904.32253   -11742.153    4119.2222   -15861.376    91.794695    702.20881    410.51668    664.11343   -42.874627    179.58807    51.655818      46.7237      46.7237      46.7237           90           90           90     102002.7    592.27964 
  988000       987500    -10845.16    881.54297   -11726.703    4140.3854   -15867.088     89.48242    369.25777    377.98854    668.24303   -126.58639   -62.471623    1.1117798      46.7237      46.7237      46.7237           90           90           90     102002.7    471.82978 
  989000       988500   -10852.174    902.02715   -11754.201     4127.539    -15881.74    91.561699     268.7887    550.59778     750.8817   -54.804703     82.29417   -166.59757      46.7237      46.7237      46.7237           90           90           90     102002.7    523.42272 
  990000       989500   -10806.827    903.54304    -11710.37    4143.4096    -15853.78    91.715572    645.33873    397.60855    -7.758764    21.895832   -22.878947   -69.498661      46.7237      46.7237      46.7237           90           90           90     102002.7    345.06284 
  991000       990500   -10835.309    890.07774   -11725.387    4142.8563   -15868.243    90.348755    416.99577     414.3983    37.770659    50.252981    111.83148     103.6813      46.7237      46.7237      46.7237           90           90           90     102002.7    289.72158 
  992000       991500   -10835.055    897.50018   -11732.555    4137.6674   -15870.223    91.102182    571.51758    466.15256   -109.94484    79.970038    116.37257    113.70293      46.7237      46.7237      46.7237           90           90           90     102002.7    309.24177 
  993000       992500   -10843.791    882.43247   -11726.223    4159.1819   -15885.405    89.572711    579.68829    133.40609    56.706775    2.5546868    191.43911    14.397753      46.7237      46.7237      46.7237           90           90           90     102002.7    256.60038 
  994000       993500   -10833.943    909.50986   -11743.453    4135.0068    -15878.46    92.321244    204.58981    302.19833    256.12917    192.23872   -8.6020142    192.77098      46.7237      46.7237      46.7237           90           90           90     102002.7    254.30577 
  995000       994500   -10825.872    904.70717   -11730.579     4142.022   -15872.601    91.833739    429.76864    321.58927    396.30104    118.85224   -31.560757    4.4589446      46.7237      46.7237      46.7237           90           90           90     102002.7    382.55298 
  996000       995500   -10857.345    883.80389   -11741.148     4143.738   -15884.887    89.711918    506.55026    369.27011    639.11579    12.701583   -98.472448    78.278525      46.7237      46.7237      46.7237           90           90           90     102002.7    504.97872 
  997000       996500   -10832.026    883.69149   -11715.717    4159.6681   -15875.386    89.700509    359.32183    733.99971    423.90478    53.234414    117.48857     117.0714      46.7237      46.7237      46.7237           90           90           90     102002.7    505.74211 
  998000       997500   -10831.854    889.87355   -11721.728    4148.3618    -15870.09    90.328029    504.37234    428.41577    359.70422    4.0311683    134.23398   -199.91888      46.7237      46.7237      46.7237           90           90           90     102002.7    430.83078 
  999000       998500   -10811.784    913.60218   -11725.387    4140.3485   -15865.735    92.736641    732.03982    522.97179    341.39482    34.241592   -46.315401   -58.582859      46.7237      46.7237      46.7237           90           90           90     102002.7    532.13547 
 1000000       999500   -10828.281    901.35594   -11729.637    4144.6635     -15874.3    91.493567     613.1076    453.92993    266.81271   -49.541528   -21.824955   -173.41259      46.7237      46.7237      46.7237           90           90           90     102002.7    444.61674 
 1000500      1000000   -10812.218     906.1109   -11718.329    4135.3035   -15853.632    91.976227    473.19203    197.16978     536.4863   -56.539162   -66.184738   -133.56763      46.7237      46.7237      46.7237           90           90           90     102002.7     402.2827 
Loop time of 2384.73 on 16 procs for 500000 steps with 3306 atoms

Performance: 18.115 ns/day, 1.325 hours/ns, 209.667 timesteps/s
99.9% CPU use with 16 MPI tasks x no OpenMP threads

MPI task timing breakdown:
Section |  min time  |  avg time  |  max time  |%varavg| %total
---------------------------------------------------------------
Pair    | 1102.5     | 1533       | 1977.7     | 603.5 | 64.28
Bond    | 123.79     | 184.13     | 231.27     | 212.2 |  7.72
Neigh   | 14.999     | 15.044     | 15.092     |   0.9 |  0.63
Comm    | 149.07     | 620.69     | 1111.5     |1036.1 | 26.03
Output  | 0.1367     | 0.14394    | 0.14459    |   0.5 |  0.01
Modify  | 23.053     | 24.714     | 26.013     |  19.3 |  1.04
Other   |            | 7.051      |            |       |  0.30

Nlocal:    206.625 ave 242 max 177 min
Histogram: 1 1 4 1 3 2 0 2 0 2
Nghost:    4155.94 ave 4195 max 4113 min
Histogram: 2 0 0 2 2 3 5 1 0 1
Neighs:    11464.9 ave 17662 max 6477 min
Histogram: 2 4 0 1 1 2 1 4 0 1

Total # of neighbors = 183438
Ave neighs/atom = 55.4864
Ave special neighs/atom = 3.48457
Neighbor list builds = 4088
Dangerous builds = 0
Total wall time: 1:13:10
