LAMMPS (30 Mar 2018)
Reading data file ...
  orthogonal box = (0 0 0) to (46.7237 46.7237 46.7237)
  2 by 2 by 4 MPI processor grid
  reading atoms ...
  1926 atoms
  scanning bonds ...
  5 = max bonds/atom
  scanning angles ...
  10 = max angles/atom
  scanning dihedrals ...
  32 = max dihedrals/atom
  scanning impropers ...
  3 = max impropers/atom
  reading bonds ...
  2064 bonds
  reading angles ...
  3696 angles
  reading dihedrals ...
  6240 dihedrals
  reading impropers ...
  1008 impropers
Finding 1-2 1-3 1-4 neighbors ...
  special bond factors lj:   0          0          0         
  special bond factors coul: 0          0          0         
  5 = max # of 1-2 neighbors
  8 = max # of 1-3 neighbors
  20 = max # of 1-4 neighbors
  19 = max # of special neighbors
Finding 1-2 1-3 1-4 neighbors ...
  special bond factors lj:   0          0          1         
  special bond factors coul: 1          1          1         
  5 = max # of 1-2 neighbors
  8 = max # of 1-3 neighbors
  19 = max # of special neighbors
WARNING: Using 'neigh_modify every 1 delay 0 check yes' setting during minimization (../min.cpp:168)
Neighbor list info ...
  update every 1 steps, delay 0 steps, check yes
  max neighbors/atom: 2000, page size: 100000
  master list distance cutoff = 16
  ghost atom cutoff = 16
  binsize = 8, bins = 6 6 6
  3 neighbor lists, perpetual/occasional/extra = 3 0 0
  (1) pair buck6d/coul/gauss/dsf, perpetual, skip from (3)
      attributes: half, newton on
      pair build: skip
      stencil: none
      bin: none
  (2) pair lj/cut, perpetual, skip from (3)
      attributes: half, newton on
      pair build: skip
      stencil: none
      bin: none
  (3) neighbor class addition, perpetual
      attributes: half, newton on
      pair build: half/bin/newton
      stencil: half/bin/3d/newton
      bin: standard
Setting up cg style minimization ...
  Unit style    : real
  Current step  : 0
WARNING: Inconsistent image flags (../domain.cpp:786)
Per MPI rank memory allocation (min/avg/max) = 22.9 | 23.36 | 23.8 Mbytes
Step Temp E_pair E_mol TotEng Press 
       0            0   -12136.163    6482.8914   -5653.2714     6077.637 
     502            0   -12204.936    3732.5295   -8472.4064   -673.65172 
Loop time of 3.00611 on 16 procs for 502 steps with 1926 atoms

99.8% CPU use with 16 MPI tasks x no OpenMP threads

Minimization stats:
  Stopping criterion = max force evaluations
  Energy initial, next-to-last, final = 
        -5653.27142039      -8472.3878025     -8472.40637692
  Force two-norm initial, final = 2576.05 5.85829
  Force max component initial, final = 152.014 0.619269
  Final line search alpha, max atom move = 0.0116826 0.00723468
  Iterations, force evaluations = 502 1000

MPI task timing breakdown:
Section |  min time  |  avg time  |  max time  |%varavg| %total
---------------------------------------------------------------
Pair    | 1.2709     | 1.7533     | 2.2658     |  24.9 | 58.32
Bond    | 0.316      | 0.36003    | 0.43901    |   6.1 | 11.98
Neigh   | 0.016069   | 0.016176   | 0.016271   |   0.0 |  0.54
Comm    | 0.32275    | 0.83679    | 1.3594     |  37.1 | 27.84
Output  | 0          | 0          | 0          |   0.0 |  0.00
Modify  | 0          | 0          | 0          |   0.0 |  0.00
Other   |            | 0.03985    |            |       |  1.33

Nlocal:    120.375 ave 138 max 111 min
Histogram: 5 2 1 1 3 0 1 1 1 1
Nghost:    2368.25 ave 2379 max 2351 min
Histogram: 2 0 2 0 0 2 3 1 2 4
Neighs:    11449.7 ave 14974 max 8122 min
Histogram: 5 1 0 1 1 2 0 1 1 4

Total # of neighbors = 183195
Ave neighs/atom = 95.1168
Ave special neighs/atom = 5.98131
Neighbor list builds = 11
Dangerous builds = 0
Neighbor list info ...
  update every 1 steps, delay 10 steps, check yes
  max neighbors/atom: 2000, page size: 100000
  master list distance cutoff = 16
  ghost atom cutoff = 16
  binsize = 8, bins = 6 6 6
  3 neighbor lists, perpetual/occasional/extra = 3 0 0
  (1) pair buck6d/coul/gauss/dsf, perpetual, skip from (3)
      attributes: half, newton on
      pair build: skip
      stencil: none
      bin: none
  (2) pair lj/cut, perpetual, skip from (3)
      attributes: half, newton on
      pair build: skip
      stencil: none
      bin: none
  (3) neighbor class addition, perpetual
      attributes: half, newton on
      pair build: half/bin/newton
      stencil: half/bin/3d/newton
      bin: standard
Setting up Verlet run ...
  Unit style    : real
  Current step  : 502
  Time step     : 1
WARNING: Inconsistent image flags (../domain.cpp:786)
Per MPI rank memory allocation (min/avg/max) = 22.55 | 22.63 | 22.74 Mbytes
Step Temp PotEng TotEng Press Volume Lx Ly Lz 
     502           91   -8472.4064    -7950.243    -439.6454     102002.7      46.7237      46.7237      46.7237 
    1000    78.117676   -8003.3777   -7555.1338   -568.85874     102002.7      46.7237      46.7237      46.7237 
    2000    96.642123   -7948.5272    -7393.989   -734.73394     102002.7      46.7237      46.7237      46.7237 
    3000    89.318434   -7924.3197   -7411.8053   -808.79056     102002.7      46.7237      46.7237      46.7237 
    4000    91.148288   -7931.9318   -7408.9175    -572.3292     102002.7      46.7237      46.7237      46.7237 
    5000    91.843489   -7913.1358   -7386.1324   -902.83494     102002.7      46.7237      46.7237      46.7237 
    6000     89.55475   -7921.4442   -7407.5738   -643.93171     102002.7      46.7237      46.7237      46.7237 
    7000    90.550033   -7940.5053   -7420.9238   -644.00618     102002.7      46.7237      46.7237      46.7237 
    8000    88.794132   -7919.7405   -7410.2345   -651.57083     102002.7      46.7237      46.7237      46.7237 
    9000    93.155494   -7927.6638   -7393.1321   -579.56744     102002.7      46.7237      46.7237      46.7237 
   10000    90.983954   -7914.4682   -7392.3969   -874.93867     102002.7      46.7237      46.7237      46.7237 
   11000    90.541245   -7929.7375   -7410.2065   -734.53463     102002.7      46.7237      46.7237      46.7237 
   12000    91.506429   -7930.2206   -7405.1513   -651.73551     102002.7      46.7237      46.7237      46.7237 
   13000    92.544155   -7931.6713   -7400.6474   -858.46255     102002.7      46.7237      46.7237      46.7237 
   14000    91.411486   -7941.6699   -7417.1453   -534.45829     102002.7      46.7237      46.7237      46.7237 
   15000    89.051477   -7928.9761   -7417.9934   -706.33515     102002.7      46.7237      46.7237      46.7237 
   16000    91.206324   -7920.8883    -7397.541   -857.10365     102002.7      46.7237      46.7237      46.7237 
   17000    89.499066   -7947.7894   -7434.2384   -627.34745     102002.7      46.7237      46.7237      46.7237 
   18000     89.73087    -7925.704   -7410.8229   -647.93821     102002.7      46.7237      46.7237      46.7237 
   19000    88.907357   -7928.0665   -7417.9109   -490.39717     102002.7      46.7237      46.7237      46.7237 
   20000    91.505767   -7918.4021   -7393.3366   -796.03798     102002.7      46.7237      46.7237      46.7237 
   21000    89.766755   -7937.5537   -7422.4668    -832.3521     102002.7      46.7237      46.7237      46.7237 
   22000     91.25725   -7931.4922   -7407.8527   -973.11614     102002.7      46.7237      46.7237      46.7237 
   23000     91.93397     -7898.43   -7370.9075   -681.84553     102002.7      46.7237      46.7237      46.7237 
   24000    90.317915   -7918.7315   -7400.4819   -496.50786     102002.7      46.7237      46.7237      46.7237 
   25000    90.437612   -7929.4699   -7410.5335   -886.89659     102002.7      46.7237      46.7237      46.7237 
   26000    89.432137   -7915.6429    -7402.476   -530.14754     102002.7      46.7237      46.7237      46.7237 
   27000    93.222093   -7912.9119    -7377.998   -718.21436     102002.7      46.7237      46.7237      46.7237 
   28000    91.649791   -7932.9841   -7407.0921    -629.1041     102002.7      46.7237      46.7237      46.7237 
   29000    89.583237   -7926.4113   -7412.3774   -466.95285     102002.7      46.7237      46.7237      46.7237 
   30000     89.06659   -7921.0088   -7409.9394   -775.95126     102002.7      46.7237      46.7237      46.7237 
   31000    88.809931   -7930.9051   -7421.3084   -836.90744     102002.7      46.7237      46.7237      46.7237 
   32000    91.969434   -7923.8637   -7396.1376   -466.75434     102002.7      46.7237      46.7237      46.7237 
   33000    91.400822   -7929.6319   -7405.1685   -839.22231     102002.7      46.7237      46.7237      46.7237 
   34000    90.597879   -7935.1241   -7415.2681    -796.6675     102002.7      46.7237      46.7237      46.7237 
   35000    91.319498   -7919.1388   -7395.1421   -909.23123     102002.7      46.7237      46.7237      46.7237 
   36000    91.009808   -7917.8975   -7395.6778   -765.35201     102002.7      46.7237      46.7237      46.7237 
   37000    91.242041   -7927.4474   -7403.8951   -858.68616     102002.7      46.7237      46.7237      46.7237 
   38000    91.899311     -7934.89   -7407.5663   -907.73807     102002.7      46.7237      46.7237      46.7237 
   39000    92.045318    -7919.936   -7391.7745   -811.53642     102002.7      46.7237      46.7237      46.7237 
   40000    92.182793   -7940.8015   -7411.8512   -666.90559     102002.7      46.7237      46.7237      46.7237 
   41000    89.666856   -7926.1283   -7411.6145   -976.55227     102002.7      46.7237      46.7237      46.7237 
   42000    91.249523   -7916.6943   -7393.0991   -886.17261     102002.7      46.7237      46.7237      46.7237 
   43000    90.527047   -7934.6479   -7415.1983   -733.58038     102002.7      46.7237      46.7237      46.7237 
   44000    89.450239   -7936.4899   -7423.2191   -886.28488     102002.7      46.7237      46.7237      46.7237 
   45000    87.446639    -7921.019   -7419.2449   -693.82528     102002.7      46.7237      46.7237      46.7237 
   46000    93.038891   -7944.4219   -7410.5592   -1051.6952     102002.7      46.7237      46.7237      46.7237 
   47000    92.870817   -7935.5438   -7402.6455   -886.42309     102002.7      46.7237      46.7237      46.7237 
   48000    93.837081   -7929.5014   -7391.0586   -835.87815     102002.7      46.7237      46.7237      46.7237 
   49000    91.895246   -7935.2518   -7407.9514   -739.00182     102002.7      46.7237      46.7237      46.7237 
   50000    89.066163   -7933.7819    -7422.715   -1095.3742     102002.7      46.7237      46.7237      46.7237 
   51000    90.464202   -7931.4981   -7412.4091   -1012.1081     102002.7      46.7237      46.7237      46.7237 
   52000    91.929435   -7918.0409   -7390.5444   -754.34546     102002.7      46.7237      46.7237      46.7237 
   53000    94.530073   -7926.5013   -7384.0821   -749.41017     102002.7      46.7237      46.7237      46.7237 
   54000    90.647135   -7936.5852   -7416.4466   -783.79155     102002.7      46.7237      46.7237      46.7237 
   55000    94.221057   -7939.0152   -7398.3692   -939.30769     102002.7      46.7237      46.7237      46.7237 
   56000    87.738141    -7931.068   -7427.6213   -698.35162     102002.7      46.7237      46.7237      46.7237 
   57000    89.519516   -7919.3242   -7405.6559    -837.1614     102002.7      46.7237      46.7237      46.7237 
   58000     91.33088   -7931.7565   -7407.6945   -943.83153     102002.7      46.7237      46.7237      46.7237 
   59000    93.221414   -7909.4929   -7374.5829   -812.82763     102002.7      46.7237      46.7237      46.7237 
   60000    92.724608   -7923.8668   -7391.8075    -761.6344     102002.7      46.7237      46.7237      46.7237 
   61000    89.685462   -7927.7887   -7413.1682   -872.41492     102002.7      46.7237      46.7237      46.7237 
   62000    91.600091   -7925.0071   -7399.4003   -918.25833     102002.7      46.7237      46.7237      46.7237 
   63000    90.126478   -7941.5088   -7424.3577   -1051.3781     102002.7      46.7237      46.7237      46.7237 
   64000    89.668588   -7924.3917    -7409.868   -954.88837     102002.7      46.7237      46.7237      46.7237 
   65000    89.952442   -7921.5933   -7405.4408   -976.97269     102002.7      46.7237      46.7237      46.7237 
   66000    91.196888   -7910.1625   -7386.8693    -795.4872     102002.7      46.7237      46.7237      46.7237 
   67000    90.919914    -7929.261   -7407.5571   -621.48916     102002.7      46.7237      46.7237      46.7237 
   68000    92.732659   -7926.8872   -7394.7817   -572.56161     102002.7      46.7237      46.7237      46.7237 
   69000    93.563235    -7938.655   -7401.7836   -787.94749     102002.7      46.7237      46.7237      46.7237 
   70000    89.529868   -7934.3188   -7420.5911   -699.49586     102002.7      46.7237      46.7237      46.7237 
   71000    88.119687   -7919.9119   -7414.2759   -544.81241     102002.7      46.7237      46.7237      46.7237 
   72000     90.91015   -7923.5243   -7401.8764   -675.09513     102002.7      46.7237      46.7237      46.7237 
   73000    92.591819   -7919.3273     -7388.03   -747.85446     102002.7      46.7237      46.7237      46.7237 
   74000    90.367862   -7930.6663   -7412.1301   -785.55359     102002.7      46.7237      46.7237      46.7237 
   75000    89.441312   -7936.0018   -7422.7823   -857.87989     102002.7      46.7237      46.7237      46.7237 
   76000    89.645805   -7938.4688   -7424.0759   -820.76212     102002.7      46.7237      46.7237      46.7237 
   77000    94.719191   -7927.8001   -7384.2957   -725.65095     102002.7      46.7237      46.7237      46.7237 
   78000    89.244618   -7907.7552   -7395.6642   -725.73157     102002.7      46.7237      46.7237      46.7237 
   79000    89.533161    -7931.891   -7418.1444    -756.0127     102002.7      46.7237      46.7237      46.7237 
   80000    88.871636   -7935.3496   -7425.3989   -798.68747     102002.7      46.7237      46.7237      46.7237 
   81000    92.834907   -7929.0359   -7396.3437   -1001.6309     102002.7      46.7237      46.7237      46.7237 
   82000    91.243767   -7919.6085   -7396.0464   -1163.6624     102002.7      46.7237      46.7237      46.7237 
   83000    93.212419   -7932.5778   -7397.7194   -925.57079     102002.7      46.7237      46.7237      46.7237 
   84000     89.98272   -7931.5178   -7415.1916   -869.25414     102002.7      46.7237      46.7237      46.7237 
   85000    91.722032   -7914.5681   -7388.2617   -940.50696     102002.7      46.7237      46.7237      46.7237 
   86000    90.954518   -7914.5252   -7392.6228   -775.82773     102002.7      46.7237      46.7237      46.7237 
   87000    93.571199   -7911.3751    -7374.458   -1109.0102     102002.7      46.7237      46.7237      46.7237 
   88000    88.895545   -7931.8069    -7421.719   -864.60015     102002.7      46.7237      46.7237      46.7237 
   89000    93.352506   -7900.5556   -7364.8934   -984.83902     102002.7      46.7237      46.7237      46.7237 
   90000    90.719011   -7940.9969   -7420.4459   -771.21162     102002.7      46.7237      46.7237      46.7237 
   91000    92.630255   -7946.5471   -7415.0292   -1091.1271     102002.7      46.7237      46.7237      46.7237 
   92000    92.885203   -7923.3525   -7390.3717   -896.72128     102002.7      46.7237      46.7237      46.7237 
   93000    90.784574   -7929.1328   -7408.2055   -835.62962     102002.7      46.7237      46.7237      46.7237 
   94000    90.557952   -7917.6564   -7398.0295   -1057.9247     102002.7      46.7237      46.7237      46.7237 
   95000    89.713797   -7922.7207   -7407.9376   -938.54177     102002.7      46.7237      46.7237      46.7237 
   96000    90.072063   -7911.6785   -7394.8396   -653.74339     102002.7      46.7237      46.7237      46.7237 
   97000    93.980122   -7932.3391   -7393.0756   -931.76153     102002.7      46.7237      46.7237      46.7237 
   98000    90.172127   -7926.8923   -7409.4793   -716.48484     102002.7      46.7237      46.7237      46.7237 
   99000    91.417494    -7921.455    -7396.896   -739.32394     102002.7      46.7237      46.7237      46.7237 
  100000    92.199079   -7922.6615   -7393.6177   -950.91359     102002.7      46.7237      46.7237      46.7237 
  101000    88.808848   -7918.1467   -7408.5562   -858.29658     102002.7      46.7237      46.7237      46.7237 
  102000    88.309405    -7925.692   -7418.9674   -777.67881     102002.7      46.7237      46.7237      46.7237 
  103000    89.431894   -7925.9539   -7412.7884   -860.84789     102002.7      46.7237      46.7237      46.7237 
  104000     91.42717   -7931.0835   -7406.4689   -937.14514     102002.7      46.7237      46.7237      46.7237 
  105000    90.605657   -7927.1814   -7407.2808   -546.33616     102002.7      46.7237      46.7237      46.7237 
  106000     89.45568   -7939.6583   -7426.3563   -767.79343     102002.7      46.7237      46.7237      46.7237 
  107000    91.011905   -7925.1386   -7402.9069   -614.67506     102002.7      46.7237      46.7237      46.7237 
  108000    89.129885   -7912.5873   -7401.1547   -780.36531     102002.7      46.7237      46.7237      46.7237 
  109000    92.637481   -7920.4487   -7388.8894   -800.95715     102002.7      46.7237      46.7237      46.7237 
  110000    89.485622   -7930.7727   -7417.2988   -669.84065     102002.7      46.7237      46.7237      46.7237 
  111000    92.312681   -7942.0268   -7412.3311   -979.56906     102002.7      46.7237      46.7237      46.7237 
  112000    94.044306   -7926.1385   -7386.5067   -692.76989     102002.7      46.7237      46.7237      46.7237 
  113000     93.41605   -7930.0218   -7393.9949   -791.00443     102002.7      46.7237      46.7237      46.7237 
  114000    90.044353   -7922.3068   -7405.6269   -797.90559     102002.7      46.7237      46.7237      46.7237 
  115000    92.383508   -7912.3886   -7382.2865   -790.65413     102002.7      46.7237      46.7237      46.7237 
  116000    91.228374   -7920.9722   -7397.4984   -729.51693     102002.7      46.7237      46.7237      46.7237 
  117000    90.034567    -7923.413   -7406.7893   -881.70211     102002.7      46.7237      46.7237      46.7237 
  118000    93.221232   -7920.8664   -7385.9574    -786.2916     102002.7      46.7237      46.7237      46.7237 
  119000    90.898054   -7933.4295   -7411.8511   -944.50444     102002.7      46.7237      46.7237      46.7237 
  120000    92.424769   -7927.9777   -7397.6389   -765.94051     102002.7      46.7237      46.7237      46.7237 
  121000    92.047069   -7918.1204   -7389.9489   -903.23191     102002.7      46.7237      46.7237      46.7237 
  122000    87.675331   -7928.1161   -7425.0299   -805.43793     102002.7      46.7237      46.7237      46.7237 
  123000    90.986465   -7942.3812   -7420.2955   -912.89905     102002.7      46.7237      46.7237      46.7237 
  124000    90.984821   -7909.0663     -7386.99   -669.43228     102002.7      46.7237      46.7237      46.7237 
  125000    89.493869   -7913.6524   -7400.1313   -871.94701     102002.7      46.7237      46.7237      46.7237 
  126000    91.515603   -7915.7342   -7390.6122   -718.49286     102002.7      46.7237      46.7237      46.7237 
  127000    91.051101   -7918.6303   -7396.1737   -873.01318     102002.7      46.7237      46.7237      46.7237 
  128000    90.198459   -7923.9668   -7406.4027   -870.63104     102002.7      46.7237      46.7237      46.7237 
  129000    95.165252    -7912.869   -7366.8051    -815.4472     102002.7      46.7237      46.7237      46.7237 
  130000    90.442517   -7908.4864   -7389.5219   -561.78832     102002.7      46.7237      46.7237      46.7237 
  131000    90.952785   -7924.5604   -7402.6679   -704.46684     102002.7      46.7237      46.7237      46.7237 
  132000    89.564964   -7904.1403   -7390.2112   -419.11109     102002.7      46.7237      46.7237      46.7237 
  133000    91.436631   -7920.8039   -7396.1351   -790.10186     102002.7      46.7237      46.7237      46.7237 
  134000    91.645422   -7921.6499    -7395.783   -1017.8764     102002.7      46.7237      46.7237      46.7237 
  135000    89.364324   -7939.6141   -7426.8363   -642.84704     102002.7      46.7237      46.7237      46.7237 
  136000    91.474513   -7935.1805   -7410.2943   -735.82754     102002.7      46.7237      46.7237      46.7237 
  137000    92.945795   -7904.6864   -7371.3579   -730.24818     102002.7      46.7237      46.7237      46.7237 
  138000    90.547697   -7921.0723   -7401.5042   -867.10128     102002.7      46.7237      46.7237      46.7237 
  139000    90.614081    -7930.105    -7410.156   -757.11665     102002.7      46.7237      46.7237      46.7237 
  140000    91.830943   -7929.2368   -7402.3054   -827.84398     102002.7      46.7237      46.7237      46.7237 
  141000    94.662808   -7927.1354   -7383.9546   -705.04685     102002.7      46.7237      46.7237      46.7237 
  142000     92.70961   -7923.3576   -7391.3843   -851.09815     102002.7      46.7237      46.7237      46.7237 
  143000    91.368437   -7933.6593   -7409.3818   -631.95681     102002.7      46.7237      46.7237      46.7237 
  144000    92.352589   -7923.6991   -7393.7744   -764.32322     102002.7      46.7237      46.7237      46.7237 
  145000    90.500336   -7931.5153    -7412.219   -662.82988     102002.7      46.7237      46.7237      46.7237 
  146000    92.282007    -7929.723   -7400.2033   -771.53027     102002.7      46.7237      46.7237      46.7237 
  147000    91.403157   -7927.8811   -7403.4044   -809.63425     102002.7      46.7237      46.7237      46.7237 
  148000     89.62153   -7931.1837   -7416.9301   -733.50757     102002.7      46.7237      46.7237      46.7237 
  149000    89.708964   -7923.8456   -7409.0902   -758.63946     102002.7      46.7237      46.7237      46.7237 
  150000    92.108011   -7927.1831   -7398.6618   -768.22839     102002.7      46.7237      46.7237      46.7237 
  151000    91.239393     -7935.04   -7411.5029   -863.48688     102002.7      46.7237      46.7237      46.7237 
  152000    93.751549   -7931.0473   -7393.0954   -640.33083     102002.7      46.7237      46.7237      46.7237 
  153000    89.603234   -7936.4941   -7422.3455   -851.24849     102002.7      46.7237      46.7237      46.7237 
  154000    91.727238   -7925.3134   -7398.9771   -916.60722     102002.7      46.7237      46.7237      46.7237 
  155000    90.866861   -7911.3158   -7389.9163   -969.01093     102002.7      46.7237      46.7237      46.7237 
  156000    89.705317   -7900.9193   -7386.1849   -717.35389     102002.7      46.7237      46.7237      46.7237 
  157000    87.481128   -7924.3486   -7422.3767    -788.2163     102002.7      46.7237      46.7237      46.7237 
  158000     92.01596   -7945.4883   -7417.4953   -706.41419     102002.7      46.7237      46.7237      46.7237 
  159000    91.178595   -7943.6808   -7420.4926   -683.76234     102002.7      46.7237      46.7237      46.7237 
  160000    92.471639   -7910.4248    -7379.817    -610.2986     102002.7      46.7237      46.7237      46.7237 
  161000    92.434404   -7923.3756   -7392.9815   -928.53717     102002.7      46.7237      46.7237      46.7237 
  162000    89.409121   -7908.5227   -7395.4879   -898.38514     102002.7      46.7237      46.7237      46.7237 
  163000    90.665853   -7932.6158   -7412.3698   -587.79405     102002.7      46.7237      46.7237      46.7237 
  164000    90.572218   -7920.9459   -7401.2371   -1042.0441     102002.7      46.7237      46.7237      46.7237 
  165000    90.785795    -7920.952   -7400.0177    -903.0204     102002.7      46.7237      46.7237      46.7237 
  166000    90.676295   -7924.2946   -7403.9887   -1045.0907     102002.7      46.7237      46.7237      46.7237 
  167000    89.546204   -7931.9814     -7418.16   -1016.0137     102002.7      46.7237      46.7237      46.7237 
  168000    90.505789    -7919.996   -7400.6684    -825.9996     102002.7      46.7237      46.7237      46.7237 
  169000    89.578701   -7917.1367   -7403.1288   -929.35262     102002.7      46.7237      46.7237      46.7237 
  170000    87.260722    -7904.375   -7403.6678   -988.37674     102002.7      46.7237      46.7237      46.7237 
  171000    91.532072    -7908.847   -7383.6305   -957.34196     102002.7      46.7237      46.7237      46.7237 
  172000    89.446553   -7934.4492   -7421.1996   -849.80502     102002.7      46.7237      46.7237      46.7237 
  173000    89.830277   -7925.7644   -7410.3129   -662.81967     102002.7      46.7237      46.7237      46.7237 
  174000    92.245097   -7919.5545   -7390.2467    -628.3808     102002.7      46.7237      46.7237      46.7237 
  175000    90.317136   -7911.7296   -7393.4846   -646.79562     102002.7      46.7237      46.7237      46.7237 
  176000    88.604091   -7924.6869   -7416.2713   -659.06577     102002.7      46.7237      46.7237      46.7237 
  177000    92.489854   -7934.7512   -7404.0389   -809.39132     102002.7      46.7237      46.7237      46.7237 
  178000    88.877641    -7917.533   -7407.5478   -604.17031     102002.7      46.7237      46.7237      46.7237 
  179000     90.81633   -7921.2257   -7400.1162   -780.96389     102002.7      46.7237      46.7237      46.7237 
  180000    86.448608   -7915.5533    -7419.506   -699.80458     102002.7      46.7237      46.7237      46.7237 
  181000    90.635451    -7930.672   -7410.6004    -999.1274     102002.7      46.7237      46.7237      46.7237 
  182000    89.539047   -7924.8457   -7411.0653   -704.90466     102002.7      46.7237      46.7237      46.7237 
  183000    93.764758   -7902.2629   -7364.2352   -696.13564     102002.7      46.7237      46.7237      46.7237 
  184000    90.741659   -7915.3234   -7394.6424    -610.8517     102002.7      46.7237      46.7237      46.7237 
  185000    89.451829   -7932.5893   -7419.3094   -742.62141     102002.7      46.7237      46.7237      46.7237 
  186000    91.554688   -7929.1046   -7403.7583    -637.9373     102002.7      46.7237      46.7237      46.7237 
  187000    92.017243   -7928.3989   -7400.3985   -640.76805     102002.7      46.7237      46.7237      46.7237 
  188000    88.539925   -7929.9485   -7421.9012   -791.08997     102002.7      46.7237      46.7237      46.7237 
  189000    92.246492   -7931.4676   -7402.1517   -820.94542     102002.7      46.7237      46.7237      46.7237 
  190000    92.257133   -7910.2682   -7380.8913   -722.27783     102002.7      46.7237      46.7237      46.7237 
  191000    88.999294   -7906.8552    -7396.172   -719.22649     102002.7      46.7237      46.7237      46.7237 
  192000    90.751257   -7935.2891    -7414.553   -748.73144     102002.7      46.7237      46.7237      46.7237 
  193000    93.071531   -7905.3223   -7371.2723   -701.39641     102002.7      46.7237      46.7237      46.7237 
  194000    89.042337   -7908.4106   -7397.4804   -905.58783     102002.7      46.7237      46.7237      46.7237 
  195000    91.477333   -7920.6585   -7395.7562   -451.07555     102002.7      46.7237      46.7237      46.7237 
  196000     92.05432   -7939.1433   -7410.9301    -710.4531     102002.7      46.7237      46.7237      46.7237 
  197000    89.670892   -7923.3157   -7408.7788    -724.4799     102002.7      46.7237      46.7237      46.7237 
  198000    90.965911   -7915.3153   -7393.3475   -552.44233     102002.7      46.7237      46.7237      46.7237 
  199000    89.810711    -7919.951   -7404.6118   -679.57678     102002.7      46.7237      46.7237      46.7237 
  200000    90.361135   -7935.9886    -7417.491    -770.4184     102002.7      46.7237      46.7237      46.7237 
  201000    87.371014   -7908.4196   -7407.0796   -1054.3394     102002.7      46.7237      46.7237      46.7237 
  202000    90.339337   -7929.1186   -7410.7461   -696.50692     102002.7      46.7237      46.7237      46.7237 
  203000    93.299591   -7924.6423   -7389.2838   -693.00047     102002.7      46.7237      46.7237      46.7237 
  204000    89.071157      -7919.3   -7408.2044   -702.71434     102002.7      46.7237      46.7237      46.7237 
  205000    93.025033   -7908.4798   -7374.6966   -645.60667     102002.7      46.7237      46.7237      46.7237 
  206000    91.863123   -7923.6036   -7396.4875   -810.31921     102002.7      46.7237      46.7237      46.7237 
  207000    90.308481   -7921.5913   -7403.3959   -803.98965     102002.7      46.7237      46.7237      46.7237 
  208000    91.570142   -7936.0953   -7410.6604   -709.58454     102002.7      46.7237      46.7237      46.7237 
  209000    93.079868   -7934.9248    -7400.827   -636.06115     102002.7      46.7237      46.7237      46.7237 
  210000    89.015843   -7913.2447   -7402.4665    -876.9656     102002.7      46.7237      46.7237      46.7237 
  211000    90.430001    -7931.639   -7412.7462   -809.25814     102002.7      46.7237      46.7237      46.7237 
  212000    91.283356   -7925.1473    -7401.358   -738.06187     102002.7      46.7237      46.7237      46.7237 
  213000    91.565323   -7926.4919   -7401.0846   -780.28208     102002.7      46.7237      46.7237      46.7237 
  214000    90.294018   -7943.0811   -7424.9687    -801.9902     102002.7      46.7237      46.7237      46.7237 
  215000    93.185538   -7906.3466   -7371.6424    -731.5215     102002.7      46.7237      46.7237      46.7237 
  216000    89.558591   -7919.6174   -7405.7249   -706.54543     102002.7      46.7237      46.7237      46.7237 
  217000     88.85745   -7916.7931   -7406.9237   -785.06576     102002.7      46.7237      46.7237      46.7237 
  218000     91.67384   -7927.4771   -7401.4472   -500.52001     102002.7      46.7237      46.7237      46.7237 
  219000    90.652928   -7906.8303   -7386.6584    -928.1044     102002.7      46.7237      46.7237      46.7237 
  220000    91.404331   -7899.1977   -7374.7142   -763.69084     102002.7      46.7237      46.7237      46.7237 
  221000    93.241989   -7931.0598   -7396.0318   -647.70039     102002.7      46.7237      46.7237      46.7237 
  222000    93.793575   -7935.5207   -7397.3276    -639.8624     102002.7      46.7237      46.7237      46.7237 
  223000    87.707463   -7931.4546    -7428.184   -908.88823     102002.7      46.7237      46.7237      46.7237 
  224000    89.276146   -7920.1881   -7407.9163   -804.98536     102002.7      46.7237      46.7237      46.7237 
  225000    92.872587   -7909.6912   -7376.7828   -959.57539     102002.7      46.7237      46.7237      46.7237 
  226000    92.738669   -7934.2724   -7402.1324   -787.09043     102002.7      46.7237      46.7237      46.7237 
  227000    91.381555   -7940.6313   -7416.2785   -735.43471     102002.7      46.7237      46.7237      46.7237 
  228000    90.690657   -7921.4082   -7401.0199   -719.48001     102002.7      46.7237      46.7237      46.7237 
  229000    89.368315   -7924.9697    -7412.169    -876.7448     102002.7      46.7237      46.7237      46.7237 
  230000     88.59234   -7915.2722   -7406.9241    -1103.357     102002.7      46.7237      46.7237      46.7237 
  231000    92.151556   -7904.6007   -7375.8296   -959.48307     102002.7      46.7237      46.7237      46.7237 
  232000    89.387207   -7912.6646   -7399.7555   -944.92644     102002.7      46.7237      46.7237      46.7237 
  233000    91.337652    -7923.157   -7399.0561   -1172.8112     102002.7      46.7237      46.7237      46.7237 
  234000    90.199385   -7912.2851   -7394.7157   -660.01444     102002.7      46.7237      46.7237      46.7237 
  235000    90.995734   -7905.9073   -7383.7684   -704.97076     102002.7      46.7237      46.7237      46.7237 
  236000     92.70028   -7916.3999   -7384.4802   -879.77858     102002.7      46.7237      46.7237      46.7237 
  237000      92.3148   -7891.6082   -7361.9004   -754.85936     102002.7      46.7237      46.7237      46.7237 
  238000    92.356563   -7935.4294    -7405.482    -751.8144     102002.7      46.7237      46.7237      46.7237 
  239000    90.931414   -7910.1997   -7388.4298    -404.7952     102002.7      46.7237      46.7237      46.7237 
  240000    90.875454   -7910.6142   -7389.1655   -926.91294     102002.7      46.7237      46.7237      46.7237 
  241000    88.580392   -7901.1102   -7392.8307   -1096.4877     102002.7      46.7237      46.7237      46.7237 
  242000    91.838787   -7908.9933   -7382.0169   -702.37265     102002.7      46.7237      46.7237      46.7237 
  243000     92.47009   -7917.3819   -7386.7831   -1125.4111     102002.7      46.7237      46.7237      46.7237 
  244000    88.755378    -7919.464   -7410.1803   -1044.1921     102002.7      46.7237      46.7237      46.7237 
  245000    91.334224    -7922.389   -7398.3078   -608.54536     102002.7      46.7237      46.7237      46.7237 
  246000    91.478322   -7921.4975   -7396.5895   -728.10014     102002.7      46.7237      46.7237      46.7237 
  247000    92.408696   -7923.2482   -7393.0016   -930.59155     102002.7      46.7237      46.7237      46.7237 
  248000    91.790268   -7925.5948   -7398.8968   -893.07204     102002.7      46.7237      46.7237      46.7237 
  249000    91.975597    -7912.084   -7384.3225   -800.33143     102002.7      46.7237      46.7237      46.7237 
  250000    91.585807   -7924.1173   -7398.5925    -696.0178     102002.7      46.7237      46.7237      46.7237 
  251000    90.762468    -7935.243   -7414.4426   -656.54939     102002.7      46.7237      46.7237      46.7237 
  252000    88.260962   -7920.6636   -7414.2169    -713.3492     102002.7      46.7237      46.7237      46.7237 
  253000    91.416731   -7922.3522   -7397.7976   -717.86277     102002.7      46.7237      46.7237      46.7237 
  254000     88.55915   -7920.2796   -7412.1219   -899.34282     102002.7      46.7237      46.7237      46.7237 
  255000    91.522977   -7935.5868   -7410.4225   -885.68861     102002.7      46.7237      46.7237      46.7237 
  256000    94.713388   -7902.2547   -7358.7837   -448.83412     102002.7      46.7237      46.7237      46.7237 
  257000    89.884921    -7923.675   -7407.9099   -629.42344     102002.7      46.7237      46.7237      46.7237 
  258000    91.732419   -7916.5652   -7390.1991   -577.59334     102002.7      46.7237      46.7237      46.7237 
  259000    87.783641   -7916.4649   -7412.7572    -654.6284     102002.7      46.7237      46.7237      46.7237 
  260000    91.968218    -7920.471   -7392.7519   -923.51102     102002.7      46.7237      46.7237      46.7237 
  261000    90.173051   -7935.4078   -7417.9895   -769.36269     102002.7      46.7237      46.7237      46.7237 
  262000    93.034132   -7931.1154     -7397.28   -931.13176     102002.7      46.7237      46.7237      46.7237 
  263000    90.550563   -7904.3816   -7384.7971   -973.99565     102002.7      46.7237      46.7237      46.7237 
  264000    93.066675   -7920.6987   -7386.6766   -916.19877     102002.7      46.7237      46.7237      46.7237 
  265000    88.895908   -7919.9314   -7409.8414   -939.17387     102002.7      46.7237      46.7237      46.7237 
  266000    92.190836   -7907.3036   -7378.3071   -924.69774     102002.7      46.7237      46.7237      46.7237 
  267000    90.456539   -7926.1606   -7407.1156   -668.33696     102002.7      46.7237      46.7237      46.7237 
  268000     93.26306   -7919.6523   -7384.5033    -839.1801     102002.7      46.7237      46.7237      46.7237 
  269000     91.34482   -7923.2982   -7399.1562   -624.03845     102002.7      46.7237      46.7237      46.7237 
  270000    90.193018   -7923.0768   -7405.5439   -860.16943     102002.7      46.7237      46.7237      46.7237 
  271000    91.178891   -7909.9981   -7386.8082   -880.66133     102002.7      46.7237      46.7237      46.7237 
  272000    89.571129   -7922.4132   -7408.4487   -747.34847     102002.7      46.7237      46.7237      46.7237 
  273000    89.744887   -7931.1064    -7416.145   -913.57491     102002.7      46.7237      46.7237      46.7237 
  274000    91.253667   -7904.7987   -7381.1798   -919.05516     102002.7      46.7237      46.7237      46.7237 
  275000    92.909057   -7919.9381   -7386.8204   -624.36149     102002.7      46.7237      46.7237      46.7237 
  276000    92.695377   -7924.6888   -7392.7972   -680.73776     102002.7      46.7237      46.7237      46.7237 
  277000    87.520477   -7893.7509   -7391.5532   -782.76608     102002.7      46.7237      46.7237      46.7237 
  278000    94.193786   -7925.2301   -7384.7406    -745.1767     102002.7      46.7237      46.7237      46.7237 
  279000    88.707491    -7925.215   -7416.2061   -508.07386     102002.7      46.7237      46.7237      46.7237 
  280000      91.0961   -7914.4048     -7391.69   -706.43531     102002.7      46.7237      46.7237      46.7237 
  281000    93.440034   -7915.6725    -7379.508   -834.10024     102002.7      46.7237      46.7237      46.7237 
  282000    90.807345     -7940.42   -7419.3621   -726.81093     102002.7      46.7237      46.7237      46.7237 
  283000    90.919198   -7923.8621   -7402.1623   -754.29273     102002.7      46.7237      46.7237      46.7237 
  284000    91.284292   -7910.0852   -7386.2905   -812.39835     102002.7      46.7237      46.7237      46.7237 
  285000    87.202677   -7944.0729   -7443.6988   -972.47966     102002.7      46.7237      46.7237      46.7237 
  286000    93.327981   -7920.9916   -7385.4701   -1014.4028     102002.7      46.7237      46.7237      46.7237 
  287000    89.437233   -7913.9729   -7400.7768   -805.07907     102002.7      46.7237      46.7237      46.7237 
  288000    90.117857   -7911.8473   -7394.7456   -957.17606     102002.7      46.7237      46.7237      46.7237 
  289000    88.468244    -7906.941    -7399.305   -828.83955     102002.7      46.7237      46.7237      46.7237 
  290000    92.596972   -7903.6793   -7372.3524   -862.91673     102002.7      46.7237      46.7237      46.7237 
  291000    91.216071   -7921.7982   -7398.3949    -875.8626     102002.7      46.7237      46.7237      46.7237 
  292000    91.029896    -7930.528   -7408.1931   -687.68221     102002.7      46.7237      46.7237      46.7237 
  293000    90.207553   -7901.7356   -7384.1193   -913.51225     102002.7      46.7237      46.7237      46.7237 
  294000    94.075902   -7942.4929   -7402.6798   -508.59232     102002.7      46.7237      46.7237      46.7237 
  295000    90.752624   -7922.0633   -7401.3194   -779.19467     102002.7      46.7237      46.7237      46.7237 
  296000    94.223324   -7923.1458   -7382.4868   -958.77384     102002.7      46.7237      46.7237      46.7237 
  297000    89.832474   -7883.0014   -7367.5373   -877.95341     102002.7      46.7237      46.7237      46.7237 
  298000     92.33598   -7911.5947   -7381.7654   -844.90788     102002.7      46.7237      46.7237      46.7237 
  299000    91.672751   -7919.1554   -7393.1318   -894.94055     102002.7      46.7237      46.7237      46.7237 
  300000      89.9573   -7922.4723    -7406.292   -816.46976     102002.7      46.7237      46.7237      46.7237 
  301000      89.9029    -7894.875   -7379.0068   -920.42977     102002.7      46.7237      46.7237      46.7237 
  302000    88.604739   -7919.6271   -7411.2078   -812.02226     102002.7      46.7237      46.7237      46.7237 
  303000    93.606127   -7924.8543   -7387.7368   -836.83766     102002.7      46.7237      46.7237      46.7237 
  304000    90.667179   -7921.3729   -7401.1193   -774.45299     102002.7      46.7237      46.7237      46.7237 
  305000    92.152768   -7921.2253   -7392.4472   -593.63122     102002.7      46.7237      46.7237      46.7237 
  306000    88.446228   -7928.2766   -7420.7669   -904.11091     102002.7      46.7237      46.7237      46.7237 
  307000    92.539808   -7927.9444   -7396.9455   -844.52678     102002.7      46.7237      46.7237      46.7237 
  308000     93.38817    -7910.484   -7374.6171   -923.12021     102002.7      46.7237      46.7237      46.7237 
  309000    89.743474   -7921.8414   -7406.8881   -832.74362     102002.7      46.7237      46.7237      46.7237 
  310000    93.275006   -7910.1092   -7374.8917    -683.2617     102002.7      46.7237      46.7237      46.7237 
  311000    91.492413   -7911.0615   -7386.0726   -779.65319     102002.7      46.7237      46.7237      46.7237 
  312000    90.415851   -7914.0824   -7395.2709    -960.3436     102002.7      46.7237      46.7237      46.7237 
  313000     91.73163   -7908.4972   -7382.1357   -812.29955     102002.7      46.7237      46.7237      46.7237 
  314000    90.477368   -7923.5712   -7404.4067   -876.60339     102002.7      46.7237      46.7237      46.7237 
  315000    88.344739   -7924.6512   -7417.7238   -796.55714     102002.7      46.7237      46.7237      46.7237 
  316000    91.122559   -7904.3578   -7381.4912   -592.70899     102002.7      46.7237      46.7237      46.7237 
  317000    89.691082   -7920.9611   -7406.3084   -888.59606     102002.7      46.7237      46.7237      46.7237 
  318000    90.396869   -7918.4941   -7399.7915   -551.89785     102002.7      46.7237      46.7237      46.7237 
  319000    93.856873   -7914.2644   -7375.7081   -990.93469     102002.7      46.7237      46.7237      46.7237 
  320000    88.773696   -7915.7714   -7406.3827   -672.18217     102002.7      46.7237      46.7237      46.7237 
  321000    90.420609   -7909.5436   -7390.7048   -552.97483     102002.7      46.7237      46.7237      46.7237 
  322000    93.353241   -7913.8682   -7378.2017   -656.76494     102002.7      46.7237      46.7237      46.7237 
  323000    91.474623   -7906.9799   -7382.0931   -684.22619     102002.7      46.7237      46.7237      46.7237 
  324000    88.968883   -7932.8153   -7422.3065    -662.3208     102002.7      46.7237      46.7237      46.7237 
  325000    88.926199   -7893.9159   -7383.6521   -651.41318     102002.7      46.7237      46.7237      46.7237 
  326000     89.70212   -7930.4624   -7415.7464   -671.79393     102002.7      46.7237      46.7237      46.7237 
  327000    89.019876   -7924.3136   -7413.5122   -662.98954     102002.7      46.7237      46.7237      46.7237 
  328000    91.108181   -7892.9247   -7370.1405   -917.93066     102002.7      46.7237      46.7237      46.7237 
  329000    91.366201   -7926.4001   -7402.1355   -546.90907     102002.7      46.7237      46.7237      46.7237 
  330000    90.152966   -7911.4757   -7394.1726    -673.6654     102002.7      46.7237      46.7237      46.7237 
  331000    88.923164   -7945.2141   -7434.9677   -766.85572     102002.7      46.7237      46.7237      46.7237 
  332000    95.527051   -7920.8351   -7372.6952   -651.65044     102002.7      46.7237      46.7237      46.7237 
  333000    89.126585    -7917.732   -7406.3184   -944.32493     102002.7      46.7237      46.7237      46.7237 
  334000    91.780587   -7908.2457   -7381.6032   -799.46525     102002.7      46.7237      46.7237      46.7237 
  335000    91.244596   -7922.5867   -7399.0198   -836.94774     102002.7      46.7237      46.7237      46.7237 
  336000    92.098079   -7897.2069   -7368.7427   -647.64637     102002.7      46.7237      46.7237      46.7237 
  337000    93.150953   -7921.2298   -7386.7241   -810.71102     102002.7      46.7237      46.7237      46.7237 
  338000    90.994527   -7930.8933   -7408.7613   -768.86836     102002.7      46.7237      46.7237      46.7237 
  339000    94.978714   -7927.7516   -7382.7581   -792.92646     102002.7      46.7237      46.7237      46.7237 
  340000     91.49862   -7926.9649   -7401.9404   -776.90496     102002.7      46.7237      46.7237      46.7237 
  341000    91.209915   -7922.2423   -7398.8744   -711.65608     102002.7      46.7237      46.7237      46.7237 
  342000     95.14571   -7908.5551   -7362.6034   -743.22369     102002.7      46.7237      46.7237      46.7237 
  343000    90.931013    -7913.912   -7392.1444   -645.98422     102002.7      46.7237      46.7237      46.7237 
  344000    90.685039   -7920.0476   -7399.6915   -638.75879     102002.7      46.7237      46.7237      46.7237 
  345000    90.839759    -7922.682   -7401.4381   -804.14427     102002.7      46.7237      46.7237      46.7237 
  346000    93.729953   -7925.0011    -7387.173   -741.58825     102002.7      46.7237      46.7237      46.7237 
  347000    90.488829   -7936.6465   -7417.4162   -831.52088     102002.7      46.7237      46.7237      46.7237 
  348000    91.503703   -7915.3998   -7390.3461    -809.0234     102002.7      46.7237      46.7237      46.7237 
  349000    92.409942   -7920.8317    -7390.578   -1011.0758     102002.7      46.7237      46.7237      46.7237 
  350000    88.383874   -7920.7307   -7413.5788   -994.77067     102002.7      46.7237      46.7237      46.7237 
  351000    91.710008   -7903.4266   -7377.1892   -878.74428     102002.7      46.7237      46.7237      46.7237 
  352000    91.892691   -7929.7707    -7402.485   -954.34456     102002.7      46.7237      46.7237      46.7237 
  353000    88.400517   -7898.5653   -7391.3179   -789.52175     102002.7      46.7237      46.7237      46.7237 
  354000    88.941747   -7915.2177   -7404.8647   -728.72491     102002.7      46.7237      46.7237      46.7237 
  355000    93.111281    -7903.048     -7368.77   -774.49165     102002.7      46.7237      46.7237      46.7237 
  356000     93.66878   -7941.1177   -7403.6407    -740.8747     102002.7      46.7237      46.7237      46.7237 
  357000    91.593368   -7912.9437   -7387.3755   -925.05696     102002.7      46.7237      46.7237      46.7237 
  358000    89.827828   -7942.8523   -7427.4148    -757.1535     102002.7      46.7237      46.7237      46.7237 
  359000    90.350372    -7913.457   -7395.0212    -971.9252     102002.7      46.7237      46.7237      46.7237 
  360000    92.433617    -7910.454   -7380.0644   -977.22985     102002.7      46.7237      46.7237      46.7237 
  361000    87.727491   -7921.6179   -7418.2324   -769.15801     102002.7      46.7237      46.7237      46.7237 
  362000    92.181159   -7911.3136   -7382.3727   -811.04771     102002.7      46.7237      46.7237      46.7237 
  363000    89.921634   -7939.9231   -7423.9474   -1020.3977     102002.7      46.7237      46.7237      46.7237 
  364000    90.180748      -7932.7   -7415.2375   -736.81226     102002.7      46.7237      46.7237      46.7237 
  365000    91.357993   -7915.5563   -7391.3387   -855.79459     102002.7      46.7237      46.7237      46.7237 
  366000    88.376389    -7918.453   -7411.3441   -906.04861     102002.7      46.7237      46.7237      46.7237 
  367000       91.883   -7916.0895   -7388.8594   -753.76906     102002.7      46.7237      46.7237      46.7237 
  368000    92.394091   -7906.3292   -7376.1665   -1044.1119     102002.7      46.7237      46.7237      46.7237 
  369000    92.394387    -7914.695   -7384.5305   -798.47221     102002.7      46.7237      46.7237      46.7237 
  370000    89.131544   -7916.6881    -7405.246   -1131.8212     102002.7      46.7237      46.7237      46.7237 
  371000    91.786247   -7924.1218   -7397.4468   -743.62842     102002.7      46.7237      46.7237      46.7237 
  372000    95.075457   -7917.9818   -7372.4332   -793.74773     102002.7      46.7237      46.7237      46.7237 
  373000    90.224782   -7906.7389   -7389.0238   -742.50187     102002.7      46.7237      46.7237      46.7237 
  374000    92.350766   -7928.6131   -7398.6989   -848.33238     102002.7      46.7237      46.7237      46.7237 
  375000    93.607634   -7908.9942    -7371.868   -838.59834     102002.7      46.7237      46.7237      46.7237 
  376000    89.817632   -7916.3706   -7400.9917   -611.92425     102002.7      46.7237      46.7237      46.7237 
  377000    90.588777   -7937.5602   -7417.7564   -934.50229     102002.7      46.7237      46.7237      46.7237 
  378000    89.839374   -7899.5881   -7384.0844   -775.94091     102002.7      46.7237      46.7237      46.7237 
  379000    91.048649   -7909.8687   -7387.4262   -994.10918     102002.7      46.7237      46.7237      46.7237 
  380000    93.969605   -7919.5979   -7380.3947   -872.07303     102002.7      46.7237      46.7237      46.7237 
  381000    91.186492   -7924.1739   -7400.9404   -710.35979     102002.7      46.7237      46.7237      46.7237 
  382000    93.647433   -7932.6171   -7395.2625   -850.06482     102002.7      46.7237      46.7237      46.7237 
  383000    91.077218   -7928.2806   -7405.6742   -640.82835     102002.7      46.7237      46.7237      46.7237 
  384000      91.2109   -7906.7895   -7383.4159   -819.45184     102002.7      46.7237      46.7237      46.7237 
  385000    94.454942   -7931.9594   -7389.9714   -867.39741     102002.7      46.7237      46.7237      46.7237 
  386000    89.067365   -7935.7705   -7424.6967   -787.55334     102002.7      46.7237      46.7237      46.7237 
  387000    93.352134    -7921.813   -7386.1529   -656.14316     102002.7      46.7237      46.7237      46.7237 
  388000    90.824258    -7933.478    -7412.323   -890.74669     102002.7      46.7237      46.7237      46.7237 
  389000    90.734713   -7924.1082    -7403.467   -1016.9583     102002.7      46.7237      46.7237      46.7237 
  390000     89.95199   -7899.9818   -7383.8319   -675.45895     102002.7      46.7237      46.7237      46.7237 
  391000    88.991743   -7919.9083   -7409.2684   -923.90956     102002.7      46.7237      46.7237      46.7237 
  392000    91.022667   -7922.1806   -7399.8872   -864.88451     102002.7      46.7237      46.7237      46.7237 
  393000    89.161475   -7909.6174   -7398.0036   -730.18309     102002.7      46.7237      46.7237      46.7237 
  394000    93.003203   -7907.6215   -7373.9636   -738.15373     102002.7      46.7237      46.7237      46.7237 
  395000    92.849697   -7927.1202   -7394.3431   -646.48678     102002.7      46.7237      46.7237      46.7237 
  396000     91.22583   -7910.5833   -7387.1241   -681.36612     102002.7      46.7237      46.7237      46.7237 
  397000    89.493653   -7923.2603   -7409.7404   -806.97089     102002.7      46.7237      46.7237      46.7237 
  398000    93.778304   -7908.3132   -7370.2078   -315.39005     102002.7      46.7237      46.7237      46.7237 
  399000    92.886093   -7918.7313   -7385.7454   -541.77284     102002.7      46.7237      46.7237      46.7237 
  400000    87.815633   -7934.6638   -7430.7725   -692.90393     102002.7      46.7237      46.7237      46.7237 
  401000     91.56544    -7903.377   -7377.9691   -621.64522     102002.7      46.7237      46.7237      46.7237 
  402000    94.248706   -7923.2697    -7382.465   -919.19808     102002.7      46.7237      46.7237      46.7237 
  403000    91.821324   -7924.1101   -7397.2339   -750.36743     102002.7      46.7237      46.7237      46.7237 
  404000    91.087711    -7943.841   -7421.1744   -692.73182     102002.7      46.7237      46.7237      46.7237 
  405000     89.31896   -7917.2789   -7404.7614   -700.63679     102002.7      46.7237      46.7237      46.7237 
  406000    92.862851   -7914.6946   -7381.8421   -594.35877     102002.7      46.7237      46.7237      46.7237 
  407000    93.148415   -7938.2968   -7403.8057   -566.36292     102002.7      46.7237      46.7237      46.7237 
  408000    89.924052   -7908.7002   -7392.7107   -457.72387     102002.7      46.7237      46.7237      46.7237 
  409000     90.34333   -7913.6802   -7395.2848   -773.42034     102002.7      46.7237      46.7237      46.7237 
  410000    87.997341    -7923.503   -7418.5691   -921.00106     102002.7      46.7237      46.7237      46.7237 
  411000    91.602885   -7911.4838    -7385.861   -714.97041     102002.7      46.7237      46.7237      46.7237 
  412000    88.783088   -7920.7867   -7411.3441   -865.34495     102002.7      46.7237      46.7237      46.7237 
  413000    91.048461   -7916.5753   -7394.1339   -735.53919     102002.7      46.7237      46.7237      46.7237 
  414000    89.421755   -7934.7373   -7421.6299   -973.53645     102002.7      46.7237      46.7237      46.7237 
  415000    91.587173   -7936.1261   -7410.5934   -654.96027     102002.7      46.7237      46.7237      46.7237 
  416000    90.955369   -7932.7853    -7410.878   -820.76831     102002.7      46.7237      46.7237      46.7237 
  417000    90.046754   -7920.0099   -7403.3162   -647.68028     102002.7      46.7237      46.7237      46.7237 
  418000    95.979608   -7924.1538   -7373.4171   -859.86826     102002.7      46.7237      46.7237      46.7237 
  419000    89.131474   -7912.5036    -7401.062   -827.48343     102002.7      46.7237      46.7237      46.7237 
  420000    91.283723    -7922.001   -7398.2096   -629.90351     102002.7      46.7237      46.7237      46.7237 
  421000    90.406689   -7920.6655   -7401.9065    -912.0934     102002.7      46.7237      46.7237      46.7237 
  422000     89.68398   -7922.1813   -7407.5693   -731.65957     102002.7      46.7237      46.7237      46.7237 
  423000     91.08699   -7923.9753   -7401.3127   -513.35433     102002.7      46.7237      46.7237      46.7237 
  424000    94.803186   -7927.5996   -7383.6133    -828.5427     102002.7      46.7237      46.7237      46.7237 
  425000    91.838406   -7919.9268   -7392.9526   -617.38571     102002.7      46.7237      46.7237      46.7237 
  426000    89.243024   -7941.1629   -7429.0811    -498.9802     102002.7      46.7237      46.7237      46.7237 
  427000    91.449069   -7921.3333   -7396.5931   -959.60424     102002.7      46.7237      46.7237      46.7237 
  428000    93.414775   -7932.2483   -7396.2287   -828.03372     102002.7      46.7237      46.7237      46.7237 
  429000    90.893314    -7935.741   -7414.1897   -913.25977     102002.7      46.7237      46.7237      46.7237 
  430000    90.421055   -7926.9245   -7408.0831   -949.88059     102002.7      46.7237      46.7237      46.7237 
  431000    91.887746   -7911.0793    -7383.822    -914.1963     102002.7      46.7237      46.7237      46.7237 
  432000    91.094843   -7938.7155   -7416.0079   -834.73842     102002.7      46.7237      46.7237      46.7237 
  433000    90.785284   -7919.4257   -7398.4944    -894.3639     102002.7      46.7237      46.7237      46.7237 
  434000    91.815112   -7919.1927   -7392.3522   -879.41463     102002.7      46.7237      46.7237      46.7237 
  435000    90.267456   -7910.3854   -7392.4254   -702.27361     102002.7      46.7237      46.7237      46.7237 
  436000    92.087757   -7934.1811   -7405.7761   -830.23342     102002.7      46.7237      46.7237      46.7237 
  437000     89.91921   -7903.9097    -7387.948   -909.09341     102002.7      46.7237      46.7237      46.7237 
  438000    89.536291   -7926.5551   -7412.7906   -933.11183     102002.7      46.7237      46.7237      46.7237 
  439000    91.557676   -7915.7383    -7390.375   -810.86563     102002.7      46.7237      46.7237      46.7237 
  440000    92.942576   -7931.5794   -7398.2694    -707.7882     102002.7      46.7237      46.7237      46.7237 
  441000    91.321127   -7907.3271   -7383.3211   -929.07559     102002.7      46.7237      46.7237      46.7237 
  442000    91.336692   -7930.1991   -7406.1038   -798.80364     102002.7      46.7237      46.7237      46.7237 
  443000    94.953708   -7924.6566   -7379.8066   -827.94441     102002.7      46.7237      46.7237      46.7237 
  444000    89.659301   -7920.4873   -7406.0169    -915.2841     102002.7      46.7237      46.7237      46.7237 
  445000    89.615717   -7924.4737   -7410.2534   -474.29756     102002.7      46.7237      46.7237      46.7237 
  446000    89.122483   -7902.9565   -7391.5664   -738.46498     102002.7      46.7237      46.7237      46.7237 
  447000    91.934819   -7931.6926   -7404.1652   -626.26677     102002.7      46.7237      46.7237      46.7237 
  448000    92.002256   -7932.1575   -7404.2431    -702.0899     102002.7      46.7237      46.7237      46.7237 
  449000     90.64635   -7908.4437   -7388.3095   -934.89554     102002.7      46.7237      46.7237      46.7237 
  450000    92.018362   -7930.8724   -7402.8656   -767.75202     102002.7      46.7237      46.7237      46.7237 
  451000    89.529498   -7917.8422   -7404.1166   -1079.0501     102002.7      46.7237      46.7237      46.7237 
  452000    89.532905   -7913.4494   -7399.7043    -814.5679     102002.7      46.7237      46.7237      46.7237 
  453000    92.351233   -7927.1355   -7397.2186   -603.73567     102002.7      46.7237      46.7237      46.7237 
  454000     91.02046   -7924.0586   -7401.7778    -1077.156     102002.7      46.7237      46.7237      46.7237 
  455000    92.197349   -7921.1319   -7392.0981   -794.80718     102002.7      46.7237      46.7237      46.7237 
  456000    92.434772   -7920.6146   -7390.2184   -864.17967     102002.7      46.7237      46.7237      46.7237 
  457000    92.585925   -7920.1092   -7388.8457   -949.68438     102002.7      46.7237      46.7237      46.7237 
  458000    91.208933   -7932.8199   -7409.4577   -882.12758     102002.7      46.7237      46.7237      46.7237 
  459000    93.412377   -7905.6549   -7369.6491   -930.52864     102002.7      46.7237      46.7237      46.7237 
  460000    90.472771    -7918.491   -7399.3529   -676.43834     102002.7      46.7237      46.7237      46.7237 
  461000    90.137864   -7928.4615   -7411.2451   -773.37015     102002.7      46.7237      46.7237      46.7237 
  462000    90.041935    -7915.174    -7398.508    -817.3215     102002.7      46.7237      46.7237      46.7237 
  463000    88.942981   -7918.9067   -7408.5466   -705.51922     102002.7      46.7237      46.7237      46.7237 
  464000    95.076828   -7915.5707   -7370.0142   -832.62904     102002.7      46.7237      46.7237      46.7237 
  465000     90.90122   -7924.1208   -7402.5242   -620.63569     102002.7      46.7237      46.7237      46.7237 
  466000     95.25582   -7913.2584   -7366.6749   -712.72144     102002.7      46.7237      46.7237      46.7237 
  467000    92.688238   -7916.5793   -7384.7286   -997.70477     102002.7      46.7237      46.7237      46.7237 
  468000    90.596865   -7928.2918   -7408.4416   -965.77078     102002.7      46.7237      46.7237      46.7237 
  469000    90.868044   -7901.4347   -7380.0285   -766.94523     102002.7      46.7237      46.7237      46.7237 
  470000    91.439871   -7933.0639   -7408.3765   -906.38551     102002.7      46.7237      46.7237      46.7237 
  471000    93.384943   -7910.2097   -7374.3613   -900.54426     102002.7      46.7237      46.7237      46.7237 
  472000    87.776597   -7905.8283    -7402.161    -653.8648     102002.7      46.7237      46.7237      46.7237 
  473000    90.905494   -7917.1466   -7395.5254   -423.16179     102002.7      46.7237      46.7237      46.7237 
  474000    89.417172   -7911.8088   -7398.7277   -959.10188     102002.7      46.7237      46.7237      46.7237 
  475000    90.043996    -7908.678   -7392.0002   -927.24264     102002.7      46.7237      46.7237      46.7237 
  476000    90.815723   -7931.0391   -7409.9331   -829.95886     102002.7      46.7237      46.7237      46.7237 
  477000    91.661205   -7917.0835    -7391.126   -851.41246     102002.7      46.7237      46.7237      46.7237 
  478000    90.285735    -7931.391   -7413.3261   -432.46657     102002.7      46.7237      46.7237      46.7237 
  479000    91.526742   -7902.7717   -7377.5858   -845.19041     102002.7      46.7237      46.7237      46.7237 
  480000    91.997854   -7916.8064   -7388.9172   -717.95434     102002.7      46.7237      46.7237      46.7237 
  481000    87.336329   -7904.4917   -7403.3506   -786.14933     102002.7      46.7237      46.7237      46.7237 
  482000      90.7628    -7919.489   -7398.6867    -757.9704     102002.7      46.7237      46.7237      46.7237 
  483000      88.2193   -7929.0431   -7422.8356   -502.82061     102002.7      46.7237      46.7237      46.7237 
  484000    92.514084   -7932.7786   -7401.9273   -927.92862     102002.7      46.7237      46.7237      46.7237 
  485000    94.541615   -7913.3023   -7370.8169   -832.97624     102002.7      46.7237      46.7237      46.7237 
  486000    87.903546   -7929.2653   -7424.8695   -821.20254     102002.7      46.7237      46.7237      46.7237 
  487000    92.941033   -7908.0937   -7374.7925   -630.32714     102002.7      46.7237      46.7237      46.7237 
  488000    89.668574   -7921.2817   -7406.7581    -695.7882     102002.7      46.7237      46.7237      46.7237 
  489000    92.460468   -7935.7497   -7405.2061   -640.16402     102002.7      46.7237      46.7237      46.7237 
  490000    91.999291   -7942.2243   -7414.3269   -641.75388     102002.7      46.7237      46.7237      46.7237 
  491000    90.324622   -7910.6074   -7392.3194   -760.95469     102002.7      46.7237      46.7237      46.7237 
  492000    91.269852   -7927.0068    -7403.295   -885.08868     102002.7      46.7237      46.7237      46.7237 
  493000    88.879301   -7903.9437    -7393.949   -782.43194     102002.7      46.7237      46.7237      46.7237 
  494000    92.242235   -7939.8186   -7410.5272   -638.00287     102002.7      46.7237      46.7237      46.7237 
  495000    93.074941   -7922.8931   -7388.8235   -721.92325     102002.7      46.7237      46.7237      46.7237 
  496000    89.921743    -7920.173   -7404.1967   -786.76684     102002.7      46.7237      46.7237      46.7237 
  497000    90.019857   -7924.4642    -7407.925   -678.06962     102002.7      46.7237      46.7237      46.7237 
  498000    93.561976   -7921.2603   -7384.3961   -617.99893     102002.7      46.7237      46.7237      46.7237 
  499000    92.171078   -7910.9994   -7382.1163   -779.38459     102002.7      46.7237      46.7237      46.7237 
  500000     92.04253   -7931.3414   -7403.1959   -525.35748     102002.7      46.7237      46.7237      46.7237 
  500502    93.322603   -7907.8094   -7372.3188     -916.226     102002.7      46.7237      46.7237      46.7237 
Loop time of 1391.58 on 16 procs for 500000 steps with 1926 atoms

Performance: 31.044 ns/day, 0.773 hours/ns, 359.304 timesteps/s
99.8% CPU use with 16 MPI tasks x no OpenMP threads

MPI task timing breakdown:
Section |  min time  |  avg time  |  max time  |%varavg| %total
---------------------------------------------------------------
Pair    | 517.4      | 738.36     | 994.29     | 625.8 | 53.06
Bond    | 153.62     | 174.08     | 195.54     | 101.8 | 12.51
Neigh   | 5.5862     | 5.6154     | 5.642      |   0.9 |  0.40
Comm    | 188.51     | 459.67     | 692.93     | 850.0 | 33.03
Output  | 0.020592   | 0.020944   | 0.024157   |   0.6 |  0.00
Modify  | 7.6569     | 8.346      | 8.9645     |  13.2 |  0.60
Other   |            | 5.488      |            |       |  0.39

Nlocal:    120.375 ave 138 max 92 min
Histogram: 1 0 1 1 2 2 3 1 2 3
Nghost:    2404.12 ave 2430 max 2386 min
Histogram: 1 1 3 4 2 2 1 1 0 1
Neighs:    11452.8 ave 15592 max 7428 min
Histogram: 2 3 2 0 1 1 1 2 2 2

Total # of neighbors = 183245
Ave neighs/atom = 95.1428
Ave special neighs/atom = 5.98131
Neighbor list builds = 3758
Dangerous builds = 0
Neighbor list info ...
  update every 1 steps, delay 10 steps, check yes
  max neighbors/atom: 2000, page size: 100000
  master list distance cutoff = 16
  ghost atom cutoff = 16
  binsize = 8, bins = 6 6 6
  3 neighbor lists, perpetual/occasional/extra = 3 0 0
  (1) pair buck6d/coul/gauss/dsf, perpetual, skip from (3)
      attributes: half, newton on
      pair build: skip
      stencil: none
      bin: none
  (2) pair lj/cut, perpetual, skip from (3)
      attributes: half, newton on
      pair build: skip
      stencil: none
      bin: none
  (3) neighbor class addition, perpetual
      attributes: half, newton on
      pair build: half/bin/newton
      stencil: half/bin/3d/newton
      bin: standard
Setting up Verlet run ...
  Unit style    : real
  Current step  : 500502
  Time step     : 1
WARNING: Inconsistent image flags (../domain.cpp:786)
Per MPI rank memory allocation (min/avg/max) = 22.89 | 23.29 | 23.35 Mbytes
Step Time TotEng KinEng PotEng E_mol E_pair Temp Pxx Pyy Pzz Pxy Pxz Pyz Cella Cellb Cellc CellAlpha CellBeta CellGamma Volume Press 
  500502       500000   -7372.3188    535.49063   -7907.8094    4208.0438   -12115.853    93.322603   -519.11356    -1305.813   -923.75145    79.361052    26.564257    66.425627      46.7237      46.7237      46.7237           90           90           90     102002.7     -916.226 
  501000       500498   -7421.7393    499.50751   -7921.2468    4214.5051   -12135.752    87.051647   -849.58157   -800.88383    -334.1385    100.34307   -51.716177   -131.48136      46.7237      46.7237      46.7237           90           90           90     102002.7   -661.53463 
  502000       501498   -7392.8704    521.22707   -7914.0975    4195.1014   -12109.199    90.836821   -933.98255   -498.54352   -455.71932   -41.893571    94.515524   -222.89306      46.7237      46.7237      46.7237           90           90           90     102002.7   -629.41513 
  503000       502498    -7390.138    535.79709    -7925.935    4204.3284   -12130.263    93.376011   -351.76847   -386.08971   -471.46857    -63.38215   -19.436777     15.29467      46.7237      46.7237      46.7237           90           90           90     102002.7   -403.10892 
  504000       503498   -7419.3232    521.21414   -7940.5374    4190.7507   -12131.288    90.834567    -343.9598   -1149.7441   -656.17922    76.780046    135.28182   -13.870166      46.7237      46.7237      46.7237           90           90           90     102002.7   -716.62772 
  505000       504498   -7391.3428    520.69262   -7912.0354    4208.5204   -12120.556     90.74368    -850.0103   -470.98517   -458.20558   -83.321617   -22.052066    59.677632      46.7237      46.7237      46.7237           90           90           90     102002.7   -593.06702 
  506000       505498   -7390.4078    520.52816    -7910.936    4208.8362   -12119.772    90.715018   -925.11159   -1162.1826   -911.99757    50.650899   -65.337562    61.377069      46.7237      46.7237      46.7237           90           90           90     102002.7   -999.76393 
  507000       506498   -7405.3022    513.71208   -7919.0143     4191.967   -12110.981    89.527147   -785.34726   -874.86855   -582.31588   -73.183812    106.11588    33.318669      46.7237      46.7237      46.7237           90           90           90     102002.7   -747.51056 
  508000       507498   -7385.4706    533.00541    -7918.476    4208.4493   -12126.925    92.889491   -638.37424   -553.94514   -646.77584   -47.801874    159.76017    32.652393      46.7237      46.7237      46.7237           90           90           90     102002.7   -613.03174 
  509000       508498   -7364.0946    541.32622   -7905.4208    4237.9464   -12143.367      94.3396   -759.77758   -1254.2464   -675.96627    166.08316    129.12553   -54.927617      46.7237      46.7237      46.7237           90           90           90     102002.7   -896.66342 
  510000       509498   -7402.0761    532.84165   -7934.9178    4180.7795   -12115.697    92.860951   -1052.0462   -792.30357   -685.56486    49.430033    169.56826    229.66819      46.7237      46.7237      46.7237           90           90           90     102002.7   -843.30489 
  511000       510498   -7396.0738    533.87475   -7929.9485    4192.1644   -12122.113    93.040995   -1134.8516   -648.97406   -863.45269   -23.240017    264.92529   -67.832173      46.7237      46.7237      46.7237           90           90           90     102002.7   -882.42613 
  512000       511498   -7405.2124    530.02346   -7935.2359    4181.1325   -12116.368    92.369812   -1193.6497   -1196.7789   -725.21472    87.185423    77.902236    48.502071      46.7237      46.7237      46.7237           90           90           90     102002.7   -1038.5478 
  513000       512498   -7401.5184    521.95909   -7923.4775    4197.9294   -12121.407    90.964393   -1306.3881   -365.76169   -876.01375    152.89446     73.29668    144.61873      46.7237      46.7237      46.7237           90           90           90     102002.7   -849.38785 
  514000       513498   -7389.4521    541.96382   -7931.4159    4193.8289   -12125.245    94.450717   -1402.1516   -1014.5678   -817.92948    66.733494   -130.54467   -97.017646      46.7237      46.7237      46.7237           90           90           90     102002.7   -1078.2163 
  515000       514498   -7421.1345    509.19406   -7930.3286    4187.8536   -12118.182    88.739768   -1045.4006   -789.47467   -1102.7064    92.999252    192.81544   -35.544153      46.7237      46.7237      46.7237           90           90           90     102002.7    -979.1939 
  516000       515498   -7384.5499    528.24596   -7912.7958     4217.995   -12130.791    92.060038   -693.17434    -1221.337   -982.59721   -58.830267    -121.6857    24.989981      46.7237      46.7237      46.7237           90           90           90     102002.7   -965.70287 
  517000       516498   -7406.9194    516.90039   -7923.8198    4207.9708   -12131.791     90.08279   -1150.8017   -1151.5681   -929.66242   -46.833011    37.451086    221.44741      46.7237      46.7237      46.7237           90           90           90     102002.7   -1077.3441 
  518000       517498   -7424.1945    505.30018   -7929.4946    4192.6085   -12122.103    88.061163   -1118.3562    -831.1692   -878.43352    93.001713    29.538853   -144.07608      46.7237      46.7237      46.7237           90           90           90     102002.7   -942.65296 
  519000       518498   -7389.5817    526.79213   -7916.3739    4212.6429   -12129.017    91.806672   -774.87873   -539.38717   -821.08648   -111.76496    244.05259   -20.396552      46.7237      46.7237      46.7237           90           90           90     102002.7   -711.78412 
  520000       519498   -7405.2971     515.9435   -7921.2406    4201.4286   -12122.669    89.916026   -538.21208   -885.71243   -831.93043    58.693482   -101.74133   -64.591678      46.7237      46.7237      46.7237           90           90           90     102002.7   -751.95165 
  521000       520498    -7412.124    523.05071   -7935.1747    4204.7716   -12139.946    91.154635   -888.69151   -1025.3757   -835.74327   -27.789594    88.179381   -141.20029      46.7237      46.7237      46.7237           90           90           90     102002.7   -916.60349 
  522000       521498   -7402.4246     528.9054   -7931.3299    4195.6438   -12126.974    92.174961   -422.09527    -545.7267   -817.19737   -94.272613      55.7775      118.181      46.7237      46.7237      46.7237           90           90           90     102002.7   -595.00645 
  523000       522498   -7393.3284    519.63255    -7912.961    4210.8668   -12123.828    90.558936   -921.35116   -425.94775   -993.46123    271.56258    -53.02946     219.0754      46.7237      46.7237      46.7237           90           90           90     102002.7   -780.25338 
  524000       523498   -7426.4051    502.98001   -7929.3851    4197.2136   -12126.599    87.656815   -850.03714   -980.36385   -601.31758   -72.784499   -37.144711    247.92556      46.7237      46.7237      46.7237           90           90           90     102002.7   -810.57286 
  525000       524498   -7392.6453    522.72113   -7915.3664    4211.3946   -12126.761    91.097198    -590.6979   -836.59079   -803.32193   -29.907348   -198.92664   -183.73305      46.7237      46.7237      46.7237           90           90           90     102002.7   -743.53687 
  526000       525498   -7401.6829    524.14802   -7925.8309    4202.0148   -12127.846     91.34587   -698.46718   -705.55126   -753.72004   -89.436657    119.91275     89.45638      46.7237      46.7237      46.7237           90           90           90     102002.7   -719.24616 
  527000       526498   -7418.7287    518.98409   -7937.7128    4191.7044   -12129.417    90.445927   -820.56284   -652.40703   -971.62208   -61.552034    114.35039    106.91684      46.7237      46.7237      46.7237           90           90           90     102002.7   -814.86398 
  528000       527498   -7413.7146    506.77554   -7920.4901    4187.1553   -12107.645    88.318281   -688.48252    -719.0393   -835.10093    269.64446   -96.037803   -7.4476379      46.7237      46.7237      46.7237           90           90           90     102002.7   -747.54092 
  529000       528498   -7390.5115    522.65489   -7913.1663    4209.9964   -12123.163    91.085654   -556.97281    -860.3426   -1017.7843     110.6756   -165.16937    270.23951      46.7237      46.7237      46.7237           90           90           90     102002.7   -811.69989 
  530000       529498    -7407.764    509.30363   -7917.0676    4217.6417   -12134.709    88.758864   -958.04126    -1142.877   -848.92748    111.32508    50.348272   -152.48577      46.7237      46.7237      46.7237           90           90           90     102002.7   -983.28192 
  531000       530498     -7407.34    528.40309   -7935.7431    4195.0946   -12130.838    92.087422    -985.9352   -763.28085   -760.59082    168.22073    94.336654     103.8991      46.7237      46.7237      46.7237           90           90           90     102002.7   -836.60229 
  532000       531498   -7422.1512    508.32187    -7930.473    4189.8613   -12120.334    88.587769   -567.52944   -740.50239   -1063.3786     97.43041   -169.33534     316.3756      46.7237      46.7237      46.7237           90           90           90     102002.7   -790.47014 
  533000       532498   -7402.8072     526.2715   -7929.0787    4190.8044   -12119.883    91.715938   -1098.8401   -674.96795   -839.34925    93.805165    61.058085   -36.542887      46.7237      46.7237      46.7237           90           90           90     102002.7   -871.05244 
  534000       533498   -7389.1785    535.07912   -7924.2576    4194.6639   -12118.921    93.250886   -805.31001   -342.55328   -759.84467   -125.40996   -81.360177   0.24503349      46.7237      46.7237      46.7237           90           90           90     102002.7   -635.90265 
  535000       534498   -7405.9325    508.46498   -7914.3975    4198.1833   -12112.581    88.612709   -414.83928     -925.938   -843.14066   -24.773194   -150.63467     140.3303      46.7237      46.7237      46.7237           90           90           90     102002.7   -727.97265 
  536000       535498   -7424.4955    518.16345    -7942.659    4186.4375   -12129.096     90.30291   -1077.2548   -899.13595   -729.48427   -235.06233   -1.1638546   -82.885568      46.7237      46.7237      46.7237           90           90           90     102002.7   -901.95835 
  537000       536498   -7383.1211    523.81726   -7906.9384    4211.7221    -12118.66    91.288227   -313.12563    -689.4762   -287.27344   -165.49732   0.75851473    69.973674      46.7237      46.7237      46.7237           90           90           90     102002.7   -429.95842 
  538000       537498   -7400.2165    531.04223   -7931.2588    4205.0716    -12136.33    92.547357   -727.61294   -849.99681   -464.73346   -139.72107    223.74605   -115.92248      46.7237      46.7237      46.7237           90           90           90     102002.7   -680.78107 
  539000       538498   -7394.8824    531.19617   -7926.0786    4203.0279   -12129.107    92.574185   -550.43637   -1120.1972   -905.64577   -91.435536   -11.002588   -149.71857      46.7237      46.7237      46.7237           90           90           90     102002.7   -858.75978 
  540000       539498   -7414.5515    505.76019   -7920.3117    4193.7187    -12114.03    88.141331   -493.96163   -841.25857   -944.70729    242.24471    57.938998   -90.842988      46.7237      46.7237      46.7237           90           90           90     102002.7   -759.97583 
  541000       540498   -7401.2604    531.90522   -7933.1656    4205.2211   -12138.387    92.697754   -1033.0496   -769.98079   -702.99325    174.49476   -146.71635    140.85294      46.7237      46.7237      46.7237           90           90           90     102002.7   -835.34121 
  542000       541498   -7413.5006    512.64907   -7926.1497    4203.7946   -12129.944    89.341891   -977.93549   -980.82456   -707.51443   -66.207479   -227.40125    140.63197      46.7237      46.7237      46.7237           90           90           90     102002.7   -888.75816 
  543000       542498   -7415.0085    520.52764   -7935.5361    4186.8063   -12122.342    90.714928   -1047.9788   -941.47581   -808.73803    143.96627   -16.523384    103.71954      46.7237      46.7237      46.7237           90           90           90     102002.7    -932.7309 
  544000       543498   -7391.2664    521.82604   -7913.0924    4202.4975    -12115.59    90.941207   -539.10871   -731.64803   -465.70541    54.770074    94.666642    -49.13595      46.7237      46.7237      46.7237           90           90           90     102002.7   -578.82072 
  545000       544498   -7397.4974    526.46803   -7923.9654    4173.3867   -12097.352    91.750189   -711.69879   -984.72288   -590.99382   -106.48016   -115.97301     58.83741      46.7237      46.7237      46.7237           90           90           90     102002.7   -762.47183 
  546000       545498   -7403.7379     514.8884   -7918.6263    4198.6033    -12117.23     89.73215   -817.54719   -904.14866   -667.35995   -117.91703   -72.517115    96.551395      46.7237      46.7237      46.7237           90           90           90     102002.7   -796.35193 
  547000       546498   -7395.3038    506.80412   -7902.1079     4201.117   -12103.225    88.323263   -913.92164   -657.75317   -806.71681    7.0789233   -116.43976   -41.311555      46.7237      46.7237      46.7237           90           90           90     102002.7   -792.79721 
  548000       547498   -7411.1645    513.29589   -7924.4604     4193.301   -12117.761    89.454615   -1156.0818   -707.47902   -1022.1327    3.8652516   -21.688171     -13.6163      46.7237      46.7237      46.7237           90           90           90     102002.7   -961.89784 
  549000       548498   -7376.1144    526.97182   -7903.0862    4225.9194   -12129.006    91.837987   -568.52385   -523.04739    -680.4229   -234.50133   -16.846738   -139.18767      46.7237      46.7237      46.7237           90           90           90     102002.7   -590.66471 
  550000       549498   -7403.1758    509.55527   -7912.7311    4192.1781   -12104.909    88.802719   -1067.4373   -723.92239   -702.67267   -222.85438   -97.658605   -209.61663      46.7237      46.7237      46.7237           90           90           90     102002.7   -831.34411 
  551000       550498   -7381.2029    527.23044   -7908.4333    4210.6492   -12119.082    91.883058   -254.26309   -668.18788   -729.10997   -117.62919   -83.520712   -98.002994      46.7237      46.7237      46.7237           90           90           90     102002.7   -550.52031 
  552000       551498    -7391.372    514.62626   -7905.9983    4204.7346   -12110.733    89.686465   -492.48279   -838.82098   -655.91293   -153.52695   -15.538917   -101.38884      46.7237      46.7237      46.7237           90           90           90     102002.7   -662.40557 
  553000       552498   -7421.3069    505.01603    -7926.323    4192.2745   -12118.597    88.011643   -865.37522   -836.03752   -857.96722    131.08614   -105.80562    25.243899      46.7237      46.7237      46.7237           90           90           90     102002.7   -853.12665 
  554000       553498   -7392.4392    509.99182    -7902.431    4213.6816   -12116.113    88.878798   -819.01835   -695.93211   -853.41759   -96.567478    180.91461    -32.98185      46.7237      46.7237      46.7237           90           90           90     102002.7   -789.45602 
  555000       554498   -7405.8292    523.61961   -7929.4488    4183.3602   -12112.809    91.253781    69.097335   -1182.3274   -790.15288    213.33463    186.64649    15.547587      46.7237      46.7237      46.7237           90           90           90     102002.7   -634.46097 
[...]
  936000       935498   -7413.5586     516.9321   -7930.4907    4194.6875   -12125.178    90.088315   -1281.6479   -1118.2538   -787.55043    100.44083    -228.0355    43.778838      46.7237      46.7237      46.7237           90           90           90     102002.7    -1062.484 
  937000       936498   -7352.9637    542.98628     -7895.95    4217.2528   -12113.203    94.628906    -843.0739   -768.13214   -837.38768   -7.2586624    41.466728    256.05479      46.7237      46.7237      46.7237           90           90           90     102002.7   -816.19791 
  938000       937498   -7410.4072     521.8848    -7932.292    4193.2941   -12125.586    90.951447   -838.65262   -850.79888   -495.11942   -22.770792    193.55844   -53.082932      46.7237      46.7237      46.7237           90           90           90     102002.7    -728.1903 
  939000       938498   -7389.2854    537.48897   -7926.7744    4181.4531   -12108.227    93.670862   -1499.6068   -853.97609   -999.37768    78.251405    44.194817   -126.26438      46.7237      46.7237      46.7237           90           90           90     102002.7   -1117.6535 
  940000       939498   -7404.8043    512.77001   -7917.5743    4207.9347   -12125.509    89.362967   -520.37797   -670.97183   -687.79737   -279.01617   -110.30078   -20.289704      46.7237      46.7237      46.7237           90           90           90     102002.7   -626.38239 
  941000       940498   -7392.7044    526.40153    -7919.106    4203.8524   -12122.958      91.7386   -1135.0911   -664.26455    -534.8602    47.614868     28.26286    38.191232      46.7237      46.7237      46.7237           90           90           90     102002.7   -778.07196 
  942000       941498   -7399.9394    512.16766   -7912.1071    4211.7071   -12123.814    89.257994   -1328.9596   -1042.1431   -746.74398    196.52787   -4.2810366    72.763036      46.7237      46.7237      46.7237           90           90           90     102002.7   -1039.2822 
  943000       942498   -7416.9448    523.59199   -7940.5368    4182.4778   -12123.015    91.248968   -542.27227   -270.92145   -599.30827    241.12192    63.671311    11.804262      46.7237      46.7237      46.7237           90           90           90     102002.7     -470.834 
  944000       943498    -7394.896     522.2399   -7917.1359    4201.1728   -12118.309    91.013332   -1105.3182   -591.30007   -1212.2293    102.03539   -136.73747    53.882155      46.7237      46.7237      46.7237           90           90           90     102002.7   -969.61586 
  945000       944498   -7367.8061    535.02064   -7902.8267    4218.5144   -12121.341    93.240695   -926.35318   -760.98736    18.479376     -109.192    153.36315   -79.583507      46.7237      46.7237      46.7237           90           90           90     102002.7   -556.28705 
  946000       945498   -7410.0938    515.95194   -7926.0457    4206.7903   -12132.836    89.917497   -638.41169   -949.02703   -745.04799    123.97095    359.62915    22.798646      46.7237      46.7237      46.7237           90           90           90     102002.7   -777.49557 
  947000       946498    -7390.985    530.75268   -7921.7377    4209.0347   -12130.772    92.496896   -653.10898   -731.87063    -611.5721    85.805807    15.703194    219.92136      46.7237      46.7237      46.7237           90           90           90     102002.7   -665.51724 
  948000       947498    -7389.917    529.78126   -7919.6982    4203.8963   -12123.595    92.327601   -592.02525   -620.95089   -441.74076    222.19706   -212.48737    94.086341      46.7237      46.7237      46.7237           90           90           90     102002.7    -551.5723 
  949000       948498   -7411.3595    537.23531   -7948.5948    4188.0589   -12136.654    93.626656   -1031.0148   -667.63767   -870.90855   -115.29803    -426.0817    112.42976      46.7237      46.7237      46.7237           90           90           90     102002.7   -856.52034 
  950000       949498   -7407.0625    521.84594   -7928.9085    4209.1345   -12138.043    90.944675   -365.69582    -757.3946   -948.12849   -68.304283    -28.67811   -43.357021      46.7237      46.7237      46.7237           90           90           90     102002.7   -690.40631 
  951000       950498   -7401.8499     513.9466   -7915.7965    4212.2589   -12128.055    89.568017    -583.6717   -1189.4846   -834.43545   -79.302003   -7.1308177    126.29134      46.7237      46.7237      46.7237           90           90           90     102002.7   -869.19725 
  952000       951498   -7429.8285    497.13067   -7926.9592    4185.8495   -12112.809    86.637422   -1107.3203   -633.10658   -709.22786   -99.583124   -78.088723   -100.30443      46.7237      46.7237      46.7237           90           90           90     102002.7   -816.55158 
  953000       952498   -7403.2943    513.99502   -7917.2893    4208.4076   -12125.697    89.576457   -648.26733   -553.55515   -718.34734    86.503539   -44.118779    161.89689      46.7237      46.7237      46.7237           90           90           90     102002.7   -640.05661 
  954000       953498   -7376.6732    537.74409   -7914.4173    4217.0388   -12131.456    93.715323   -728.19422   -1078.3254   -1001.5384    283.55472    114.94031    109.10447      46.7237      46.7237      46.7237           90           90           90     102002.7   -936.01934 
  955000       954498   -7393.1154    524.07404   -7917.1894    4198.8778   -12116.067    91.332977   -994.63594   -571.77515   -757.14033    178.90992   -111.94203   0.19395058      46.7237      46.7237      46.7237           90           90           90     102002.7   -774.51714 
  956000       955498   -7395.1403    514.66639   -7909.8067    4222.2301   -12132.037     89.69346   -914.32852    -1088.057    -814.7806     3.917936      105.918   -83.711445      46.7237      46.7237      46.7237           90           90           90     102002.7   -939.05538 
  957000       956498   -7421.7871    504.65522   -7926.4423    4188.8382    -12115.28    87.948763   -1108.5637   -667.81299   -605.39163    193.16966   -213.80023    117.41026      46.7237      46.7237      46.7237           90           90           90     102002.7   -793.92278 
  958000       957498   -7390.3594     528.9006     -7919.26    4208.7164   -12127.976    92.174126    -763.4053   -279.63078   -1032.3946    125.25297    53.618179     -26.8235      46.7237      46.7237      46.7237           90           90           90     102002.7   -691.81023 
  959000       958498   -7438.4787    503.23251   -7941.7113    4205.2537   -12146.965     87.70082   -770.71232   -843.46575   -597.49696   -340.61331   -49.560565    183.22224      46.7237      46.7237      46.7237           90           90           90     102002.7   -737.22501 
  960000       959498   -7385.6708    526.87839   -7912.5492     4204.141    -12116.69    91.821704    -852.4521   -694.40267   -907.58192   -65.164971   -183.45841     172.6572      46.7237      46.7237      46.7237           90           90           90     102002.7   -818.14556 
  961000       960498   -7398.7641    526.19596   -7924.9601    4195.7482   -12120.708    91.702774   -1552.2788   -755.13737   -564.67049    132.36945    62.828841      144.027      46.7237      46.7237      46.7237           90           90           90     102002.7   -957.36221 
  962000       961498   -7425.2558     524.4267   -7949.6825    4172.3646   -12122.047    91.394437   -859.19153   -563.99885   -1217.8342     160.0089    61.249447    -44.27985      46.7237      46.7237      46.7237           90           90           90     102002.7   -880.34152 
  963000       962498    -7394.566    522.14907   -7916.7151     4224.219   -12140.934    90.997502   -803.16091    -781.3417   -801.45543    55.138866    176.42738    232.00699      46.7237      46.7237      46.7237           90           90           90     102002.7   -795.31935 
  964000       963498   -7441.3234    511.28312   -7952.6065    4174.3542   -12126.961     89.10384   -862.10041   -736.94157   -676.68853   -70.765136   -99.857325    40.378513      46.7237      46.7237      46.7237           90           90           90     102002.7   -758.57684 
  965000       964498   -7392.1245    530.94996   -7923.0744    4209.2495   -12132.324    92.531277    -713.2649   -599.57942    -1225.423   -166.11358    133.93095   -211.72051      46.7237      46.7237      46.7237           90           90           90     102002.7    -846.0891 
  966000       965498   -7417.6437    508.02748   -7925.6711    4193.7961   -12119.467    88.536464   -820.89894   -773.83869   -830.89612    -42.12175    147.89636   -32.965872      46.7237      46.7237      46.7237           90           90           90     102002.7   -808.54458 
  967000       966498   -7398.3394    519.28763    -7917.627    4223.6151   -12141.242    90.498826   -278.52983   -1010.9745   -650.99101   -66.767332    68.538808     -74.7824      46.7237      46.7237      46.7237           90           90           90     102002.7   -646.83177 
  968000       967498   -7416.9602    512.58631   -7929.5466    4198.1125   -12127.659    89.330953   -741.54504   -1309.2092   -960.58731    26.215163    157.24842     265.3029      46.7237      46.7237      46.7237           90           90           90     102002.7   -1003.7805 
  969000       968498   -7394.0887    527.05972   -7921.1484    4194.5476   -12115.696    91.853307   -773.75733   -783.97787   -422.05678   -65.508232    69.982382   -107.45246      46.7237      46.7237      46.7237           90           90           90     102002.7   -659.93066 
  970000       969498   -7386.9833    527.64086   -7914.6242    4196.6844   -12111.309    91.954585   -913.29494   -651.38577   -552.77592   -26.096481   -73.209024    -47.64371      46.7237      46.7237      46.7237           90           90           90     102002.7   -705.81888 
  971000       970498   -7391.1022     526.6676   -7917.7698    4202.9025   -12120.672    91.784969   -724.76045   -872.35214   -804.57855   -110.02858    97.174933   -120.60835      46.7237      46.7237      46.7237           90           90           90     102002.7   -800.56371 
  972000       971498   -7386.9978    532.40123    -7919.399    4197.2806    -12116.68    92.784196   -664.33329   -310.40307   -580.49021    53.954134   -115.35289   -213.49822      46.7237      46.7237      46.7237           90           90           90     102002.7   -518.40886 
  973000       972498   -7397.5739    531.84337   -7929.4173    4189.2285   -12118.646    92.686976   -546.23318    -1138.009   -321.54157    89.371535    148.04937    25.397857      46.7237      46.7237      46.7237           90           90           90     102002.7   -668.59459 
  974000       973498   -7390.6978    528.27226   -7918.9701    4213.1523   -12132.122    92.064621   -928.67368   -934.25933   -1000.9403   -7.8724972    230.46515   -53.524015      46.7237      46.7237      46.7237           90           90           90     102002.7   -954.62444 
  975000       974498   -7378.6155    534.61124   -7913.2267    4206.9791   -12120.206    93.169347   -874.09943   -803.04807   -831.43193   -25.952783   -128.64053    -87.54881      46.7237      46.7237      46.7237           90           90           90     102002.7   -836.19314 
  976000       975498   -7402.8775    524.50843    -7927.386    4181.1513   -12108.537     91.40868   -768.17876   -920.78515   -841.66565    95.151893   -43.113787    218.73094      46.7237      46.7237      46.7237           90           90           90     102002.7   -843.54319 
  977000       976498   -7406.4286     516.7384    -7923.167    4195.7281   -12118.895    90.054559   -743.84578   -928.87867   -994.30444     123.8328    242.63161   -60.367583      46.7237      46.7237      46.7237           90           90           90     102002.7   -889.00963 
  978000       977498   -7367.8389    544.14468   -7911.9836    4198.9295   -12110.913    94.830787   -1000.0307   -797.49455   -1041.7439    233.61809   -48.494354    -28.31859      46.7237      46.7237      46.7237           90           90           90     102002.7   -946.42308 
  979000       978498   -7393.9667    521.04235   -7915.0091    4204.3183   -12119.327    90.804629   -683.55147   -671.14134    -656.4978   -94.891119   -96.516647    185.26933      46.7237      46.7237      46.7237           90           90           90     102002.7   -670.39687 
  980000       979498    -7380.938    532.90842   -7913.8464    4207.3917   -12121.238    92.872587   -1036.5323   -559.55622   -1010.6201   -117.11072    -87.22422   -226.59011      46.7237      46.7237      46.7237           90           90           90     102002.7   -868.90286 
  981000       980498   -7394.2294    528.82755   -7923.0569    4210.3428     -12133.4    92.161395   -1137.1587   -654.95818   -1060.9172   -80.704905   -41.344586    86.151407      46.7237      46.7237      46.7237           90           90           90     102002.7   -951.01138 
  982000       981498   -7416.2411    516.42449   -7932.6655    4192.1148    -12124.78    89.999851   -1154.6876    -504.5687   -1195.6502   -45.624838   -139.42255    -87.82603      46.7237      46.7237      46.7237           90           90           90     102002.7   -951.63549 
  983000       982498    -7419.957    509.55311   -7929.5101    4186.5613   -12116.071    88.802342   -675.77012   -767.64468   -905.66718   -247.27227   -121.03495   -107.21589      46.7237      46.7237      46.7237           90           90           90     102002.7   -783.02733 
  984000       983498    -7390.299    519.34564   -7909.6447    4207.1538   -12116.798    90.508935   -1024.1535   -606.19453   -670.91168   -188.00396    51.438237   -235.20257      46.7237      46.7237      46.7237           90           90           90     102002.7   -767.08657 
  985000       984498   -7379.9926    531.13955   -7911.1321    4220.4113   -12131.543    92.564317   -232.32043    -1466.884   -1212.0665    5.8500333    -33.95519     31.40039      46.7237      46.7237      46.7237           90           90           90     102002.7   -970.42363 
  986000       985498   -7404.1379    523.86132   -7927.9992    4187.0968   -12115.096    91.295904     -690.441   -635.85218   -676.32041    77.650394   -24.963197   -101.06816      46.7237      46.7237      46.7237           90           90           90     102002.7   -667.53786 
  987000       986498   -7398.5596    518.38683   -7916.9464    4186.1116   -12103.058    90.341838   -844.71369   -879.76035    -630.9244    20.224827   -89.645654    118.51155      46.7237      46.7237      46.7237           90           90           90     102002.7   -785.13281 
  988000       987498   -7412.7251    526.41801   -7939.1431    4183.3231   -12122.466    91.741472   -923.55647   -716.14848   -1529.5007   -96.664133    65.688632    9.0739567      46.7237      46.7237      46.7237           90           90           90     102002.7   -1056.4019 
  989000       988498   -7384.5349    535.09013   -7919.6251    4212.2554    -12131.88    93.252806   -716.61892   -548.73779   -454.81605   -24.932127   -81.194211   -216.80463      46.7237      46.7237      46.7237           90           90           90     102002.7   -573.39092 
  990000       989498   -7386.3696    525.74443   -7912.1141    4208.1803   -12120.294    91.624084   -917.94331   -1157.1277   -564.54836     123.7432     94.88055   -181.91205      46.7237      46.7237      46.7237           90           90           90     102002.7   -879.87313 
  991000       990498   -7401.4533     514.3065   -7915.7598    4203.5733   -12119.333    89.630739   -645.00687   -555.94168   -863.75159    153.45353    -121.1066   -169.90293      46.7237      46.7237      46.7237           90           90           90     102002.7   -688.23338 
  992000       991498   -7419.2537    516.63253   -7935.8862    4194.2483   -12130.135    90.036107   -1101.3602   -784.04872   -436.78425    53.044098    148.43092    7.6026157      46.7237      46.7237      46.7237           90           90           90     102002.7   -774.06441 
  993000       992498   -7396.9071    516.60635   -7913.5135    4214.1544   -12127.668    90.031545   -971.43227   -920.80441   -1163.8322   -11.393145    119.12837   -60.783821      46.7237      46.7237      46.7237           90           90           90     102002.7   -1018.6896 
  994000       993498   -7416.0275    507.93942    -7923.967    4207.1657   -12131.133    88.521117   -574.43875   -963.40423   -812.83747    112.63678    56.929556   -96.260758      46.7237      46.7237      46.7237           90           90           90     102002.7   -783.56015 
  995000       994498   -7373.3712    539.43322   -7912.8044     4211.413   -12124.217    94.009697   -769.91355   -1010.1546   -483.25852   -25.717056    291.68809     113.9746      46.7237      46.7237      46.7237           90           90           90     102002.7   -754.44223 
  996000       995498   -7394.6685     519.9052   -7914.5737    4208.1859    -12122.76    90.606452   -1116.5352   -647.30648   -573.22481    256.26266    47.500989   -186.46174      46.7237      46.7237      46.7237           90           90           90     102002.7   -779.02217 
  997000       996498   -7396.3237    513.50572   -7909.8294    4209.9961   -12119.826    89.491183   -1031.4508   -1228.0742   -407.55491    107.33284    41.535882   -83.339262      46.7237      46.7237      46.7237           90           90           90     102002.7   -889.02664 
  998000       997498   -7365.1351     541.3814   -7906.5165    4196.7371   -12103.254    94.349217   -579.78397   -963.35217   -812.90834    155.60304   -222.18239   -149.15936      46.7237      46.7237      46.7237           90           90           90     102002.7   -785.34816 
  999000       998498   -7387.6605    540.19915   -7927.8596    4177.2634   -12105.123    94.143179   -1078.4535   -302.49233   -1106.9589    11.698427   -1.0854066    17.509497      46.7237      46.7237      46.7237           90           90           90     102002.7   -829.30159 
 1000000       999498   -7419.9183     509.0982   -7929.0165    4195.8325   -12124.849    88.723062   -621.54012   -540.78144   -738.61307   -16.871326   -77.381633    24.584349      46.7237      46.7237      46.7237           90           90           90     102002.7   -633.64487 
 1000502      1000000   -7394.1017    532.78493   -7926.8866    4180.5944   -12107.481    92.851066   -805.14648   -346.73061   -498.69213   -28.703394    153.59148     29.21395      46.7237      46.7237      46.7237           90           90           90     102002.7   -550.18974 
Loop time of 1559.3 on 16 procs for 500000 steps with 1926 atoms

Performance: 27.705 ns/day, 0.866 hours/ns, 320.656 timesteps/s
99.8% CPU use with 16 MPI tasks x no OpenMP threads

MPI task timing breakdown:
Section |  min time  |  avg time  |  max time  |%varavg| %total
---------------------------------------------------------------
Pair    | 614.04     | 849.63     | 1119.3     | 616.1 | 54.49
Bond    | 167.62     | 183.28     | 203.11     |  80.3 | 11.75
Neigh   | 5.582      | 5.6158     | 5.6466     |   0.9 |  0.36
Comm    | 210.22     | 492.57     | 738.55     | 852.8 | 31.59
Output  | 0.10176    | 0.1068     | 0.10722    |   0.4 |  0.01
Modify  | 22.064     | 22.688     | 23.637     |  10.1 |  1.45
Other   |            | 5.417      |            |       |  0.35

Nlocal:    120.375 ave 160 max 73 min
Histogram: 1 0 0 2 3 4 2 3 0 1
Nghost:    2407.75 ave 2454 max 2369 min
Histogram: 2 1 1 0 5 3 3 0 0 1
Neighs:    11466.2 ave 19402 max 4914 min
Histogram: 1 1 4 3 0 1 3 2 0 1

Total # of neighbors = 183460
Ave neighs/atom = 95.2544
Ave special neighs/atom = 5.98131
Neighbor list builds = 3806
Dangerous builds = 0
Total wall time: 0:49:14
