LAMMPS (30 Mar 2018)
Reading data file ...
  orthogonal box = (0 0 0) to (46.7237 46.7237 46.7237)
  2 by 2 by 4 MPI processor grid
  reading atoms ...
  2086 atoms
  scanning bonds ...
  5 = max bonds/atom
  scanning angles ...
  10 = max angles/atom
  scanning dihedrals ...
  32 = max dihedrals/atom
  scanning impropers ...
  3 = max impropers/atom
  reading bonds ...
  2064 bonds
  reading angles ...
  3696 angles
  reading dihedrals ...
  6240 dihedrals
  reading impropers ...
  1008 impropers
Finding 1-2 1-3 1-4 neighbors ...
  special bond factors lj:   0          0          0         
  special bond factors coul: 0          0          0         
  5 = max # of 1-2 neighbors
  8 = max # of 1-3 neighbors
  20 = max # of 1-4 neighbors
  19 = max # of special neighbors
Finding 1-2 1-3 1-4 neighbors ...
  special bond factors lj:   0          0          1         
  special bond factors coul: 1          1          1         
  5 = max # of 1-2 neighbors
  8 = max # of 1-3 neighbors
  19 = max # of special neighbors
WARNING: Using 'neigh_modify every 1 delay 0 check yes' setting during minimization (../min.cpp:168)
Neighbor list info ...
  update every 1 steps, delay 0 steps, check yes
  max neighbors/atom: 2000, page size: 100000
  master list distance cutoff = 16
  ghost atom cutoff = 16
  binsize = 8, bins = 6 6 6
  3 neighbor lists, perpetual/occasional/extra = 3 0 0
  (1) pair buck6d/coul/gauss/dsf, perpetual, skip from (3)
      attributes: half, newton on
      pair build: skip
      stencil: none
      bin: none
  (2) pair lj/cut, perpetual, skip from (3)
      attributes: half, newton on
      pair build: skip
      stencil: none
      bin: none
  (3) neighbor class addition, perpetual
      attributes: half, newton on
      pair build: half/bin/newton
      stencil: half/bin/3d/newton
      bin: standard
Setting up cg style minimization ...
  Unit style    : real
  Current step  : 0
WARNING: Inconsistent image flags (../domain.cpp:786)
Per MPI rank memory allocation (min/avg/max) = 22.92 | 23.37 | 23.81 Mbytes
Step Temp E_pair E_mol TotEng Press 
       0            0   -12671.941    6482.8914   -6189.0494    6096.1403 
     500            0   -12756.655    3707.6914   -9048.9633   -541.78758 
Loop time of 4.96241 on 16 procs for 500 steps with 2086 atoms

99.9% CPU use with 16 MPI tasks x no OpenMP threads

Minimization stats:
  Stopping criterion = max force evaluations
  Energy initial, next-to-last, final = 
        -6189.04938387      -9048.9210849     -9048.96329858
  Force two-norm initial, final = 2573.89 9.34221
  Force max component initial, final = 151.923 1.43015
  Final line search alpha, max atom move = 0.00535744 0.00766191
  Iterations, force evaluations = 500 1000

MPI task timing breakdown:
Section |  min time  |  avg time  |  max time  |%varavg| %total
---------------------------------------------------------------
Pair    | 1.4476     | 2.0886     | 4.1336     |  45.5 | 42.09
Bond    | 0.29488    | 0.37589    | 0.59903    |  11.0 |  7.57
Neigh   | 0.037951   | 0.038478   | 0.038988   |   0.2 |  0.78
Comm    | 0.28703    | 2.4108     | 3.0716     |  44.9 | 48.58
Output  | 0          | 0          | 0          |   0.0 |  0.00
Modify  | 0          | 0          | 0          |   0.0 |  0.00
Other   |            | 0.0487     |            |       |  0.98

Nlocal:    130.375 ave 149 max 110 min
Histogram: 2 0 1 2 2 3 1 3 1 1
Nghost:    2541.25 ave 2561 max 2519 min
Histogram: 1 1 0 3 2 3 2 1 2 1
Neighs:    11462.2 ave 15714 max 7389 min
Histogram: 1 1 3 2 1 2 2 2 1 1

Total # of neighbors = 183395
Ave neighs/atom = 87.9171
Ave special neighs/atom = 5.52253
Neighbor list builds = 15
Dangerous builds = 0
Neighbor list info ...
  update every 1 steps, delay 10 steps, check yes
  max neighbors/atom: 2000, page size: 100000
  master list distance cutoff = 16
  ghost atom cutoff = 16
  binsize = 8, bins = 6 6 6
  3 neighbor lists, perpetual/occasional/extra = 3 0 0
  (1) pair buck6d/coul/gauss/dsf, perpetual, skip from (3)
      attributes: half, newton on
      pair build: skip
      stencil: none
      bin: none
  (2) pair lj/cut, perpetual, skip from (3)
      attributes: half, newton on
      pair build: skip
      stencil: none
      bin: none
  (3) neighbor class addition, perpetual
      attributes: half, newton on
      pair build: half/bin/newton
      stencil: half/bin/3d/newton
      bin: standard
Setting up Verlet run ...
  Unit style    : real
  Current step  : 500
  Time step     : 1
WARNING: Inconsistent image flags (../domain.cpp:786)
Per MPI rank memory allocation (min/avg/max) = 22.56 | 22.64 | 22.88 Mbytes
Step Temp PotEng TotEng Press Volume Lx Ly Lz 
     500           91   -9048.9633   -8483.3993   -288.33138     102002.7      46.7237      46.7237      46.7237 
    1000    76.617734   -8537.0323   -8060.8539    -673.9066     102002.7      46.7237      46.7237      46.7237 
    2000     93.09462   -8470.8719   -7892.2898   -529.11113     102002.7      46.7237      46.7237      46.7237 
    3000    91.586537   -8458.9413   -7889.7319   -562.59673     102002.7      46.7237      46.7237      46.7237 
    4000     93.59762   -8459.5722    -7877.864   -461.18255     102002.7      46.7237      46.7237      46.7237 
    5000    92.457318   -8459.0514   -7884.4302   -711.41682     102002.7      46.7237      46.7237      46.7237 
    6000    90.621203   -8466.6862   -7903.4764   -434.23713     102002.7      46.7237      46.7237      46.7237 
    7000    91.261472   -8456.0774   -7888.8884   -830.20531     102002.7      46.7237      46.7237      46.7237 
    8000    89.281569   -8460.4873   -7905.6033   -848.23433     102002.7      46.7237      46.7237      46.7237 
    9000    90.105422    -8475.228   -7915.2238   -805.07658     102002.7      46.7237      46.7237      46.7237 
   10000    91.395853   -8462.9935   -7894.9693   -782.54032     102002.7      46.7237      46.7237      46.7237 
   11000    90.972358   -8444.1072    -7878.715   -659.27009     102002.7      46.7237      46.7237      46.7237 
   12000    94.084384    -8447.954   -7863.2206   -680.68415     102002.7      46.7237      46.7237      46.7237 
   13000    91.266418   -8446.0346   -7878.8148   -655.64226     102002.7      46.7237      46.7237      46.7237 
   14000    89.546278   -8419.2464   -7862.7172    -725.5813     102002.7      46.7237      46.7237      46.7237 
   15000    90.164489   -8463.2702   -7902.8989   -626.03107     102002.7      46.7237      46.7237      46.7237 
   16000    88.230632   -8430.3004    -7881.948   -684.65276     102002.7      46.7237      46.7237      46.7237 
   17000    91.246448   -8429.3176   -7862.2219   -834.50112     102002.7      46.7237      46.7237      46.7237 
   18000    93.435687   -8451.3702   -7870.6684   -423.84483     102002.7      46.7237      46.7237      46.7237 
   19000     91.88511   -8460.4423   -7889.3773   -597.87184     102002.7      46.7237      46.7237      46.7237 
   20000     88.26342   -8459.4983   -7910.9421   -538.85328     102002.7      46.7237      46.7237      46.7237 
   21000    92.356147   -8448.7704   -7874.7779   -685.08694     102002.7      46.7237      46.7237      46.7237 
   22000     91.05212   -8457.3438   -7891.4559   -534.48995     102002.7      46.7237      46.7237      46.7237 
   23000      89.0743   -8440.4291   -7886.8333   -497.58866     102002.7      46.7237      46.7237      46.7237 
   24000    89.417637   -8445.6331   -7889.9035   -879.06637     102002.7      46.7237      46.7237      46.7237 
   25000    91.854732   -8457.8762        -7887   -610.80871     102002.7      46.7237      46.7237      46.7237 
   26000    92.468303   -8441.1853   -7866.4958   -728.94429     102002.7      46.7237      46.7237      46.7237 
   27000    91.096656   -8449.6444   -7883.4797   -801.68429     102002.7      46.7237      46.7237      46.7237 
   28000    90.531701   -8458.3757   -7895.7222   -461.98263     102002.7      46.7237      46.7237      46.7237 
   29000    91.242365   -8441.6137   -7874.5434   -805.21003     102002.7      46.7237      46.7237      46.7237 
   30000    90.730902   -8454.8684   -7890.9768   -629.85705     102002.7      46.7237      46.7237      46.7237 
   31000    89.776528   -8455.1907   -7897.2306   -610.60193     102002.7      46.7237      46.7237      46.7237 
   32000    88.966355   -8447.9204   -7894.9955   -745.85854     102002.7      46.7237      46.7237      46.7237 
   33000    89.969625   -8455.8344   -7896.6742   -626.86308     102002.7      46.7237      46.7237      46.7237 
   34000    90.335979   -8435.4243   -7873.9872   -754.96183     102002.7      46.7237      46.7237      46.7237 
   35000    92.096202   -8480.5271   -7908.1502    -541.2731     102002.7      46.7237      46.7237      46.7237 
   36000    90.935512   -8445.8624   -7880.6992   -726.22783     102002.7      46.7237      46.7237      46.7237 
   37000    91.842186   -8450.4686   -7879.6704   -464.91026     102002.7      46.7237      46.7237      46.7237 
   38000     91.89358   -8448.0898   -7876.9722   -434.78345     102002.7      46.7237      46.7237      46.7237 
   39000    88.321502   -8443.7899   -7894.8727   -566.15512     102002.7      46.7237      46.7237      46.7237 
   40000    90.117297   -8434.8591   -7874.7811   -807.03684     102002.7      46.7237      46.7237      46.7237 
   41000    92.053292   -8439.0794   -7866.9692   -611.95718     102002.7      46.7237      46.7237      46.7237 
   42000    89.120071    -8453.858   -7899.9777   -456.27347     102002.7      46.7237      46.7237      46.7237 
   43000    92.063356   -8438.0939   -7865.9212   -696.65351     102002.7      46.7237      46.7237      46.7237 
   44000    91.123795   -8467.1459   -7900.8126   -676.16592     102002.7      46.7237      46.7237      46.7237 
   45000    92.177328   -8444.8246   -7871.9435   -496.77036     102002.7      46.7237      46.7237      46.7237 
   46000    93.365974   -8455.4069   -7875.1384   -597.78089     102002.7      46.7237      46.7237      46.7237 
   47000    91.103268   -8445.7359   -7879.5301   -667.53397     102002.7      46.7237      46.7237      46.7237 
   48000    91.931446   -8462.7194   -7891.3665   -665.73375     102002.7      46.7237      46.7237      46.7237 
   49000    90.405896   -8446.0724   -7884.2007   -400.21167     102002.7      46.7237      46.7237      46.7237 
   50000    89.261094    -8446.982   -7892.2253   -695.76652     102002.7      46.7237      46.7237      46.7237 
   51000     87.92493   -8441.9767   -7895.5242   -547.66142     102002.7      46.7237      46.7237      46.7237 
   52000    90.823631   -8452.8884   -7888.4205   -360.83042     102002.7      46.7237      46.7237      46.7237 
   53000    91.015436     -8429.89   -7864.2301   -423.27531     102002.7      46.7237      46.7237      46.7237 
   54000    91.020359   -8429.3388   -7863.6483   -636.17558     102002.7      46.7237      46.7237      46.7237 
   55000    88.750528   -8442.4045   -7890.8209   -513.42314     102002.7      46.7237      46.7237      46.7237 
   56000    92.934075    -8458.569   -7880.9848   -581.80787     102002.7      46.7237      46.7237      46.7237 
   57000    92.323583   -8435.3088   -7861.5187   -650.97368     102002.7      46.7237      46.7237      46.7237 
   58000    89.690559   -8447.3739   -7889.9481   -501.18666     102002.7      46.7237      46.7237      46.7237 
   59000    91.757722    -8444.314   -7874.0408   -592.21253     102002.7      46.7237      46.7237      46.7237 
   60000    90.751021   -8450.9754   -7886.9588   -708.34091     102002.7      46.7237      46.7237      46.7237 
   61000    91.063425   -8447.8606   -7881.9024   -853.60018     102002.7      46.7237      46.7237      46.7237 
   62000    89.343985   -8434.8279    -7879.556   -788.10333     102002.7      46.7237      46.7237      46.7237 
   63000    90.463843   -8457.7023   -7895.4705   -641.58096     102002.7      46.7237      46.7237      46.7237 
   64000    91.611351   -8447.9772   -7878.6137   -701.97774     102002.7      46.7237      46.7237      46.7237 
   65000    91.422499   -8454.4172   -7886.2274   -710.23997     102002.7      46.7237      46.7237      46.7237 
   66000    92.603877   -8443.9354   -7868.4033   -649.62096     102002.7      46.7237      46.7237      46.7237 
   67000    91.180119   -8453.7077   -7887.0243   -634.72275     102002.7      46.7237      46.7237      46.7237 
   68000    87.844062   -8466.9713   -7921.0214   -719.53207     102002.7      46.7237      46.7237      46.7237 
   69000    91.665653   -8450.6214   -7880.9204     -603.801     102002.7      46.7237      46.7237      46.7237 
   70000    93.014786   -8454.3582   -7876.2724    -745.5557     102002.7      46.7237      46.7237      46.7237 
   71000    91.316894   -8428.3459   -7860.8124    -658.5224     102002.7      46.7237      46.7237      46.7237 
   72000    91.072955   -8461.6431   -7895.6257   -644.20879     102002.7      46.7237      46.7237      46.7237 
   73000    91.063051    -8437.876   -7871.9201   -750.95978     102002.7      46.7237      46.7237      46.7237 
   74000    89.126317   -8410.6653   -7856.7462     -741.136     102002.7      46.7237      46.7237      46.7237 
   75000    89.460562   -8435.7861   -7879.7897   -780.28331     102002.7      46.7237      46.7237      46.7237 
   76000    92.755253   -8446.5078   -7870.0349   -700.16352     102002.7      46.7237      46.7237      46.7237 
   77000    94.430608    -8443.352   -7856.4668   -597.79402     102002.7      46.7237      46.7237      46.7237 
   78000    91.033017   -8432.9344   -7867.1652   -848.90111     102002.7      46.7237      46.7237      46.7237 
   79000    91.037694   -8442.1525   -7876.3542   -684.53706     102002.7      46.7237      46.7237      46.7237 
   80000    91.173338   -8439.0841   -7872.4428   -476.97126     102002.7      46.7237      46.7237      46.7237 
   81000    91.510956   -8436.3376    -7867.598   -754.52315     102002.7      46.7237      46.7237      46.7237 
   82000    93.184999   -8431.8207    -7852.677   -663.93206     102002.7      46.7237      46.7237      46.7237 
   83000    91.471815   -8445.2304   -7876.7341    -513.5628     102002.7      46.7237      46.7237      46.7237 
   84000    91.076664   -8436.6628   -7870.6223   -581.63981     102002.7      46.7237      46.7237      46.7237 
   85000    89.957902   -8424.2391   -7865.1518   -430.90435     102002.7      46.7237      46.7237      46.7237 
   86000    92.667905   -8442.6034   -7866.6734   -412.58687     102002.7      46.7237      46.7237      46.7237 
   87000    91.346834   -8430.6023   -7862.8827   -401.23079     102002.7      46.7237      46.7237      46.7237 
   88000    91.508899    -8450.093   -7881.3662   -658.49961     102002.7      46.7237      46.7237      46.7237 
   89000    91.747198    -8425.795   -7855.5871   -810.27114     102002.7      46.7237      46.7237      46.7237 
   90000    91.264797   -8450.5035   -7883.2938   -599.23085     102002.7      46.7237      46.7237      46.7237 
   91000    91.144911   -8426.6189   -7860.1543   -683.75734     102002.7      46.7237      46.7237      46.7237 
   92000    89.549236   -8441.5748   -7885.0273   -751.07715     102002.7      46.7237      46.7237      46.7237 
   93000    90.723765   -8440.9448   -7877.0976   -869.72907     102002.7      46.7237      46.7237      46.7237 
   94000    91.562756   -8437.2261   -7868.1646   -550.35703     102002.7      46.7237      46.7237      46.7237 
   95000    91.186967   -8455.8144   -7889.0884   -527.17793     102002.7      46.7237      46.7237      46.7237 
   96000    92.273478   -8449.6621   -7876.1834   -775.06548     102002.7      46.7237      46.7237      46.7237 
   97000    89.833181   -8434.4777   -7876.1655   -257.02164     102002.7      46.7237      46.7237      46.7237 
   98000    93.267197   -8442.2934   -7862.6388   -597.51804     102002.7      46.7237      46.7237      46.7237 
   99000    91.578934   -8442.5288   -7873.3667   -978.79804     102002.7      46.7237      46.7237      46.7237 
  100000    92.344514   -8444.0256   -7870.1055   -378.49611     102002.7      46.7237      46.7237      46.7237 
  101000    92.556325   -8443.9242   -7868.6876   -463.06727     102002.7      46.7237      46.7237      46.7237 
  102000    90.064513    -8453.237    -7893.487    -764.4354     102002.7      46.7237      46.7237      46.7237 
  103000    93.029924   -8429.0414   -7850.8615   -610.57822     102002.7      46.7237      46.7237      46.7237 
  104000    88.545301   -8449.8843   -7899.5763   -733.40163     102002.7      46.7237      46.7237      46.7237 
  105000    91.666028    -8446.736   -7877.0326    -602.7392     102002.7      46.7237      46.7237      46.7237 
  106000    92.549038   -8418.9906   -7843.7994    -904.9947     102002.7      46.7237      46.7237      46.7237 
  107000    91.820545   -8436.1165   -7865.4528    -637.3879     102002.7      46.7237      46.7237      46.7237 
  108000     92.92568   -8440.5894   -7863.0573   -882.29206     102002.7      46.7237      46.7237      46.7237 
  109000    91.481694   -8446.6975   -7878.1398   -966.90409     102002.7      46.7237      46.7237      46.7237 
  110000    89.032492    -8455.688   -7902.3521   -593.91403     102002.7      46.7237      46.7237      46.7237 
  111000    92.932156   -8435.4874   -7857.9151   -814.49095     102002.7      46.7237      46.7237      46.7237 
  112000    86.938415   -8447.0295   -7906.7082    -795.2385     102002.7      46.7237      46.7237      46.7237 
  113000    92.510995   -8441.8497   -7866.8949   -690.05827     102002.7      46.7237      46.7237      46.7237 
  114000    91.942187   -8433.5357   -7862.1161   -692.11473     102002.7      46.7237      46.7237      46.7237 
  115000    89.306713   -8446.3841   -7891.3438   -278.01307     102002.7      46.7237      46.7237      46.7237 
  116000    91.721192   -8414.9025   -7844.8563   -781.27837     102002.7      46.7237      46.7237      46.7237 
  117000    91.058801   -8429.0514    -7863.122    -780.7628     102002.7      46.7237      46.7237      46.7237 
  118000    93.370719   -8445.1347   -7864.8367   -565.08508     102002.7      46.7237      46.7237      46.7237 
  119000     90.79225   -8437.2523   -7872.9794   -610.40919     102002.7      46.7237      46.7237      46.7237 
  120000    92.788951   -8452.5219   -7875.8396   -629.06381     102002.7      46.7237      46.7237      46.7237 
  121000    91.469711   -8451.5885   -7883.1053   -677.26057     102002.7      46.7237      46.7237      46.7237 
  122000    93.204796   -8442.0958    -7862.829   -609.61897     102002.7      46.7237      46.7237      46.7237 
  123000    89.908647   -8452.5806   -7893.7994   -551.62797     102002.7      46.7237      46.7237      46.7237 
  124000    89.405182   -8455.4152    -7899.763   -577.11341     102002.7      46.7237      46.7237      46.7237 
  125000    93.698493   -8430.7082   -7848.3731    -779.8851     102002.7      46.7237      46.7237      46.7237 
  126000    92.937479   -8438.3981   -7860.7927   -855.48217     102002.7      46.7237      46.7237      46.7237 
  127000    91.506659   -8439.8354   -7871.1225   -874.22031     102002.7      46.7237      46.7237      46.7237 
  128000    92.064497   -8438.7895   -7866.6097   -700.91256     102002.7      46.7237      46.7237      46.7237 
  129000    90.453821   -8440.7258   -7878.5563   -463.78029     102002.7      46.7237      46.7237      46.7237 
  130000    92.755809    -8452.248   -7875.7717   -633.78305     102002.7      46.7237      46.7237      46.7237 
  131000    88.999983   -8452.6515   -7899.5176   -722.02733     102002.7      46.7237      46.7237      46.7237 
  132000    93.231964   -8428.3736    -7848.938   -745.84331     102002.7      46.7237      46.7237      46.7237 
  133000    90.738274   -8440.8472   -7876.9098     -729.386     102002.7      46.7237      46.7237      46.7237 
  134000    88.277061    -8448.716   -7900.0751   -565.33336     102002.7      46.7237      46.7237      46.7237 
  135000    91.983395   -8436.4702   -7864.7944   -435.64501     102002.7      46.7237      46.7237      46.7237 
  136000    90.693077   -8435.3219   -7871.6654   -885.46573     102002.7      46.7237      46.7237      46.7237 
  137000    92.318108   -8420.9032   -7847.1472   -889.95742     102002.7      46.7237      46.7237      46.7237 
  138000    91.908133   -8441.4479   -7870.2398   -1072.1148     102002.7      46.7237      46.7237      46.7237 
  139000    91.384082   -8446.7964   -7878.8453   -909.55998     102002.7      46.7237      46.7237      46.7237 
  140000    93.353728   -8446.8956   -7866.7032   -737.15847     102002.7      46.7237      46.7237      46.7237 
  141000    91.375699   -8424.9052   -7857.0062   -840.47914     102002.7      46.7237      46.7237      46.7237 
  142000    92.642187   -8449.8653   -7874.0951   -759.28119     102002.7      46.7237      46.7237      46.7237 
  143000    92.475588   -8438.0265   -7863.2917   -1017.0461     102002.7      46.7237      46.7237      46.7237 
  144000    93.693436   -8435.8637   -7853.5601   -873.32711     102002.7      46.7237      46.7237      46.7237 
  145000    91.762253   -8443.1207   -7872.8193   -844.96447     102002.7      46.7237      46.7237      46.7237 
  146000    91.495065   -8415.5595   -7846.9186    -1081.448     102002.7      46.7237      46.7237      46.7237 
  147000    89.930868   -8409.3301   -7850.4107   -934.03156     102002.7      46.7237      46.7237      46.7237 
  148000    92.546356   -8456.2546     -7881.08   -718.22077     102002.7      46.7237      46.7237      46.7237 
  149000    93.361215    -8426.389   -7846.1501   -682.77311     102002.7      46.7237      46.7237      46.7237 
  150000    92.647826   -8432.0764   -7856.2712   -848.50639     102002.7      46.7237      46.7237      46.7237 
  151000    90.245712   -8446.9403   -7886.0642   -582.37801     102002.7      46.7237      46.7237      46.7237 
  152000    87.898104   -8449.6879   -7903.4022    -618.4376     102002.7      46.7237      46.7237      46.7237 
  153000    89.951373   -8424.0391   -7864.9924   -668.08128     102002.7      46.7237      46.7237      46.7237 
  154000    89.465608   -8447.6834   -7891.6556   -708.89508     102002.7      46.7237      46.7237      46.7237 
  155000    90.317734    -8431.694   -7870.3703   -643.93503     102002.7      46.7237      46.7237      46.7237 
  156000    92.451173   -8428.0404   -7853.4574   -794.74253     102002.7      46.7237      46.7237      46.7237 
  157000    89.547991   -8439.9669   -7883.4271    -762.7465     102002.7      46.7237      46.7237      46.7237 
  158000    90.437279   -8441.4198   -7879.3531   -506.03702     102002.7      46.7237      46.7237      46.7237 
  159000     91.13415   -8441.6642   -7875.2665   -756.69636     102002.7      46.7237      46.7237      46.7237 
  160000    89.256735   -8443.3111   -7888.5814   -513.69945     102002.7      46.7237      46.7237      46.7237 
  161000    88.857733   -8444.8258    -7892.576   -717.34352     102002.7      46.7237      46.7237      46.7237 
  162000     92.39225    -8424.856   -7850.6392   -872.88826     102002.7      46.7237      46.7237      46.7237 
  163000    90.841188   -8438.0828   -7873.5058   -652.83845     102002.7      46.7237      46.7237      46.7237 
  164000    92.824866   -8438.0986   -7861.1931   -506.77332     102002.7      46.7237      46.7237      46.7237 
  165000    89.961645   -8443.7795   -7884.6688   -317.12338     102002.7      46.7237      46.7237      46.7237 
  166000    94.709971   -8450.9812   -7862.3597   -614.39677     102002.7      46.7237      46.7237      46.7237 
  167000    88.418421   -8426.0023   -7876.4828   -617.79867     102002.7      46.7237      46.7237      46.7237 
  168000    91.265919   -8446.5681   -7879.3515   -492.81409     102002.7      46.7237      46.7237      46.7237 
  169000    92.024212   -8435.0084    -7863.079   -444.36753     102002.7      46.7237      46.7237      46.7237 
  170000    87.447801   -8441.3888   -7897.9017   -424.11827     102002.7      46.7237      46.7237      46.7237 
  171000    92.175711   -8451.0066   -7878.1356   -275.19337     102002.7      46.7237      46.7237      46.7237 
  172000     92.22247   -8454.7889   -7881.6273   -673.15529     102002.7      46.7237      46.7237      46.7237 
  173000    90.518247   -8436.2276   -7873.6577    -460.8211     102002.7      46.7237      46.7237      46.7237 
  174000    88.864419   -8441.8815   -7889.5901   -668.78384     102002.7      46.7237      46.7237      46.7237 
  175000    89.255238   -8452.7565   -7898.0362   -730.20605     102002.7      46.7237      46.7237      46.7237 
  176000    89.738196   -8437.8466   -7880.1247   -771.68616     102002.7      46.7237      46.7237      46.7237 
  177000    92.868044   -8416.8048   -7839.6309   -992.36652     102002.7      46.7237      46.7237      46.7237 
  178000    90.945297   -8445.0276   -7879.8036   -803.31617     102002.7      46.7237      46.7237      46.7237 
  179000     88.88904   -8453.9801   -7901.5357   -573.12473     102002.7      46.7237      46.7237      46.7237 
  180000    92.522721   -8431.7519   -7856.7242   -726.05823     102002.7      46.7237      46.7237      46.7237 
  181000    90.463208   -8457.5238   -7895.2959   -561.55145     102002.7      46.7237      46.7237      46.7237 
  182000    89.387379   -8434.2366    -7878.695   -531.47781     102002.7      46.7237      46.7237      46.7237 
  183000    92.529609   -8435.6768   -7860.6063   -741.42334     102002.7      46.7237      46.7237      46.7237 
  184000    91.259997   -8428.3832   -7861.2034   -593.88569     102002.7      46.7237      46.7237      46.7237 
  185000    91.697987   -8458.9091   -7889.0071   -766.78527     102002.7      46.7237      46.7237      46.7237 
  186000    90.420668   -8419.2637   -7857.3003   -794.11225     102002.7      46.7237      46.7237      46.7237 
  187000    89.604273   -8452.5555    -7895.666   -763.24956     102002.7      46.7237      46.7237      46.7237 
  188000    94.324678   -8414.6877   -7828.4609   -762.57436     102002.7      46.7237      46.7237      46.7237 
  189000    87.193467   -8440.3638   -7898.4574    -1060.386     102002.7      46.7237      46.7237      46.7237 
  190000    88.569665   -8439.7873   -7889.3278    -909.3166     102002.7      46.7237      46.7237      46.7237 
  191000    89.636142   -8446.1657   -7889.0781   -802.86383     102002.7      46.7237      46.7237      46.7237 
  192000    93.440121   -8416.5312   -7835.8019   -692.05933     102002.7      46.7237      46.7237      46.7237 
  193000    89.593693   -8444.6937   -7887.8699   -662.62607     102002.7      46.7237      46.7237      46.7237 
  194000    88.670988   -8427.2159   -7876.1266   -735.48903     102002.7      46.7237      46.7237      46.7237 
  195000    90.679505   -8443.8168   -7880.2447   -754.69641     102002.7      46.7237      46.7237      46.7237 
  196000     92.42149    -8437.133   -7862.7344    -722.4278     102002.7      46.7237      46.7237      46.7237 
  197000    93.838473   -8459.9425   -7876.7374   -686.00877     102002.7      46.7237      46.7237      46.7237 
  198000    88.862151   -8407.8225   -7855.5453   -726.52567     102002.7      46.7237      46.7237      46.7237 
  199000     89.61202    -8445.708   -7888.7702   -689.54072     102002.7      46.7237      46.7237      46.7237 
  200000    90.973816   -8435.9365   -7870.5353   -652.01607     102002.7      46.7237      46.7237      46.7237 
  201000    89.038018   -8421.0751   -7867.7048   -625.41989     102002.7      46.7237      46.7237      46.7237 
  202000    93.757543   -8428.5026   -7845.8005   -787.82809     102002.7      46.7237      46.7237      46.7237 
  203000    90.134249   -8447.7205   -7887.5371   -633.44911     102002.7      46.7237      46.7237      46.7237 
  204000    92.561859   -8443.4562   -7868.1853    -777.4841     102002.7      46.7237      46.7237      46.7237 
  205000    88.487523   -8429.5992   -7879.6502   -886.73984     102002.7      46.7237      46.7237      46.7237 
  206000    90.623026   -8442.4508   -7879.2297   -566.71702     102002.7      46.7237      46.7237      46.7237 
  207000    91.986221   -8439.3866   -7867.6932   -778.66784     102002.7      46.7237      46.7237      46.7237 
  208000    92.092437   -8440.1649   -7867.8114   -956.80287     102002.7      46.7237      46.7237      46.7237 
  209000    92.124958   -8444.7078   -7872.1522   -623.77855     102002.7      46.7237      46.7237      46.7237 
  210000    92.100192   -8430.0761   -7857.6744    -1061.502     102002.7      46.7237      46.7237      46.7237 
  211000    91.392479   -8433.7043   -7865.7011   -617.22077     102002.7      46.7237      46.7237      46.7237 
  212000    91.380113   -8442.3904    -7874.464   -676.65399     102002.7      46.7237      46.7237      46.7237 
  213000    92.736465   -8411.0706   -7834.7145   -898.44346     102002.7      46.7237      46.7237      46.7237 
  214000    89.685968   -8428.5255   -7871.1282    -687.6194     102002.7      46.7237      46.7237      46.7237 
  215000    89.861247   -8449.8838   -7891.3971    -754.3894     102002.7      46.7237      46.7237      46.7237 
  216000    91.562645   -8459.8284   -7890.7676   -873.65759     102002.7      46.7237      46.7237      46.7237 
  217000    90.388702   -8449.7853   -7888.0205   -732.15684     102002.7      46.7237      46.7237      46.7237 
  218000    92.338189   -8442.9182   -7869.0374   -738.27473     102002.7      46.7237      46.7237      46.7237 
  219000    89.580766   -8445.1347   -7888.3912   -686.26525     102002.7      46.7237      46.7237      46.7237 
  220000    90.484716   -8443.4854   -7881.1239   -851.20437     102002.7      46.7237      46.7237      46.7237 
  221000    90.059843   -8433.8132   -7874.0923   -668.99902     102002.7      46.7237      46.7237      46.7237 
  222000    92.675119   -8428.2605   -7852.2857   -733.95283     102002.7      46.7237      46.7237      46.7237 
  223000    92.371472   -8442.6504   -7868.5627   -869.11587     102002.7      46.7237      46.7237      46.7237 
  224000    89.054031   -8429.9087   -7876.4389   -591.86348     102002.7      46.7237      46.7237      46.7237 
  225000    89.655737   -8435.9199   -7878.7105   -866.90428     102002.7      46.7237      46.7237      46.7237 
  226000    90.089817   -8429.2372   -7869.3299   -937.47925     102002.7      46.7237      46.7237      46.7237 
  227000     90.21712   -8422.9627   -7862.2643   -580.51214     102002.7      46.7237      46.7237      46.7237 
  228000    91.806428   -8428.3286   -7857.7526   -665.63339     102002.7      46.7237      46.7237      46.7237 
  229000    89.712477   -8438.0883   -7880.5263   -429.00747     102002.7      46.7237      46.7237      46.7237 
  230000     91.90242   -8419.4777   -7848.3052   -982.00983     102002.7      46.7237      46.7237      46.7237 
  231000    90.890674   -8440.1378   -7875.2533   -911.45805     102002.7      46.7237      46.7237      46.7237 
  232000    88.464199   -8429.8789   -7880.0749   -561.49657     102002.7      46.7237      46.7237      46.7237 
  233000    92.385344   -8432.1299    -7857.956   -904.19777     102002.7      46.7237      46.7237      46.7237 
  234000    93.618612   -8439.9053   -7858.0666   -549.18112     102002.7      46.7237      46.7237      46.7237 
  235000    87.999909    -8432.711   -7885.7926   -591.14519     102002.7      46.7237      46.7237      46.7237 
  236000    91.123541   -8445.5925   -7879.2607   -826.38411     102002.7      46.7237      46.7237      46.7237 
  237000    88.769816    -8417.667   -7865.9635   -900.97263     102002.7      46.7237      46.7237      46.7237 
  238000    90.950868   -8430.5483   -7865.2896   -689.08172     102002.7      46.7237      46.7237      46.7237 
  239000    92.662958   -8436.7939   -7860.8947   -911.31208     102002.7      46.7237      46.7237      46.7237 
  240000     88.75442   -8430.5713   -7878.9636   -478.02327     102002.7      46.7237      46.7237      46.7237 
  241000    90.856221   -8445.6315   -7880.9611    -743.1704     102002.7      46.7237      46.7237      46.7237 
  242000    93.614045   -8433.7329   -7851.9226   -492.21818     102002.7      46.7237      46.7237      46.7237 
  243000    94.839769    -8432.271   -7842.8428   -738.98093     102002.7      46.7237      46.7237      46.7237 
  244000    88.797763   -8442.3241    -7890.447   -787.09032     102002.7      46.7237      46.7237      46.7237 
  245000    91.491331   -8420.8291   -7852.2115    -674.5886     102002.7      46.7237      46.7237      46.7237 
  246000    91.217042   -8426.0353   -7859.1224   -717.43113     102002.7      46.7237      46.7237      46.7237 
  247000    89.735357   -8443.4831   -7885.7788   -481.67757     102002.7      46.7237      46.7237      46.7237 
  248000    87.750579   -8445.1656   -7899.7967   -752.08543     102002.7      46.7237      46.7237      46.7237 
  249000    90.248561   -8430.8208    -7869.927   -682.88724     102002.7      46.7237      46.7237      46.7237 
  250000    92.458361   -8441.5503   -7866.9226   -769.84783     102002.7      46.7237      46.7237      46.7237 
  251000    91.651911   -8434.0065   -7864.3909   -544.41825     102002.7      46.7237      46.7237      46.7237 
  252000    91.641419    -8446.984   -7877.4336   -628.10893     102002.7      46.7237      46.7237      46.7237 
  253000    91.895932   -8428.9523   -7857.8201   -840.17967     102002.7      46.7237      46.7237      46.7237 
  254000    92.461517   -8420.2353    -7845.588   -757.01752     102002.7      46.7237      46.7237      46.7237 
  255000    91.411181   -8425.4037   -7857.2842   -842.39333     102002.7      46.7237      46.7237      46.7237 
  256000    88.117651    -8429.088   -7881.4378   -773.88069     102002.7      46.7237      46.7237      46.7237 
  257000    89.531481    -8452.231   -7895.7939   -915.16162     102002.7      46.7237      46.7237      46.7237 
  258000      91.3383   -8423.9118   -7856.2453   -763.00969     102002.7      46.7237      46.7237      46.7237 
  259000    91.843293   -8433.7556   -7862.9505    -671.1826     102002.7      46.7237      46.7237      46.7237 
  260000    89.960986   -8441.7206   -7882.6141   -827.33362     102002.7      46.7237      46.7237      46.7237 
  261000    91.714916   -8439.3249   -7869.3177   -647.99203     102002.7      46.7237      46.7237      46.7237 
  262000    90.087241   -8433.8968   -7874.0056   -722.31152     102002.7      46.7237      46.7237      46.7237 
  263000    90.523841    -8432.981   -7870.3763    -347.9345     102002.7      46.7237      46.7237      46.7237 
  264000    91.999218   -8416.3316   -7844.5575   -839.00398     102002.7      46.7237      46.7237      46.7237 
  265000    89.236866   -8418.5931    -7863.987     -545.611     102002.7      46.7237      46.7237      46.7237 
  266000    94.052815   -8427.6819   -7843.1447   -619.89994     102002.7      46.7237      46.7237      46.7237 
  267000    89.747777   -8426.0569   -7868.2754   -741.85035     102002.7      46.7237      46.7237      46.7237 
  268000    89.975323   -8406.5839   -7847.3883   -746.03029     102002.7      46.7237      46.7237      46.7237 
  269000     91.70637   -8421.2688   -7851.3147   -890.72304     102002.7      46.7237      46.7237      46.7237 
  270000    90.665498   -8425.2061    -7861.721   -715.03132     102002.7      46.7237      46.7237      46.7237 
  271000    92.334029     -8419.26    -7845.405    -549.4253     102002.7      46.7237      46.7237      46.7237 
  272000    89.346687   -8422.9249   -7867.6362   -964.35566     102002.7      46.7237      46.7237      46.7237 
  273000    90.199902   -8426.1263   -7865.5349   -582.85684     102002.7      46.7237      46.7237      46.7237 
  274000    92.483952   -8436.3591   -7861.5723   -682.74291     102002.7      46.7237      46.7237      46.7237 
  275000    90.886215   -8433.9949   -7869.1381   -365.21277     102002.7      46.7237      46.7237      46.7237 
  276000    91.127626   -8430.5533   -7864.1961   -650.96679     102002.7      46.7237      46.7237      46.7237 
  277000    90.737191   -8439.3406     -7875.41   -984.75959     102002.7      46.7237      46.7237      46.7237 
  278000    91.796965   -8451.7577   -7881.2406   -692.76603     102002.7      46.7237      46.7237      46.7237 
  279000    89.955739   -8442.7954   -7883.7215   -839.27656     102002.7      46.7237      46.7237      46.7237 
  280000    90.506348   -8436.5681   -7874.0722   -854.44377     102002.7      46.7237      46.7237      46.7237 
  281000    89.783049   -8429.8935   -7871.8928   -715.97335     102002.7      46.7237      46.7237      46.7237 
  282000    90.390988   -8435.4574   -7873.6785   -983.63918     102002.7      46.7237      46.7237      46.7237 
  283000     91.93812   -8413.1941   -7841.7997   -518.99154     102002.7      46.7237      46.7237      46.7237 
  284000    91.683928   -8437.4583   -7867.6437   -673.09183     102002.7      46.7237      46.7237      46.7237 
  285000    90.787486   -8438.1147   -7873.8715   -630.81552     102002.7      46.7237      46.7237      46.7237 
  286000    90.522169     -8424.32   -7861.7257   -451.29139     102002.7      46.7237      46.7237      46.7237 
  287000    90.713016   -8436.9548   -7873.1744   -339.93412     102002.7      46.7237      46.7237      46.7237 
  288000    86.183958    -8424.607   -7888.9747   -752.55636     102002.7      46.7237      46.7237      46.7237 
  289000    90.288758   -8406.6065   -7845.4629   -665.78002     102002.7      46.7237      46.7237      46.7237 
  290000    86.888769   -8438.8569   -7898.8442   -658.42146     102002.7      46.7237      46.7237      46.7237 
  291000    89.456168   -8416.5236   -7860.5545    -555.8861     102002.7      46.7237      46.7237      46.7237 
  292000    91.881719   -8407.7832   -7836.7393   -433.44925     102002.7      46.7237      46.7237      46.7237 
  293000    91.656958   -8424.7393   -7855.0923     -704.746     102002.7      46.7237      46.7237      46.7237 
  294000    93.305388   -8429.7499    -7849.858   -676.58635     102002.7      46.7237      46.7237      46.7237 
  295000     93.06097   -8429.3552   -7850.9823    -593.5336     102002.7      46.7237      46.7237      46.7237 
  296000    91.571811   -8421.5077   -7852.3899   -679.79897     102002.7      46.7237      46.7237      46.7237 
  297000    92.193343   -8446.5118   -7873.5312   -860.15651     102002.7      46.7237      46.7237      46.7237 
  298000    92.675818   -8441.8709   -7865.8917   -878.06378     102002.7      46.7237      46.7237      46.7237 
  299000    90.152735   -8437.1915   -7876.8932   -866.31501     102002.7      46.7237      46.7237      46.7237 
  300000    91.320548   -8433.2826   -7865.7264   -525.86793     102002.7      46.7237      46.7237      46.7237 
  301000     91.31637   -8420.5131   -7852.9829   -719.21012     102002.7      46.7237      46.7237      46.7237 
  302000    91.114178   -8435.8783   -7869.6047   -669.29764     102002.7      46.7237      46.7237      46.7237 
  303000    90.990724    -8444.871   -7879.3646   -663.49429     102002.7      46.7237      46.7237      46.7237 
  304000    91.757219   -8443.1994   -7872.9293   -572.66236     102002.7      46.7237      46.7237      46.7237 
  305000    88.113897   -8441.5855   -7893.9586   -544.15507     102002.7      46.7237      46.7237      46.7237 
  306000    92.833379   -8434.0586   -7857.1001   -798.92509     102002.7      46.7237      46.7237      46.7237 
  307000    88.132793   -8440.7246   -7892.9803   -662.28844     102002.7      46.7237      46.7237      46.7237 
  308000    89.617624   -8408.0209   -7851.0483   -655.25587     102002.7      46.7237      46.7237      46.7237 
  309000    90.734205    -8454.201   -7890.2889   -640.37448     102002.7      46.7237      46.7237      46.7237 
  310000    92.630185   -8438.3646    -7862.669   -606.51821     102002.7      46.7237      46.7237      46.7237 
  311000    90.241864   -8433.6948   -7872.8426   -626.62245     102002.7      46.7237      46.7237      46.7237 
  312000    89.430275   -8443.5781     -7887.77   -418.79855     102002.7      46.7237      46.7237      46.7237 
  313000    93.622635   -8440.4236   -7858.5599   -899.21377     102002.7      46.7237      46.7237      46.7237 
  314000    91.282084   -8436.6118   -7869.2947   -742.58354     102002.7      46.7237      46.7237      46.7237 
  315000    87.977985   -8433.4167   -7886.6345    -515.1972     102002.7      46.7237      46.7237      46.7237 
  316000    91.895294   -8433.9202    -7862.792   -564.66211     102002.7      46.7237      46.7237      46.7237 
  317000    91.482028   -8430.1561   -7861.5963   -749.54735     102002.7      46.7237      46.7237      46.7237 
  318000    90.874866   -8441.8553    -7877.069   -682.60377     102002.7      46.7237      46.7237      46.7237 
  319000     89.62763   -8440.2538   -7883.2191   -571.84688     102002.7      46.7237      46.7237      46.7237 
  320000    87.294868     -8443.84   -7901.3033   -506.89511     102002.7      46.7237      46.7237      46.7237 
  321000    91.020978   -8428.8045   -7863.1101   -817.63538     102002.7      46.7237      46.7237      46.7237 
  322000     90.08287   -8441.6954   -7881.8313   -676.99825     102002.7      46.7237      46.7237      46.7237 
  323000    92.791702   -8430.5224    -7853.823   -851.83071     102002.7      46.7237      46.7237      46.7237 
  324000    91.326288   -8434.0162   -7866.4243    -557.7118     102002.7      46.7237      46.7237      46.7237 
  325000    89.376824   -8429.5196   -7874.0437   -679.85346     102002.7      46.7237      46.7237      46.7237 
  326000    91.788057   -8433.8857   -7863.4239   -582.70591     102002.7      46.7237      46.7237      46.7237 
  327000     90.12476   -8446.3011   -7886.1767   -678.55724     102002.7      46.7237      46.7237      46.7237 
  328000    89.865928   -8421.4256   -7862.9098   -725.08144     102002.7      46.7237      46.7237      46.7237 
  329000    92.786495   -8440.9933   -7864.3263    -851.4898     102002.7      46.7237      46.7237      46.7237 
  330000    88.339999   -8435.5607   -7886.5286   -616.23928     102002.7      46.7237      46.7237      46.7237 
  331000    91.829528   -8442.1721   -7871.4526   -631.29737     102002.7      46.7237      46.7237      46.7237 
  332000    90.457205   -8442.8057   -7880.6152   -783.00891     102002.7      46.7237      46.7237      46.7237 
  333000    90.593163   -8443.5284   -7880.4929   -548.65933     102002.7      46.7237      46.7237      46.7237 
  334000    92.491187   -8425.7394   -7850.9076   -724.76242     102002.7      46.7237      46.7237      46.7237 
  335000    91.951445   -8445.3857   -7873.9085   -830.62431     102002.7      46.7237      46.7237      46.7237 
  336000    90.512567   -8434.3722   -7871.8376   -733.18615     102002.7      46.7237      46.7237      46.7237 
  337000    89.866684   -8434.8823   -7876.3618   -822.70435     102002.7      46.7237      46.7237      46.7237 
  338000    90.575525   -8435.9793   -7873.0534   -686.51184     102002.7      46.7237      46.7237      46.7237 
  339000    91.796209   -8435.1916   -7864.6791   -740.83812     102002.7      46.7237      46.7237      46.7237 
  340000    92.407865   -8427.5891   -7853.2752   -824.52538     102002.7      46.7237      46.7237      46.7237 
  341000    89.007411   -8425.3384   -7872.1583   -834.52736     102002.7      46.7237      46.7237      46.7237 
  342000    90.463775   -8446.6067   -7884.3753   -770.68912     102002.7      46.7237      46.7237      46.7237 
  343000    88.642479   -8432.1894   -7881.2774    -826.6105     102002.7      46.7237      46.7237      46.7237 
  344000    88.850391   -8434.4069   -7882.2027   -855.16322     102002.7      46.7237      46.7237      46.7237 
  345000    89.937892   -8448.4546   -7889.4916   -730.50838     102002.7      46.7237      46.7237      46.7237 
  346000    92.130197   -8443.2404   -7870.6522   -720.00878     102002.7      46.7237      46.7237      46.7237 
  347000    89.373978   -8465.2256   -7909.7673   -688.04984     102002.7      46.7237      46.7237      46.7237 
  348000    89.527169   -8437.7164    -7881.306   -689.48506     102002.7      46.7237      46.7237      46.7237 
  349000    88.136096   -8443.9427   -7896.1778   -615.91906     102002.7      46.7237      46.7237      46.7237 
  350000    92.403158   -8452.5352   -7878.2506   -557.46548     102002.7      46.7237      46.7237      46.7237 
  351000    92.013861   -8450.7897   -7878.9245   -558.37697     102002.7      46.7237      46.7237      46.7237 
  352000    90.536926   -8451.2749   -7888.5889   -577.78177     102002.7      46.7237      46.7237      46.7237 
  353000    90.037269    -8447.337   -7887.7563   -677.53732     102002.7      46.7237      46.7237      46.7237 
  354000    88.277134   -8442.0381   -7893.3967   -660.16971     102002.7      46.7237      46.7237      46.7237 
  355000    91.692392    -8410.382   -7840.5148   -760.89947     102002.7      46.7237      46.7237      46.7237 
  356000    93.061744   -8426.2616   -7847.8839   -594.92169     102002.7      46.7237      46.7237      46.7237 
  357000    92.836974   -8456.3225   -7879.3418   -503.12049     102002.7      46.7237      46.7237      46.7237 
  358000    89.344465   -8429.8943   -7874.6194   -478.38881     102002.7      46.7237      46.7237      46.7237 
  359000     92.66425   -8408.7423    -7832.835   -727.37253     102002.7      46.7237      46.7237      46.7237 
  360000    89.978356   -8429.0726   -7869.8581   -980.48827     102002.7      46.7237      46.7237      46.7237 
  361000    87.567383   -8439.0977   -7894.8674   -831.60936     102002.7      46.7237      46.7237      46.7237 
  362000    91.758119   -8430.1099   -7859.8342   -814.06145     102002.7      46.7237      46.7237      46.7237 
  363000    90.283966    -8409.615   -7848.5011   -669.18386     102002.7      46.7237      46.7237      46.7237 
  364000    90.261182   -8436.3043   -7875.3321   -497.86114     102002.7      46.7237      46.7237      46.7237 
  365000    90.985853   -8417.6618   -7852.1857   -932.25648     102002.7      46.7237      46.7237      46.7237 
  366000    89.824041   -8444.3954     -7886.14   -344.47008     102002.7      46.7237      46.7237      46.7237 
  367000    87.682785   -8432.3281   -7887.3806   -750.70034     102002.7      46.7237      46.7237      46.7237 
  368000    90.221318    -8437.432   -7876.7075   -853.83239     102002.7      46.7237      46.7237      46.7237 
  369000    92.624559   -8438.3512   -7862.6906   -746.90468     102002.7      46.7237      46.7237      46.7237 
  370000    91.926925   -8432.3847   -7861.0599   -760.95028     102002.7      46.7237      46.7237      46.7237 
  371000    93.167452   -8440.0069   -7860.9722   -690.20337     102002.7      46.7237      46.7237      46.7237 
  372000    91.990721   -8443.6911   -7871.9698   -885.38022     102002.7      46.7237      46.7237      46.7237 
  373000    88.898872   -8453.7604   -7901.2549     -863.097     102002.7      46.7237      46.7237      46.7237 
  374000    90.591286   -8413.3613   -7850.3375   -715.91407     102002.7      46.7237      46.7237      46.7237 
  375000    89.574379   -8450.0129   -7893.3091   -581.44291     102002.7      46.7237      46.7237      46.7237 
  376000    90.517683   -8432.7331   -7870.1667   -973.89277     102002.7      46.7237      46.7237      46.7237 
  377000    90.278644   -8422.9196   -7861.8388   -853.01884     102002.7      46.7237      46.7237      46.7237 
  378000    90.812518   -8435.8923   -7871.4935    -1011.183     102002.7      46.7237      46.7237      46.7237 
  379000    87.376496   -8433.6918   -7890.6478   -518.17482     102002.7      46.7237      46.7237      46.7237 
  380000    90.524041    -8441.584   -7878.9781   -512.12764     102002.7      46.7237      46.7237      46.7237 
  381000    92.470003   -8431.2567   -7856.5566    -624.5205     102002.7      46.7237      46.7237      46.7237 
  382000    89.257094   -8443.7032   -7888.9713   -614.49664     102002.7      46.7237      46.7237      46.7237 
  383000    90.234469   -8443.5472   -7882.7409   -827.88099     102002.7      46.7237      46.7237      46.7237 
  384000     91.58979   -8430.9536   -7861.7241   -376.95146     102002.7      46.7237      46.7237      46.7237 
  385000    91.979743   -8441.7064   -7870.0534    -474.5906     102002.7      46.7237      46.7237      46.7237 
  386000    88.895771   -8453.3701   -7900.8838   -624.34294     102002.7      46.7237      46.7237      46.7237 
  387000    90.044255   -8436.0465   -7876.4224   -461.20376     102002.7      46.7237      46.7237      46.7237 
  388000     93.47902   -8453.1096   -7872.1386   -678.89088     102002.7      46.7237      46.7237      46.7237 
  389000    90.006296   -8436.0288   -7876.6407   -448.33647     102002.7      46.7237      46.7237      46.7237 
  390000    90.853261   -8450.3553   -7885.7033   -640.52084     102002.7      46.7237      46.7237      46.7237 
  391000    91.197113   -8436.9457   -7870.1567   -856.98338     102002.7      46.7237      46.7237      46.7237 
  392000    92.488245     -8452.68   -7877.8666    -503.4705     102002.7      46.7237      46.7237      46.7237 
  393000    90.990748   -8427.4875    -7861.981   -474.24872     102002.7      46.7237      46.7237      46.7237 
  394000    91.007384   -8444.3256   -7878.7158   -733.40183     102002.7      46.7237      46.7237      46.7237 
  395000    91.541202   -8451.1564   -7882.2288   -761.35136     102002.7      46.7237      46.7237      46.7237 
  396000    91.517173    -8426.523   -7857.7448     -581.707     102002.7      46.7237      46.7237      46.7237 
  397000    88.364159   -8439.0176   -7889.8354   -523.52418     102002.7      46.7237      46.7237      46.7237 
  398000    90.209026   -8422.9752   -7862.3271   -710.21283     102002.7      46.7237      46.7237      46.7237 
  399000    88.881477   -8455.0225   -7902.6251   -686.74694     102002.7      46.7237      46.7237      46.7237 
  400000    90.219568   -8445.8429   -7885.1293   -831.60848     102002.7      46.7237      46.7237      46.7237 
  401000    89.971001   -8399.8462   -7840.6774   -589.32091     102002.7      46.7237      46.7237      46.7237 
  402000    91.102268   -8428.7819   -7862.5824   -515.98227     102002.7      46.7237      46.7237      46.7237 
  403000    89.267166   -8442.1287   -7887.3342   -634.46861     102002.7      46.7237      46.7237      46.7237 
  404000    92.698419   -8432.8001   -7856.6804   -612.19901     102002.7      46.7237      46.7237      46.7237 
  405000    90.517251   -8442.9235   -7880.3598   -512.53746     102002.7      46.7237      46.7237      46.7237 
  406000    90.462059   -8428.1688   -7865.9481   -661.88631     102002.7      46.7237      46.7237      46.7237 
  407000    91.398193   -8452.6458    -7884.607   -594.70501     102002.7      46.7237      46.7237      46.7237 
  408000    87.595144    -8444.485   -7900.0821   -652.40286     102002.7      46.7237      46.7237      46.7237 
  409000    92.793858   -8453.7264   -7877.0136   -784.26838     102002.7      46.7237      46.7237      46.7237 
  410000    90.272456   -8441.6832   -7880.6408   -713.94306     102002.7      46.7237      46.7237      46.7237 
  411000    93.606603   -8447.8698   -7866.1058   -749.45983     102002.7      46.7237      46.7237      46.7237 
  412000    91.842494   -8449.5306   -7878.7305   -652.74076     102002.7      46.7237      46.7237      46.7237 
  413000     91.76022   -8425.5495   -7855.2607   -729.02998     102002.7      46.7237      46.7237      46.7237 
  414000    92.246485   -8448.5767   -7875.2658    -719.2843     102002.7      46.7237      46.7237      46.7237 
  415000    89.417928   -8429.9602   -7874.2287   -573.04425     102002.7      46.7237      46.7237      46.7237 
  416000    90.015034    -8439.917   -7880.4746   -743.33774     102002.7      46.7237      46.7237      46.7237 
  417000    88.058548   -8425.9807   -7878.6978   -921.23515     102002.7      46.7237      46.7237      46.7237 
  418000    91.254549   -8441.4352   -7874.2892   -728.34522     102002.7      46.7237      46.7237      46.7237 
  419000    90.130649   -8403.6368   -7843.4758   -912.13434     102002.7      46.7237      46.7237      46.7237 
  420000    91.845399   -8443.5712    -7872.753   -391.42018     102002.7      46.7237      46.7237      46.7237 
  421000    90.394094   -8448.0953    -7886.297   -580.00678     102002.7      46.7237      46.7237      46.7237 
  422000    87.257343   -8446.9711   -7904.6677   -717.27078     102002.7      46.7237      46.7237      46.7237 
  423000    89.118429   -8425.2866   -7871.4165   -654.80914     102002.7      46.7237      46.7237      46.7237 
  424000    90.499904   -8425.1735   -7862.7176   -535.05844     102002.7      46.7237      46.7237      46.7237 
  425000    90.806262   -8424.7624   -7860.4025   -646.35433     102002.7      46.7237      46.7237      46.7237 
  426000    89.426298   -8436.1213   -7880.3378   -576.31355     102002.7      46.7237      46.7237      46.7237 
  427000    92.264052   -8442.9999   -7869.5798   -575.08386     102002.7      46.7237      46.7237      46.7237 
  428000    90.138998    -8442.917   -7882.7041   -818.19596     102002.7      46.7237      46.7237      46.7237 
  429000     92.34123   -8444.8088    -7870.909   -818.73159     102002.7      46.7237      46.7237      46.7237 
  430000    89.633615   -8432.9541   -7875.8822   -846.46581     102002.7      46.7237      46.7237      46.7237 
  431000    91.656238    -8438.289   -7868.6464   -602.77975     102002.7      46.7237      46.7237      46.7237 
  432000    92.353193   -8442.4399   -7868.4658   -904.92754     102002.7      46.7237      46.7237      46.7237 
  433000    90.851116   -8445.0681   -7880.4294   -810.38342     102002.7      46.7237      46.7237      46.7237 
  434000    91.606816   -8424.9597   -7855.6243   -646.59351     102002.7      46.7237      46.7237      46.7237 
  435000    90.849448   -8449.3615   -7884.7332   -813.89141     102002.7      46.7237      46.7237      46.7237 
  436000    93.113822   -8451.4006   -7872.6992   -902.71212     102002.7      46.7237      46.7237      46.7237 
  437000    90.476222   -8421.2341   -7858.9254    -685.0846     102002.7      46.7237      46.7237      46.7237 
  438000    88.501066   -8428.8372    -7878.804   -723.48693     102002.7      46.7237      46.7237      46.7237 
  439000    94.362447   -8415.4868   -7829.0252   -728.15477     102002.7      46.7237      46.7237      46.7237 
  440000    92.066076   -8425.3874   -7853.1977   -672.56402     102002.7      46.7237      46.7237      46.7237 
  441000       89.157   -8433.6545   -7879.5448    -714.4895     102002.7      46.7237      46.7237      46.7237 
  442000    88.968856   -8439.5043   -7886.5639   -400.06705     102002.7      46.7237      46.7237      46.7237 
  443000    90.115785   -8418.5711   -7858.5025   -464.08259     102002.7      46.7237      46.7237      46.7237 
  444000    95.111883   -8447.1811   -7856.0618    -809.9136     102002.7      46.7237      46.7237      46.7237 
  445000    91.593652   -8423.4264   -7854.1729   -763.37396     102002.7      46.7237      46.7237      46.7237 
  446000     93.19133   -8419.3588   -7840.1757   -893.65599     102002.7      46.7237      46.7237      46.7237 
  447000    93.963803   -8439.0635   -7855.0795   -694.76734     102002.7      46.7237      46.7237      46.7237 
  448000    90.692895   -8422.7694   -7859.1141   -670.38513     102002.7      46.7237      46.7237      46.7237 
  449000    93.056828   -8430.7509   -7852.4038   -614.52314     102002.7      46.7237      46.7237      46.7237 
  450000    92.459463   -8431.8749   -7857.2404    -780.6873     102002.7      46.7237      46.7237      46.7237 
  451000    90.399424   -8451.6367   -7889.8053    -652.0318     102002.7      46.7237      46.7237      46.7237 
  452000    90.538121   -8419.0753   -7856.3819   -453.50007     102002.7      46.7237      46.7237      46.7237 
  453000    92.517855   -8437.8252   -7862.8277   -663.54238     102002.7      46.7237      46.7237      46.7237 
  454000    88.523768   -8439.2106   -7889.0364   -541.86425     102002.7      46.7237      46.7237      46.7237 
  455000    87.922017   -8428.5679   -7882.1335   -721.95501     102002.7      46.7237      46.7237      46.7237 
  456000    92.329951   -8435.4414   -7861.6117   -903.47597     102002.7      46.7237      46.7237      46.7237 
  457000    90.394389    -8426.869   -7865.0689   -598.82889     102002.7      46.7237      46.7237      46.7237 
  458000    90.312183   -8435.9664   -7874.6772   -1051.0701     102002.7      46.7237      46.7237      46.7237 
  459000     89.16726   -8450.1597   -7895.9862    -898.3621     102002.7      46.7237      46.7237      46.7237 
  460000    91.615813   -8428.3304   -7858.9392   -545.16718     102002.7      46.7237      46.7237      46.7237 
  461000    94.151031   -8436.1688   -7851.0212   -720.97056     102002.7      46.7237      46.7237      46.7237 
  462000     89.07331   -8425.4608   -7871.8712   -588.57132     102002.7      46.7237      46.7237      46.7237 
  463000    91.905663    -8435.502   -7864.3093   -680.40669     102002.7      46.7237      46.7237      46.7237 
  464000    90.755674   -8411.4176    -7847.372   -616.74694     102002.7      46.7237      46.7237      46.7237 
  465000    90.045046   -8432.8542   -7873.2253   -650.27358     102002.7      46.7237      46.7237      46.7237 
  466000    90.356526   -8431.6169   -7870.0521   -614.30777     102002.7      46.7237      46.7237      46.7237 
  467000     92.32632   -8437.2452   -7863.4381   -828.25188     102002.7      46.7237      46.7237      46.7237 
  468000     91.75604   -8427.6405   -7857.3777   -692.78309     102002.7      46.7237      46.7237      46.7237 
  469000    93.795715   -8407.8505   -7824.9112    -675.2787     102002.7      46.7237      46.7237      46.7237 
  470000    91.372314   -8446.9152   -7879.0373   -800.12109     102002.7      46.7237      46.7237      46.7237 
  471000    90.227976   -8413.3979    -7852.632   -670.69484     102002.7      46.7237      46.7237      46.7237 
  472000    94.116479   -8432.1884   -7847.2556   -610.67865     102002.7      46.7237      46.7237      46.7237 
  473000    90.527544   -8425.2618   -7862.6341   -774.13156     102002.7      46.7237      46.7237      46.7237 
  474000    90.581842   -8443.3405   -7880.3754   -580.47405     102002.7      46.7237      46.7237      46.7237 
  475000    92.060575   -8447.4941   -7875.3387   -528.58912     102002.7      46.7237      46.7237      46.7237 
  476000    91.567487   -8440.1526   -7871.0617   -620.39069     102002.7      46.7237      46.7237      46.7237 
  477000    89.131247   -8434.1299   -7880.1802   -511.93817     102002.7      46.7237      46.7237      46.7237 
  478000    89.235492   -8437.2574   -7882.6598   -660.52267     102002.7      46.7237      46.7237      46.7237 
  479000    93.286111    -8443.493   -7863.7208   -512.91398     102002.7      46.7237      46.7237      46.7237 
  480000    95.107695   -8447.1403   -7856.0471   -625.01346     102002.7      46.7237      46.7237      46.7237 
  481000    92.217537   -8439.3672   -7866.2362   -620.74079     102002.7      46.7237      46.7237      46.7237 
  482000    91.613051   -8457.4872   -7888.1131   -373.55479     102002.7      46.7237      46.7237      46.7237 
  483000    91.374685    -8433.402   -7865.5094   -767.83078     102002.7      46.7237      46.7237      46.7237 
  484000    90.826129   -8448.3522   -7883.8688   -710.63809     102002.7      46.7237      46.7237      46.7237 
  485000    89.592896   -8434.4746   -7877.6557   -484.79001     102002.7      46.7237      46.7237      46.7237 
  486000    88.953753   -8439.2606    -7886.414   -676.63792     102002.7      46.7237      46.7237      46.7237 
  487000    91.211656   -8433.5205    -7866.641   -454.34286     102002.7      46.7237      46.7237      46.7237 
  488000    92.682946   -8424.4128   -7848.3893   -500.22393     102002.7      46.7237      46.7237      46.7237 
  489000    91.018849   -8446.9497   -7881.2685   -644.19353     102002.7      46.7237      46.7237      46.7237 
  490000    87.243997    -8423.504   -7881.2835   -627.86438     102002.7      46.7237      46.7237      46.7237 
  491000    90.342196   -8451.3253   -7889.8496   -721.65569     102002.7      46.7237      46.7237      46.7237 
  492000    94.118769   -8432.0272   -7847.0801   -677.33829     102002.7      46.7237      46.7237      46.7237 
  493000    93.105026    -8446.376   -7867.7292   -733.69006     102002.7      46.7237      46.7237      46.7237 
  494000    89.794541   -8455.2511   -7897.1791   -665.63942     102002.7      46.7237      46.7237      46.7237 
  495000     91.90789   -8437.5494   -7866.3429   -870.98576     102002.7      46.7237      46.7237      46.7237 
  496000    89.961682   -8437.2487   -7878.1378   -854.23654     102002.7      46.7237      46.7237      46.7237 
  497000    90.612582   -8451.0447   -7887.8885   -687.98765     102002.7      46.7237      46.7237      46.7237 
  498000    88.825143   -8415.6975   -7863.6502   -921.34418     102002.7      46.7237      46.7237      46.7237 
  499000    90.175479    -8451.277   -7890.8374   -736.90066     102002.7      46.7237      46.7237      46.7237 
  500000     90.45165   -8436.4514   -7874.2954   -1047.5775     102002.7      46.7237      46.7237      46.7237 
  500500    92.434378    -8431.918   -7857.4393   -823.44847     102002.7      46.7237      46.7237      46.7237 
Loop time of 1389.98 on 16 procs for 500000 steps with 2086 atoms

Performance: 31.080 ns/day, 0.772 hours/ns, 359.718 timesteps/s
99.9% CPU use with 16 MPI tasks x no OpenMP threads

MPI task timing breakdown:
Section |  min time  |  avg time  |  max time  |%varavg| %total
---------------------------------------------------------------
Pair    | 555.97     | 783.2      | 977.93     | 499.3 | 56.35
Bond    | 165.39     | 174.43     | 183.04     |  39.8 | 12.55
Neigh   | 6.5185     | 6.5662     | 6.6055     |   1.1 |  0.47
Comm    | 212.41     | 412.1      | 646.67     | 684.1 | 29.65
Output  | 0.021389   | 0.021801   | 0.025352   |   0.6 |  0.00
Modify  | 7.3651     | 8.0441     | 9.1466     |  23.0 |  0.58
Other   |            | 5.606      |            |       |  0.40

Nlocal:    130.375 ave 159 max 103 min
Histogram: 1 1 2 2 3 2 1 2 1 1
Nghost:    2605.5 ave 2636 max 2573 min
Histogram: 1 2 2 2 2 0 2 1 1 3
Neighs:    11458.9 ave 16241 max 7117 min
Histogram: 3 2 1 0 1 2 3 2 1 1

Total # of neighbors = 183342
Ave neighs/atom = 87.8917
Ave special neighs/atom = 5.52253
Neighbor list builds = 3896
Dangerous builds = 0
Neighbor list info ...
  update every 1 steps, delay 10 steps, check yes
  max neighbors/atom: 2000, page size: 100000
  master list distance cutoff = 16
  ghost atom cutoff = 16
  binsize = 8, bins = 6 6 6
  3 neighbor lists, perpetual/occasional/extra = 3 0 0
  (1) pair buck6d/coul/gauss/dsf, perpetual, skip from (3)
      attributes: half, newton on
      pair build: skip
      stencil: none
      bin: none
  (2) pair lj/cut, perpetual, skip from (3)
      attributes: half, newton on
      pair build: skip
      stencil: none
      bin: none
  (3) neighbor class addition, perpetual
      attributes: half, newton on
      pair build: half/bin/newton
      stencil: half/bin/3d/newton
      bin: standard
Setting up Verlet run ...
  Unit style    : real
  Current step  : 500500
  Time step     : 1
WARNING: Inconsistent image flags (../domain.cpp:786)
Per MPI rank memory allocation (min/avg/max) = 22.9 | 23.25 | 23.36 Mbytes
Step Time TotEng KinEng PotEng E_mol E_pair Temp Pxx Pyy Pzz Pxy Pxz Pyz Cella Cellb Cellc CellAlpha CellBeta CellGamma Volume Press 
  500500       500000   -7857.4393    574.47864    -8431.918    4187.7884   -12619.706    92.434378   -995.76343   -775.18163   -699.40035    2.3472122   -90.275218   -11.620488      46.7237      46.7237      46.7237           90           90           90     102002.7   -823.44847 
  501000       500500   -7848.6851    565.11071   -8413.7958    4200.0692   -12613.865    90.927066    -642.8436   -683.66823   -889.27782   -79.919132   -78.424176   -69.518037      46.7237      46.7237      46.7237           90           90           90     102002.7   -738.59655 
  502000       501500   -7882.0401    557.34965   -8439.3897    4174.4705    -12613.86    89.678301   -426.70917   -854.23052   -860.48232   -54.066698    208.81612    63.672888      46.7237      46.7237      46.7237           90           90           90     102002.7   -713.80734 
  503000       502500   -7869.0862    576.57365   -8445.6598    4168.6542   -12614.314    92.771468   -959.66088   -696.34935   -766.87262    179.03084    63.379291     3.903063      46.7237      46.7237      46.7237           90           90           90     102002.7   -807.62762 
  504000       503500   -7869.0751    559.26325   -8428.3383    4188.9016    -12617.24    89.986202   -780.43283   -384.01964   -642.10969   -142.87029     27.72258   -37.449274      46.7237      46.7237      46.7237           90           90           90     102002.7   -602.18738 
  505000       504500   -7889.4849    541.25359   -8430.7385    4185.7266   -12616.465    87.088423   -583.63976   -432.81421   -883.56649   -132.15368   -246.91491   -50.066329      46.7237      46.7237      46.7237           90           90           90     102002.7   -633.34015 
  506000       505500   -7891.2663    556.70654   -8447.9729     4164.678   -12612.651    89.574823   -605.76249   -559.35791    -644.0969   -5.7087667    85.710499    81.034434      46.7237      46.7237      46.7237           90           90           90     102002.7   -603.07244 
  507000       506500   -7860.9497    562.64983   -8423.5996    4208.5441   -12632.144    90.531107   -488.22039   -524.73449   -471.58694    45.343515    62.001548    173.71351      46.7237      46.7237      46.7237           90           90           90     102002.7   -494.84727 
  508000       507500   -7880.4676    570.86295   -8451.3306    4157.3748   -12608.705    91.852609    -764.2489   -728.40161   -555.12138   -14.162948    -7.633795   -226.30744      46.7237      46.7237      46.7237           90           90           90     102002.7   -682.59063 
  509000       508500   -7889.5775    545.38899   -8434.9665     4187.721   -12622.687    87.753815   -357.15822   -953.29254    -834.2754    -120.6275    380.08242    192.51586      46.7237      46.7237      46.7237           90           90           90     102002.7   -714.90872 
  510000       509500   -7888.7574    554.38932   -8443.1468    4179.4848   -12622.632    89.201981   -876.68079   -707.58511    -763.9172   -110.10889   -53.057986   -10.069596      46.7237      46.7237      46.7237           90           90           90     102002.7    -782.7277 
  511000       510500   -7884.0315    573.84129   -8457.8727    4169.9112   -12627.784    92.331827   -891.86943   -573.29501   -967.21733   -14.234082   -240.24424   -83.269043      46.7237      46.7237      46.7237           90           90           90     102002.7   -810.79393 
  512000       511500   -7886.5088    558.67364   -8445.1824    4168.1837   -12613.366    89.891332   -356.19906   -544.68071   -1034.2967   -178.14743    84.457346   -149.64124      46.7237      46.7237      46.7237           90           90           90     102002.7   -645.05883 
  513000       512500   -7876.7513    567.37331   -8444.1246    4174.5857    -12618.71    91.291121   -759.78164   -346.72183   -297.43186   -32.446253   -19.613739    80.679932      46.7237      46.7237      46.7237           90           90           90     102002.7   -467.97844 
  514000       513500   -7874.0211    568.06963   -8442.0907    4171.6746   -12613.765    91.403161   -792.45491   -750.03178   -1109.0979    227.33886    47.082096    156.83738      46.7237      46.7237      46.7237           90           90           90     102002.7   -883.86152 
  515000       514500    -7865.359    569.71338   -8435.0723    4179.2595   -12614.332    91.667641   -452.57568   -216.34304   -649.73392    244.18345   -20.344888    97.040867      46.7237      46.7237      46.7237           90           90           90     102002.7   -439.55088 
  516000       515500    -7842.993     574.0296   -8417.0226    4202.4333   -12619.456    92.362128   -705.33936   -705.56967   -1001.0667    44.132576    -118.5831   -101.18926      46.7237      46.7237      46.7237           90           90           90     102002.7   -803.99192 
  517000       516500   -7887.5212    567.99412   -8455.5154    4166.7293   -12622.245    91.391011   -357.72337   -556.18689   -1013.4932   -362.18585   -99.257562   -5.2837841      46.7237      46.7237      46.7237           90           90           90     102002.7    -642.4678 
  518000       517500   -7836.9578    575.95288   -8412.9107     4191.128   -12604.039    92.671585   -816.79789   -669.84974   -593.66026     34.21481   -35.217373    79.632588      46.7237      46.7237      46.7237           90           90           90     102002.7   -693.43596 
  519000       518500   -7850.6031    571.59128   -8422.1944    4204.3321   -12626.526    91.969798   -813.72974   -922.53342   -1113.2669    111.89912    132.35452   -66.655791      46.7237      46.7237      46.7237           90           90           90     102002.7   -949.84337 
  520000       519500   -7871.5534    555.36493   -8426.9184    4182.2039   -12609.122    89.358957   -624.03625   -697.67236   -876.01336    276.60053   -1.9927296   -156.64717      46.7237      46.7237      46.7237           90           90           90     102002.7   -732.57399 
  521000       520500    -7853.656    571.72872   -8425.3847    4187.2071   -12612.592    91.991913   -904.28686   -672.54963   -844.53261    101.73821   -73.759921   -52.197611      46.7237      46.7237      46.7237           90           90           90     102002.7   -807.12303 
  522000       521500   -7855.1939     571.5435   -8426.7374    4185.0115   -12611.749     91.96211   -892.43141   -374.77897   -967.13079    73.682617    295.26711    -81.10756      46.7237      46.7237      46.7237           90           90           90     102002.7   -744.78039 
  523000       522500   -7880.6984    552.23995   -8432.9384    4181.1657   -12614.104    88.856144   -814.80453   -716.08325   -851.59687    -110.4812   -85.283511    199.21926      46.7237      46.7237      46.7237           90           90           90     102002.7   -794.16155 
  524000       523500   -7862.6647    570.97929    -8433.644    4171.0805   -12604.724    91.871328   -1095.8814   -806.72066   -854.14728    52.481208   -39.032124    153.82834      46.7237      46.7237      46.7237           90           90           90     102002.7   -918.91646 
  525000       524500   -7888.6323    564.30671    -8452.939    4170.5931   -12623.532    90.797701   -769.79601   -176.75019   -658.38714    29.558797    181.18118   -174.06563      46.7237      46.7237      46.7237           90           90           90     102002.7   -534.97778 
  526000       525500   -7872.0492     562.8203   -8434.8695    4179.9465   -12614.816    90.558536   -926.75289   -530.95322   -1140.6867    77.595173    22.795493   -56.659178      46.7237      46.7237      46.7237           90           90           90     102002.7   -866.13092 
  527000       526500   -7871.0518    555.04702   -8426.0988    4184.6199   -12610.719    89.307805   -817.57655   -804.01542   -741.70353    87.386454    140.07548    6.4310219      46.7237      46.7237      46.7237           90           90           90     102002.7   -787.76516 
  528000       527500   -7880.9014    566.15557    -8447.057    4169.0302   -12616.087    91.095185   -567.21814   -1321.7816   -726.61382   -170.22027   -67.793101    89.238431      46.7237      46.7237      46.7237           90           90           90     102002.7    -871.8712 
  529000       528500   -7835.2205    597.38227   -8432.6028    4200.0422   -12632.645    96.119604   -387.44899    -1183.513   -1070.6783    -8.895161    44.172614    112.65968      46.7237      46.7237      46.7237           90           90           90     102002.7   -880.54676 
  530000       529500   -7898.6059    552.56847   -8451.1744    4163.4003   -12614.575    88.909003   -586.90346    -649.8469   -677.49535   -152.37026    90.118676    60.870717      46.7237      46.7237      46.7237           90           90           90     102002.7    -638.0819 
  531000       530500   -7875.8565    573.61924   -8449.4758    4178.9336   -12628.409    92.296099   -904.31059   -763.64446   -803.65357   -1.5031744   -18.565892    6.4186198      46.7237      46.7237      46.7237           90           90           90     102002.7   -823.86954 
  532000       531500   -7853.2168    589.71533   -8442.9321    4165.9502   -12608.882    94.885981    -880.3832    -386.6092   -989.61695    230.54698     82.05966    49.992601      46.7237      46.7237      46.7237           90           90           90     102002.7   -752.20312 
  533000       532500   -7854.7568    564.53767   -8419.2945    4196.2899   -12615.584    90.834863   -917.07192   -702.08554   -1009.6549    83.756267  -0.11064325   -58.544085      46.7237      46.7237      46.7237           90           90           90     102002.7    -876.2708 
  534000       533500   -7874.6311    559.90261   -8434.5337    4149.5213   -12584.055    90.089076   -636.03481   -771.36356   -638.96265   -39.858177    33.609825    83.346344      46.7237      46.7237      46.7237           90           90           90     102002.7   -682.12034 
  535000       534500   -7867.4905    570.35583   -8437.8463    4186.9911   -12624.837    91.771012   -770.04175    -741.3664   -1093.4733    38.241167    127.12214     -81.0862      46.7237      46.7237      46.7237           90           90           90     102002.7   -868.29381 
  536000       535500   -7853.7468    570.62994   -8424.3768    4175.4616   -12599.838    91.815117   -426.19021   -555.37375    -1017.335   -162.84386     132.3661   -13.138226      46.7237      46.7237      46.7237           90           90           90     102002.7   -666.29965 
  537000       536500   -7868.2076    573.38444   -8441.5921    4160.0836   -12601.676    92.258319   -787.83589   -747.80042   -469.04563    251.94522     23.15004    2.4303998      46.7237      46.7237      46.7237           90           90           90     102002.7   -668.22731 
  538000       537500   -7878.2796    560.46701   -8438.7466    4175.1933    -12613.94    90.179888   -392.13589   -616.69479   -667.69989   -30.633759   -101.24321   -318.20487      46.7237      46.7237      46.7237           90           90           90     102002.7   -558.84352 
  539000       538500   -7867.9261    578.93948   -8446.8656    4173.7926   -12620.658    93.152134   -279.73365   -237.98544   -914.09097    220.96268   -8.5467968    28.712949      46.7237      46.7237      46.7237           90           90           90     102002.7   -477.27002 
  540000       539500    -7865.882    577.57706   -8443.4591    4174.9686   -12618.428    92.932917   -971.26401   -613.04324   -389.53084   -47.011093   -15.083378    234.07987      46.7237      46.7237      46.7237           90           90           90     102002.7   -657.94603 
  541000       540500   -7889.1054    559.58922   -8448.6947    4165.9383   -12614.633    90.038651   -872.31459   -981.24749   -601.05105   -52.131563   -33.578352    58.706212      46.7237      46.7237      46.7237           90           90           90     102002.7   -818.20438 
  542000       541500   -7876.2803    570.83099   -8447.1113     4167.642   -12614.753    91.847466   -268.34787   -902.26276   -306.45137    21.943698   -68.112552    2.0135883      46.7237      46.7237      46.7237           90           90           90     102002.7     -492.354 
  543000       542500   -7876.9874    564.31882   -8441.3062    4180.5245   -12621.831     90.79965   -630.44727   -531.18861   -777.79527   -24.128049    -157.2329   -72.319768      46.7237      46.7237      46.7237           90           90           90     102002.7   -646.47705 
  544000       543500   -7852.4153    582.01099   -8434.4263    4172.8301   -12607.256    93.646343   -1047.4599    -835.0877    -592.1344   -98.784876    42.785064    49.086684      46.7237      46.7237      46.7237           90           90           90     102002.7   -824.89401 
  545000       544500   -7890.7716    560.18824   -8450.9598    4174.9011   -12625.861    90.135034   -683.84725   -477.77135   -265.00239    183.19982    127.01586    163.87568      46.7237      46.7237      46.7237           90           90           90     102002.7   -475.54033 
  546000       545500   -7865.7017    574.70439   -8440.4061    4188.1045   -12628.511    92.470701   -722.64318   -830.54975   -591.06495   -74.665508    -34.40187    105.34046      46.7237      46.7237      46.7237           90           90           90     102002.7   -714.75263 
  547000       546500   -7888.8543     560.8569   -8449.7112    4158.4842   -12608.195    90.242622   -1055.1159   -747.18031   -790.79997   -107.16587    77.475901    185.25506      46.7237      46.7237      46.7237           90           90           90     102002.7    -864.3654 
  548000       547500   -7879.9349    557.87976   -8437.8146    4182.7332   -12620.548    89.763597   -470.21208   -660.82856   -791.71223   -86.818347   -111.78752    162.19077      46.7237      46.7237      46.7237           90           90           90     102002.7   -640.91763 
  549000       548500   -7894.4987    561.93059   -8456.4293    4154.9959   -12611.425    90.415381   -580.67731   -1037.0306   -787.32957   -46.352604   -161.33612   -25.172468      46.7237      46.7237      46.7237           90           90           90     102002.7   -801.67915 
  550000       549500   -7874.6128     560.8683   -8435.4811    4168.5916   -12604.073    90.244456   -276.32459   -480.11786   -231.96566   -332.34186    193.37248    209.67701      46.7237      46.7237      46.7237           90           90           90     102002.7   -329.46937 
  551000       550500   -7867.1435    563.08775   -8430.2312    4190.6952   -12620.926    90.601568   -422.89424   -475.64252   -220.96776   -35.130795   -51.586729    299.89889      46.7237      46.7237      46.7237           90           90           90     102002.7   -373.16817 
  552000       551500   -7872.8999    556.32165   -8429.2215    4195.8018   -12625.023    89.512894   -572.19727   -255.56657   -769.61646   -281.10708    10.737423    32.335516      46.7237      46.7237      46.7237           90           90           90     102002.7    -532.4601 
  553000       552500   -7863.6255    573.50852    -8437.134    4186.4332   -12623.567    92.278285   -763.59578   -356.90383   -489.82746   -137.99689   -55.438264   -136.26408      46.7237      46.7237      46.7237           90           90           90     102002.7   -536.77569 
  554000       553500   -7866.6808    578.14367   -8444.8245     4172.913   -12617.737    93.024087   -921.63495   -747.72233    -546.6774     171.1401    58.640671   -167.48747      46.7237      46.7237      46.7237           90           90           90     102002.7   -738.67823 
  555000       554500   -7884.0194    555.64873   -8439.6681    4182.3979   -12622.066    89.404621    -589.1861   -602.72568   -852.69998    12.099712    122.09946    7.9264374      46.7237      46.7237      46.7237           90           90           90     102002.7   -681.53725 
[...]
  936000       935500   -7842.0018    577.57481   -8419.5766    4198.3778   -12617.954    92.932556     -552.704   -688.95896   -1086.6345    101.12776   -84.109578    240.57713      46.7237      46.7237      46.7237           90           90           90     102002.7   -776.09914 
  937000       936500   -7870.4314    559.54418   -8429.9756      4194.24   -12624.216    90.031404   -984.06121   -997.65899   -721.75923    98.310087    -75.05784    165.63917      46.7237      46.7237      46.7237           90           90           90     102002.7   -901.15981 
  938000       937500   -7860.2183    563.27404   -8423.4924    4209.1098   -12632.602    90.631544    -302.2443   -848.55619    -880.5157   -55.157545   -225.39673   -5.5703009      46.7237      46.7237      46.7237           90           90           90     102002.7    -677.1054 
  939000       938500   -7893.6144    558.24068   -8451.8551    4167.8951    -12619.75    89.821669   -478.21244   -478.71778   -1086.5018    42.143125    3.9914688    201.81223      46.7237      46.7237      46.7237           90           90           90     102002.7     -681.144 
  940000       939500   -7868.5179    574.54956   -8443.0675    4184.9281   -12627.996     92.44579   -711.07262   -619.68205   -633.48619   -18.926118    87.786105    62.125545      46.7237      46.7237      46.7237           90           90           90     102002.7   -654.74695 
  941000       940500   -7847.0719    569.57884   -8416.6507    4181.0644   -12597.715    91.645994   -1.9020608   -699.36106   -563.78495    82.587618  -0.68340258    65.806684      46.7237      46.7237      46.7237           90           90           90     102002.7   -421.68269 
  942000       941500   -7850.5358    558.17758   -8408.7134    4203.7551   -12612.469    89.811517   -659.51481   -1012.8033   -1060.0679    -18.04894   -61.833864   -172.41299      46.7237      46.7237      46.7237           90           90           90     102002.7   -910.79533 
  943000       942500   -7844.8863     579.0462   -8423.9325    4192.0374    -12615.97    93.169305   -647.25619   -816.69262   -869.76014    142.65252    168.02568   -53.513684      46.7237      46.7237      46.7237           90           90           90     102002.7   -777.90298 
  944000       943500   -7873.1752    564.84319   -8438.0184    4187.8581   -12625.877    90.884022    -74.81126   -793.86116    -347.6169    76.078956    6.9904793   -111.05847      46.7237      46.7237      46.7237           90           90           90     102002.7   -405.42978 
  945000       944500   -7858.1365    576.42741   -8434.5639    4184.1801   -12618.744    92.747937   -403.07673   -716.52123   -873.27034    39.499264   -217.46623   -82.589819      46.7237      46.7237      46.7237           90           90           90     102002.7   -664.28943 
  946000       945500   -7888.9494    551.72947   -8440.6789    4169.7639   -12610.443    88.774006   -550.08812   -731.81224   -982.99029    189.71759    77.576445     105.0501      46.7237      46.7237      46.7237           90           90           90     102002.7   -754.96355 
  947000       946500   -7870.6099    561.19083   -8431.8008    4200.5835   -12632.384    90.296351   -862.94992   -835.10511   -673.88721    101.24386    47.309061   -274.35039      46.7237      46.7237      46.7237           90           90           90     102002.7   -790.64741 
  948000       947500   -7877.5066    575.69568   -8453.2022    4153.6293   -12606.832    92.630201    -623.9574    -303.1579   -1051.6579    125.50252   -155.58526   -231.63716      46.7237      46.7237      46.7237           90           90           90     102002.7   -659.59107 
  949000       948500    -7861.421    553.46713   -8414.8881    4201.7801   -12616.668    89.053599   -759.64165   -535.84408   -566.68509   -75.879932   -205.03869   -183.68854      46.7237      46.7237      46.7237           90           90           90     102002.7    -620.7236 
  950000       949500   -7874.3552    564.36243   -8438.7176      4190.17   -12628.888    90.806666   -555.10165   -446.66905   -865.77553   -3.7786505    94.864299    85.214716      46.7237      46.7237      46.7237           90           90           90     102002.7   -622.51541 
  951000       950500   -7889.7851    556.11431   -8445.8994    4174.0813   -12619.981    89.479533   -412.73666   -247.54119   -1043.7018   -81.280678    112.59102   -30.110804      46.7237      46.7237      46.7237           90           90           90     102002.7   -567.99323 
  952000       951500    -7858.077    583.38553   -8441.4625    4162.3527   -12603.815    93.867508   -784.09307   -851.76602   -574.34066     40.48042    182.03244   -110.40892      46.7237      46.7237      46.7237           90           90           90     102002.7   -736.73325 
  953000       952500   -7862.7524    566.27518   -8429.0275    4198.3269   -12627.354    91.114431   -991.02575   -1276.8172   -737.31707    172.60847   -198.54373    -76.34599      46.7237      46.7237      46.7237           90           90           90     102002.7     -1001.72 
  954000       953500   -7890.1458    543.05826   -8433.2041    4179.8025   -12613.007    87.378797   -381.57539   -346.26553   -487.54324   -121.63905    59.146404    178.02376      46.7237      46.7237      46.7237           90           90           90     102002.7   -405.12806 
  955000       954500   -7869.3456    555.98906   -8425.3347    4186.7282   -12612.063    89.459381   -316.63518   -695.28933   -672.54067    87.680462    263.57134      110.171      46.7237      46.7237      46.7237           90           90           90     102002.7   -561.48839 
  956000       955500   -7892.7229    563.03284   -8455.7557     4168.299   -12624.055    90.592734   -785.95891   -1027.8649   -647.01513    41.808885   -171.83742    89.439609      46.7237      46.7237      46.7237           90           90           90     102002.7   -820.27965 
  957000       956500   -7862.1719    562.28576   -8424.4577    4192.5784   -12617.036    90.472528   -499.70358   -296.89078   -490.13314   -163.10133   -250.22277    -88.95953      46.7237      46.7237      46.7237           90           90           90     102002.7   -428.90917 
  958000       957500    -7866.488    578.83611   -8445.3241    4167.7222   -12613.046    93.135501   -1087.0886   -665.40139   -844.17287    54.094361   -33.848594    -55.59874      46.7237      46.7237      46.7237           90           90           90     102002.7   -865.55428 
  959000       958500   -7855.2424    571.78805   -8427.0304    4172.5768   -12599.607    92.001458   -353.81013   -258.34461   -868.36428   -38.176356    20.469938    57.871159      46.7237      46.7237      46.7237           90           90           90     102002.7   -493.50634 
  960000       959500   -7881.5044    567.81809   -8449.3225     4166.728   -12616.051    91.362686    -488.1062   -1035.1889   -515.56083    9.6924457    139.20145   -145.03935      46.7237      46.7237      46.7237           90           90           90     102002.7   -679.61865 
  961000       960500   -7885.7629    556.79685   -8442.5598    4181.3499    -12623.91    89.589354   -1235.0886   -876.17218   -1025.3211   -158.90863   -354.40057   -137.16249      46.7237      46.7237      46.7237           90           90           90     102002.7   -1045.5273 
  962000       961500   -7872.2204    568.90954     -8441.13    4194.3975   -12635.527    91.538303    -649.8383   -1179.6253   -657.53772   -87.659475    4.2283801   -71.047587      46.7237      46.7237      46.7237           90           90           90     102002.7   -829.00045 
  963000       962500   -7880.3935    562.27993   -8442.6734     4185.182   -12627.855     90.47159   -1059.0715   -1091.7525   -877.92639   -39.876467    -106.6083    35.849626      46.7237      46.7237      46.7237           90           90           90     102002.7   -1009.5835 
  964000       963500   -7857.0348    570.58821    -8427.623     4164.014   -12591.637    91.808402   -346.61371   -600.04907   -944.77937    130.88565   -82.985352    113.60009      46.7237      46.7237      46.7237           90           90           90     102002.7   -630.48072 
  965000       964500   -7877.9579    564.04178   -8441.9997    4172.4345   -12614.434    90.755074    -479.0202   -743.00535   -494.04329   -12.095679    17.464512   -157.14931      46.7237      46.7237      46.7237           90           90           90     102002.7   -572.02294 
  966000       965500   -7866.9047    560.43864   -8427.3433    4173.0899   -12600.433    90.175323   -796.48019   -420.67501   -697.14644   -27.782676   -4.6863979   -262.84586      46.7237      46.7237      46.7237           90           90           90     102002.7   -638.10055 
  967000       966500   -7832.7373    581.43699   -8414.1743    4190.8201   -12604.994    93.553986   -867.66218   -594.35765   -806.59093    36.930619    132.43558   -114.16349      46.7237      46.7237      46.7237           90           90           90     102002.7   -756.20359 
  968000       967500   -7881.1231    576.68892   -8457.8121    4163.1864   -12620.998    92.790015   -739.86657   -617.15558   -874.35594    80.348483   -113.42555   -72.972933      46.7237      46.7237      46.7237           90           90           90     102002.7    -743.7927 
  969000       968500    -7873.866    563.86379   -8437.7298    4180.4604    -12618.19    90.726434   -994.28575   -1135.3613   -1016.9894   -22.704133   -64.117082    206.13653      46.7237      46.7237      46.7237           90           90           90     102002.7   -1048.8788 
  970000       969500   -7872.5097    565.54636   -8438.0561    4189.5154   -12627.571    90.997162    -437.0613   -738.53391   -696.96442    14.628874   -53.635248    62.243769      46.7237      46.7237      46.7237           90           90           90     102002.7   -624.18654 
  971000       970500   -7868.2509    566.63701   -8434.8879    4187.6617    -12622.55     91.17265   -685.64619   -740.95653   -800.03648    174.43269    19.039761   -9.6465388      46.7237      46.7237      46.7237           90           90           90     102002.7   -742.21307 
  972000       971500   -7875.5173    556.77316   -8432.2904    4196.7338   -12629.024    89.585542   -483.09002   -485.09187   -778.22169    105.50316    133.10389    -57.92024      46.7237      46.7237      46.7237           90           90           90     102002.7   -582.13453 
  973000       972500   -7835.6649    571.75262   -8407.4175    4206.9064   -12614.324    91.995759   -215.74943   -549.93595   -1051.7975   -98.797815    173.19453   -31.002189      46.7237      46.7237      46.7237           90           90           90     102002.7   -605.82763 
  974000       973500   -7892.6626    560.20227   -8452.8649    4175.3279   -12628.193    90.137292   -842.73959    -947.9479    -999.9899     52.99295   -325.91481   -55.430461      46.7237      46.7237      46.7237           90           90           90     102002.7    -930.2258 
  975000       974500   -7873.0609    564.21831   -8437.2792    4157.3681   -12594.647    90.783478   -755.41912   -487.58253   -659.20541    104.29853    64.712124  -0.75276084      46.7237      46.7237      46.7237           90           90           90     102002.7   -634.06902 
  976000       975500   -7858.3084    577.24558   -8435.5539    4178.7245   -12614.278    92.879582   -540.91443   -772.69064   -372.25922   -24.392701     323.9849    204.60829      46.7237      46.7237      46.7237           90           90           90     102002.7   -561.95476 
  977000       976500   -7866.7204    578.49381   -8445.2143    4167.3664   -12612.581    93.080424   -565.76005   -695.45886   -1073.6851    43.455503      130.272    119.75018      46.7237      46.7237      46.7237           90           90           90     102002.7   -778.30133 
  978000       977500   -7866.4669    573.59159   -8440.0585    4172.1715    -12612.23    92.291651   -310.83547   -905.51205   -457.35327   -63.961055   -224.63013   -70.166841      46.7237      46.7237      46.7237           90           90           90     102002.7   -557.90026 
  979000       978500   -7867.3237     567.9515   -8435.2752    4179.7529   -12615.028    91.384154   -510.92125   -1065.5336   -546.13487    56.219069   -146.00566   -94.200656      46.7237      46.7237      46.7237           90           90           90     102002.7   -707.52992 
  980000       979500    -7868.962    564.94791   -8433.9099    4174.1276   -12608.038    90.900871   -34.469436   -261.11318   -468.39428   -71.889675   -183.03743   -6.0730034      46.7237      46.7237      46.7237           90           90           90     102002.7   -254.65896 
  981000       980500   -7845.0611    569.92012   -8414.9812    4189.3774   -12604.359    91.700907    -636.9117   -768.57588   -39.587712   -89.554767    201.95831    -107.9158      46.7237      46.7237      46.7237           90           90           90     102002.7   -481.69177 
  982000       981500   -7856.6316     575.6217   -8432.2533    4167.5192   -12599.772    92.618298   -890.35629   -659.81841    -906.8814   -99.975871    62.111901    224.37488      46.7237      46.7237      46.7237           90           90           90     102002.7    -819.0187 
  983000       982500   -7880.4639    571.17313    -8451.637    4163.8651   -12615.502    91.902517   -572.30795   -649.48674   -465.75039   -150.60734    59.854627    10.220644      46.7237      46.7237      46.7237           90           90           90     102002.7   -562.51503 
  984000       983500   -7891.3459    551.13382   -8442.4797    4182.3991   -12624.879    88.678166   -1093.5187   -786.45954   -778.07205    35.027966    245.44016    59.766348      46.7237      46.7237      46.7237           90           90           90     102002.7   -886.01675 
  985000       984500   -7869.4122    571.04359   -8440.4558    4183.3048   -12623.761    91.881675    -433.8512   -920.09007   -830.02363    191.14669     230.2586   -23.779536      46.7237      46.7237      46.7237           90           90           90     102002.7    -727.9883 
  986000       985500   -7856.2834    568.78354   -8425.0669    4182.1258   -12607.193    91.518029   -711.57403   -498.56695    -940.8466    107.78635   -54.498355    -242.8836      46.7237      46.7237      46.7237           90           90           90     102002.7   -716.99586 
  987000       986500    -7871.443    553.86736   -8425.3103    4180.5868   -12605.897    89.117995   -304.77172   -586.57328   -653.82298   -107.94715   -64.812438   -176.32547      46.7237      46.7237      46.7237           90           90           90     102002.7   -515.05599 
  988000       987500   -7854.4005    580.86576   -8435.2663    4181.6136    -12616.88    93.462074   -530.90121   -726.66795   -603.21768   -134.93597   -59.277692    63.944768      46.7237      46.7237      46.7237           90           90           90     102002.7   -620.26228 
  989000       988500   -7880.6283    564.43665   -8445.0649    4174.7027   -12619.768    90.818609   -380.55621   -969.15795   -881.81631    49.759532    61.340135    129.81048      46.7237      46.7237      46.7237           90           90           90     102002.7   -743.84349 
  990000       989500   -7886.9097    561.35296   -8448.2627    4170.9912   -12619.254     90.32244   -465.00591   -579.29067   -808.73858   -115.31462    64.403584    173.73687      46.7237      46.7237      46.7237           90           90           90     102002.7   -617.67839 
  991000       990500   -7862.3897    572.93833    -8435.328    4164.9103   -12600.238     92.18654   -762.72515   -828.67466   -797.65379   -22.483072   -21.993022   -36.980297      46.7237      46.7237      46.7237           90           90           90     102002.7    -796.3512 
  992000       991500   -7864.9608     566.0961   -8431.0569    4177.9558   -12609.013    91.085616   -769.84429   -430.72116   -478.40895    98.241325    95.412599   -190.83939      46.7237      46.7237      46.7237           90           90           90     102002.7   -559.65813 
  993000       992500   -7855.9929    562.59054   -8418.5834    4180.0419   -12598.625    90.521568   -548.12898   -617.86216   -533.55486    -92.60405    176.12484   -141.59807      46.7237      46.7237      46.7237           90           90           90     102002.7   -566.51533 
  994000       993500   -7878.7096    548.16168   -8426.8713    4184.4502   -12611.321    88.199944   -775.92264   -818.15241   -956.66038    52.246859     153.1724    68.632208      46.7237      46.7237      46.7237           90           90           90     102002.7   -850.24514 
  995000       994500   -7856.0676    573.44539    -8429.513    4189.4833   -12618.996    92.268128   -681.74654   -629.88997   -653.94792    59.824407    -116.1362     242.0014      46.7237      46.7237      46.7237           90           90           90     102002.7   -655.19481 
  996000       995500   -7875.0799    569.03601   -8444.1159    4164.4857   -12608.602    91.558653   -839.25501   -651.40382   -394.48598   -92.050702   -8.8432279   -99.131446      46.7237      46.7237      46.7237           90           90           90     102002.7    -628.3816 
  997000       996500   -7874.7079    552.54834   -8427.2562    4172.7079   -12599.964    88.905764   -538.43952   -714.48272   -695.32844   -5.1545392   -99.821118   -41.117007      46.7237      46.7237      46.7237           90           90           90     102002.7    -649.4169 
  998000       997500   -7889.4673    553.10171    -8442.569    4174.9558   -12617.525    88.994802   -704.05127   -567.02959   -726.82153     150.8177   -27.174337    96.492203      46.7237      46.7237      46.7237           90           90           90     102002.7   -665.96746 
  999000       998500   -7851.5527    565.68368   -8417.2364    4179.8547   -12597.091    91.019258   -637.04164   -613.33548   -763.82915   -40.557144    88.386818   -59.706859      46.7237      46.7237      46.7237           90           90           90     102002.7   -671.40209 
 1000000       999500    -7853.818      570.366    -8424.184    4190.7424   -12614.926     91.77265   -401.99131   -607.64848   -749.60432   -72.355566    162.60908    187.56785      46.7237      46.7237      46.7237           90           90           90     102002.7    -586.4147 
 1000500      1000000    -7851.128    582.79826   -8433.9262    4170.2836    -12604.21    93.773016   -534.01787   -851.16222    -912.7457   -135.42881    116.48466   -51.756618      46.7237      46.7237      46.7237           90           90           90     102002.7   -765.97526 
Loop time of 1596.19 on 16 procs for 500000 steps with 2086 atoms

Performance: 27.064 ns/day, 0.887 hours/ns, 313.245 timesteps/s
99.9% CPU use with 16 MPI tasks x no OpenMP threads

MPI task timing breakdown:
Section |  min time  |  avg time  |  max time  |%varavg| %total
---------------------------------------------------------------
Pair    | 686.76     | 923.54     | 1112.3     | 446.1 | 57.86
Bond    | 168.14     | 184.25     | 199.64     |  69.7 | 11.54
Neigh   | 6.6612     | 6.6817     | 6.7071     |   0.6 |  0.42
Comm    | 267.52     | 453.17     | 689.57     | 604.7 | 28.39
Output  | 0.10754    | 0.11251    | 0.11298    |   0.4 |  0.01
Modify  | 22.048     | 22.757     | 23.566     |   9.6 |  1.43
Other   |            | 5.687      |            |       |  0.36

Nlocal:    130.375 ave 158 max 101 min
Histogram: 3 0 1 2 1 3 1 2 0 3
Nghost:    2602.88 ave 2645 max 2563 min
Histogram: 3 0 0 2 3 4 0 2 0 2
Neighs:    11467.1 ave 18305 max 8471 min
Histogram: 3 3 2 4 2 1 0 0 0 1

Total # of neighbors = 183473
Ave neighs/atom = 87.9545
Ave special neighs/atom = 5.52253
Neighbor list builds = 3919
Dangerous builds = 0
Total wall time: 0:49:51
