LAMMPS (30 Mar 2018)
Reading data file ...
  orthogonal box = (0 0 0) to (46.7237 46.7237 46.7237)
  2 by 2 by 4 MPI processor grid
  reading atoms ...
  3161 atoms
  scanning bonds ...
  5 = max bonds/atom
  scanning angles ...
  10 = max angles/atom
  scanning dihedrals ...
  32 = max dihedrals/atom
  scanning impropers ...
  3 = max impropers/atom
  reading bonds ...
  2064 bonds
  reading angles ...
  3696 angles
  reading dihedrals ...
  6240 dihedrals
  reading impropers ...
  1008 impropers
Finding 1-2 1-3 1-4 neighbors ...
  special bond factors lj:   0          0          0         
  special bond factors coul: 0          0          0         
  5 = max # of 1-2 neighbors
  8 = max # of 1-3 neighbors
  20 = max # of 1-4 neighbors
  19 = max # of special neighbors
Finding 1-2 1-3 1-4 neighbors ...
  special bond factors lj:   0          0          1         
  special bond factors coul: 1          1          1         
  5 = max # of 1-2 neighbors
  8 = max # of 1-3 neighbors
  19 = max # of special neighbors
WARNING: Using 'neigh_modify every 1 delay 0 check yes' setting during minimization (../min.cpp:168)
Neighbor list info ...
  update every 1 steps, delay 0 steps, check yes
  max neighbors/atom: 2000, page size: 100000
  master list distance cutoff = 16
  ghost atom cutoff = 16
  binsize = 8, bins = 6 6 6
  3 neighbor lists, perpetual/occasional/extra = 3 0 0
  (1) pair buck6d/coul/gauss/dsf, perpetual, skip from (3)
      attributes: half, newton on
      pair build: skip
      stencil: none
      bin: none
  (2) pair lj/cut, perpetual, skip from (3)
      attributes: half, newton on
      pair build: skip
      stencil: none
      bin: none
  (3) neighbor class addition, perpetual
      attributes: half, newton on
      pair build: half/bin/newton
      stencil: half/bin/3d/newton
      bin: standard
Setting up cg style minimization ...
  Unit style    : real
  Current step  : 0
WARNING: Inconsistent image flags (../domain.cpp:786)
Per MPI rank memory allocation (min/avg/max) = 23.01 | 23.47 | 23.91 Mbytes
Step Temp E_pair E_mol TotEng Press 
       0            0   -15417.316    6482.8914   -8934.4245    5760.2001 
     500            0    -15770.71    3760.2826   -12010.428   -2064.0562 
Loop time of 4.36946 on 16 procs for 500 steps with 3161 atoms

99.8% CPU use with 16 MPI tasks x no OpenMP threads

Minimization stats:
  Stopping criterion = max force evaluations
  Energy initial, next-to-last, final = 
        -8934.42453837     -12010.3319088     -12010.4277738
  Force two-norm initial, final = 2575.07 14.6079
  Force max component initial, final = 152.038 1.68844
  Final line search alpha, max atom move = 0.00739716 0.0124897
  Iterations, force evaluations = 500 1000

MPI task timing breakdown:
Section |  min time  |  avg time  |  max time  |%varavg| %total
---------------------------------------------------------------
Pair    | 2.3502     | 2.9317     | 3.5303     |  20.0 | 67.10
Bond    | 0.28224    | 0.35937    | 0.42052    |   6.7 |  8.22
Neigh   | 0.036989   | 0.03713    | 0.037439   |   0.1 |  0.85
Comm    | 0.40903    | 0.99607    | 1.6277     |  35.4 | 22.80
Output  | 0          | 0          | 0          |   0.0 |  0.00
Modify  | 0          | 0          | 0          |   0.0 |  0.00
Other   |            | 0.04517    |            |       |  1.03

Nlocal:    197.562 ave 222 max 172 min
Histogram: 2 1 1 1 5 0 1 0 3 2
Nghost:    3948.25 ave 3986 max 3918 min
Histogram: 2 2 0 3 3 1 3 0 1 1
Neighs:    11471.9 ave 16543 max 6828 min
Histogram: 2 1 2 2 2 2 1 0 2 2

Total # of neighbors = 183550
Ave neighs/atom = 58.0671
Ave special neighs/atom = 3.64442
Neighbor list builds = 11
Dangerous builds = 0
Neighbor list info ...
  update every 1 steps, delay 10 steps, check yes
  max neighbors/atom: 2000, page size: 100000
  master list distance cutoff = 16
  ghost atom cutoff = 16
  binsize = 8, bins = 6 6 6
  3 neighbor lists, perpetual/occasional/extra = 3 0 0
  (1) pair buck6d/coul/gauss/dsf, perpetual, skip from (3)
      attributes: half, newton on
      pair build: skip
      stencil: none
      bin: none
  (2) pair lj/cut, perpetual, skip from (3)
      attributes: half, newton on
      pair build: skip
      stencil: none
      bin: none
  (3) neighbor class addition, perpetual
      attributes: half, newton on
      pair build: half/bin/newton
      stencil: half/bin/3d/newton
      bin: standard
Setting up Verlet run ...
  Unit style    : real
  Current step  : 500
  Time step     : 1
WARNING: Inconsistent image flags (../domain.cpp:786)
Per MPI rank memory allocation (min/avg/max) = 22.66 | 22.73 | 22.79 Mbytes
Step Temp PotEng TotEng Press Volume Lx Ly Lz 
     500           91   -12010.428   -11153.266   -1679.9212     102002.7      46.7237      46.7237      46.7237 
    1000    76.957675   -11302.343   -10577.451    -625.7093     102002.7      46.7237      46.7237      46.7237 
    2000    90.965135   -11169.195   -10312.362    -581.0141     102002.7      46.7237      46.7237      46.7237 
    3000    92.461273   -11210.057   -10339.131   -685.26883     102002.7      46.7237      46.7237      46.7237 
    4000    88.752502   -11179.459   -10343.468   -544.11692     102002.7      46.7237      46.7237      46.7237 
    5000    90.552063   -11182.757   -10329.815   -590.82379     102002.7      46.7237      46.7237      46.7237 
    6000     92.09938    -11189.18   -10321.663   -814.72043     102002.7      46.7237      46.7237      46.7237 
    7000    89.494396   -11201.493   -10358.513   -809.70832     102002.7      46.7237      46.7237      46.7237 
    8000    90.097097   -11189.878   -10341.221   -862.29179     102002.7      46.7237      46.7237      46.7237 
    9000    90.957372   -11197.173   -10340.413   -619.19929     102002.7      46.7237      46.7237      46.7237 
   10000    90.775631   -11197.466   -10342.418   -770.07439     102002.7      46.7237      46.7237      46.7237 
   11000    90.984854   -11196.204   -10339.185    -592.3252     102002.7      46.7237      46.7237      46.7237 
   12000    92.290034   -11196.745   -10327.432   -579.84459     102002.7      46.7237      46.7237      46.7237 
   13000    90.627259   -11216.272   -10362.622   -544.43189     102002.7      46.7237      46.7237      46.7237 
   14000    91.466364   -11212.061   -10350.506   -561.67858     102002.7      46.7237      46.7237      46.7237 
   15000    89.438618   -11181.521   -10339.066    -577.8315     102002.7      46.7237      46.7237      46.7237 
   16000    93.541551   -11193.538   -10312.436   -806.03389     102002.7      46.7237      46.7237      46.7237 
   17000    91.534101    -11194.07   -10331.877   -845.61458     102002.7      46.7237      46.7237      46.7237 
   18000    91.007671   -11207.665   -10350.431   -671.99469     102002.7      46.7237      46.7237      46.7237 
   19000    91.506157    -11206.19    -10344.26   -639.83094     102002.7      46.7237      46.7237      46.7237 
   20000    89.198914   -11206.107   -10365.911   -857.52903     102002.7      46.7237      46.7237      46.7237 
   21000    89.670144   -11191.351   -10346.715    -592.8402     102002.7      46.7237      46.7237      46.7237 
   22000    93.648313    -11182.22   -10300.113   -635.07184     102002.7      46.7237      46.7237      46.7237 
   23000    93.621493   -11216.819   -10334.965   -419.88033     102002.7      46.7237      46.7237      46.7237 
   24000    91.258699   -11209.617   -10350.019   -581.86312     102002.7      46.7237      46.7237      46.7237 
   25000    89.335242   -11218.556   -10377.075   -890.47119     102002.7      46.7237      46.7237      46.7237 
   26000    89.267071   -11189.895   -10349.056   -930.75979     102002.7      46.7237      46.7237      46.7237 
   27000    90.028122   -11207.344   -10359.337   -896.57497     102002.7      46.7237      46.7237      46.7237 
   28000    92.751053   -11204.079   -10330.424   -1063.5867     102002.7      46.7237      46.7237      46.7237 
   29000    94.395809   -11218.163   -10329.015   -710.73108     102002.7      46.7237      46.7237      46.7237 
   30000    90.611218   -11225.564   -10372.065   -743.15529     102002.7      46.7237      46.7237      46.7237 
   31000    89.474999   -11203.429   -10360.632   -591.33494     102002.7      46.7237      46.7237      46.7237 
   32000    90.460528   -11232.036   -10379.956   -767.42348     102002.7      46.7237      46.7237      46.7237 
   33000    91.951808   -11210.232   -10344.105   -918.19179     102002.7      46.7237      46.7237      46.7237 
   34000    91.719234   -11195.423   -10331.487   -741.67772     102002.7      46.7237      46.7237      46.7237 
   35000    88.945942   -11221.273    -10383.46   -903.82216     102002.7      46.7237      46.7237      46.7237 
   36000    93.006696   -11204.341   -10328.277   -820.70775     102002.7      46.7237      46.7237      46.7237 
   37000    90.855295   -11200.214   -10344.415   -690.30869     102002.7      46.7237      46.7237      46.7237 
   38000    90.142493   -11199.215   -10350.131   -606.15637     102002.7      46.7237      46.7237      46.7237 
   39000    92.356203   -11188.132   -10318.196   -784.11613     102002.7      46.7237      46.7237      46.7237 
   40000    89.420945   -11207.252   -10364.964   -944.88305     102002.7      46.7237      46.7237      46.7237 
   41000    88.757195   -11217.078   -10381.042   -822.32748     102002.7      46.7237      46.7237      46.7237 
   42000    91.202215   -11201.505   -10342.439    -935.6722     102002.7      46.7237      46.7237      46.7237 
   43000    89.510971   -11201.077   -10357.941    -522.8318     102002.7      46.7237      46.7237      46.7237 
   44000    90.123454   -11214.881   -10365.976   -727.46767     102002.7      46.7237      46.7237      46.7237 
   45000    89.822869   -11212.405   -10366.331   -617.66829     102002.7      46.7237      46.7237      46.7237 
   46000    90.830757   -11212.456   -10356.888   -548.04599     102002.7      46.7237      46.7237      46.7237 
   47000    92.795184   -11200.764   -10326.692   -594.85874     102002.7      46.7237      46.7237      46.7237 
   48000    92.003619    -11204.21   -10337.595   -648.97268     102002.7      46.7237      46.7237      46.7237 
   49000    87.945107   -11204.915   -10376.529   -524.48339     102002.7      46.7237      46.7237      46.7237 
   50000    91.183884   -11213.596   -10354.702   -691.79616     102002.7      46.7237      46.7237      46.7237 
   51000    92.379904   -11198.932   -10328.773   -741.26508     102002.7      46.7237      46.7237      46.7237 
   52000    87.039635   -11189.628    -10369.77   -650.26266     102002.7      46.7237      46.7237      46.7237 
   53000     92.80461   -11213.413   -10339.253   -816.67299     102002.7      46.7237      46.7237      46.7237 
   54000    92.610471   -11201.368   -10329.036   -638.25435     102002.7      46.7237      46.7237      46.7237 
   55000    91.215757   -11211.951   -10352.757   -535.44077     102002.7      46.7237      46.7237      46.7237 
   56000    91.716452   -11216.759   -10352.848   -928.63886     102002.7      46.7237      46.7237      46.7237 
   57000    92.432751   -11212.022   -10341.364   -370.09382     102002.7      46.7237      46.7237      46.7237 
   58000    92.750254    -11225.63   -10351.982   -864.23873     102002.7      46.7237      46.7237      46.7237 
   59000    89.855829   -11190.836   -10344.451   -920.25584     102002.7      46.7237      46.7237      46.7237 
   60000    93.711162   -11202.136   -10319.436   -788.87888     102002.7      46.7237      46.7237      46.7237 
   61000    89.763328   -11210.371   -10364.858   -836.55539     102002.7      46.7237      46.7237      46.7237 
   62000    91.935105   -11219.056   -10353.086   -740.54045     102002.7      46.7237      46.7237      46.7237 
   63000     90.37126   -11222.102   -10370.862   -726.51495     102002.7      46.7237      46.7237      46.7237 
   64000    90.506661   -11212.168   -10359.653    -706.5624     102002.7      46.7237      46.7237      46.7237 
   65000    92.125857    -11198.98   -10331.213    -672.8578     102002.7      46.7237      46.7237      46.7237 
   66000     93.02566   -11188.213   -10311.971   -679.21294     102002.7      46.7237      46.7237      46.7237 
   67000    90.323167    -11189.21   -10338.423    -628.0221     102002.7      46.7237      46.7237      46.7237 
   68000    92.122437   -11213.859   -10346.125   -611.94573     102002.7      46.7237      46.7237      46.7237 
   69000    90.888596   -11202.645   -10346.533   -923.83863     102002.7      46.7237      46.7237      46.7237 
   70000    91.970904   -11217.883   -10351.576   -777.19641     102002.7      46.7237      46.7237      46.7237 
   71000    89.269388   -11212.376   -10371.516   -545.05925     102002.7      46.7237      46.7237      46.7237 
   72000    90.908201   -11222.613   -10366.316   -536.27147     102002.7      46.7237      46.7237      46.7237 
   73000    91.128248   -11211.339    -10352.97   -740.01886     102002.7      46.7237      46.7237      46.7237 
   74000    89.909818   -11214.617   -10367.724   -720.06858     102002.7      46.7237      46.7237      46.7237 
   75000    90.375071   -11193.996   -10342.721   -651.11473     102002.7      46.7237      46.7237      46.7237 
   76000     88.99942   -11206.718   -10368.401    -537.6255     102002.7      46.7237      46.7237      46.7237 
   77000    92.205417    -11211.59   -10343.074   -612.84089     102002.7      46.7237      46.7237      46.7237 
   78000    94.688468   -11203.076   -10311.171   -702.59451     102002.7      46.7237      46.7237      46.7237 
   79000    89.062365   -11202.925   -10364.015   -994.31676     102002.7      46.7237      46.7237      46.7237 
   80000    91.217889   -11199.534   -10340.319   -892.67372     102002.7      46.7237      46.7237      46.7237 
   81000    86.559116   -11208.875   -10393.544   -712.70256     102002.7      46.7237      46.7237      46.7237 
   82000    90.586514   -11246.619   -10393.352   -1063.5812     102002.7      46.7237      46.7237      46.7237 
   83000      87.1327   -11222.998   -10402.264   -549.40559     102002.7      46.7237      46.7237      46.7237 
   84000    93.005355   -11206.465   -10330.414   -758.85179     102002.7      46.7237      46.7237      46.7237 
   85000    89.673912   -11203.139   -10358.468   -983.95601     102002.7      46.7237      46.7237      46.7237 
   86000    87.512738   -11215.128   -10390.815   -792.86194     102002.7      46.7237      46.7237      46.7237 
   87000    91.666061   -11219.668   -10356.232   -455.39324     102002.7      46.7237      46.7237      46.7237 
   88000    89.015425   -11212.109    -10373.64   -753.63544     102002.7      46.7237      46.7237      46.7237 
   89000    91.145128   -11205.191   -10346.662   -904.38026     102002.7      46.7237      46.7237      46.7237 
   90000    92.473973   -11210.465   -10339.419   -582.23688     102002.7      46.7237      46.7237      46.7237 
   91000    92.689618    -11207.92   -10334.843   -754.86595     102002.7      46.7237      46.7237      46.7237 
   92000    93.124419   -11209.371   -10332.199   -792.22047     102002.7      46.7237      46.7237      46.7237 
   93000    91.492642   -11196.343   -10334.541   -832.07083     102002.7      46.7237      46.7237      46.7237 
   94000    90.944564   -11206.706   -10350.067   -862.93797     102002.7      46.7237      46.7237      46.7237 
   95000    93.583632   -11190.016   -10308.518   -563.89875     102002.7      46.7237      46.7237      46.7237 
   96000    92.146555   -11200.816   -10332.854   -530.66629     102002.7      46.7237      46.7237      46.7237 
   97000     90.45863   -11216.328   -10364.265   -694.77472     102002.7      46.7237      46.7237      46.7237 
   98000    89.238909   -11214.088   -10373.515   -369.22945     102002.7      46.7237      46.7237      46.7237 
   99000    91.229112   -11200.037   -10340.717    -830.9239     102002.7      46.7237      46.7237      46.7237 
  100000    90.145357   -11212.097   -10362.986   -820.57814     102002.7      46.7237      46.7237      46.7237 
  101000    89.134394   -11223.392   -10383.803   -806.20798     102002.7      46.7237      46.7237      46.7237 
  102000    88.956713   -11208.242   -10370.327   -804.07665     102002.7      46.7237      46.7237      46.7237 
  103000     92.20194   -11196.937   -10328.454   -571.86128     102002.7      46.7237      46.7237      46.7237 
  104000    91.379133   -11232.495   -10371.762    -922.2918     102002.7      46.7237      46.7237      46.7237 
  105000    90.336205   -11206.813   -10355.903   -585.81871     102002.7      46.7237      46.7237      46.7237 
  106000     92.37229   -11239.207   -10369.119   -762.19718     102002.7      46.7237      46.7237      46.7237 
  107000    91.139169   -11202.652   -10344.179   -573.95102     102002.7      46.7237      46.7237      46.7237 
  108000    90.597173   -11205.394   -10352.027   -659.70613     102002.7      46.7237      46.7237      46.7237 
  109000    92.955509   -11196.446   -10320.865   -820.26965     102002.7      46.7237      46.7237      46.7237 
  110000    90.335788   -11198.775    -10347.87   -434.33091     102002.7      46.7237      46.7237      46.7237 
  111000    92.544512   -11212.939   -10341.229    -555.5259     102002.7      46.7237      46.7237      46.7237 
  112000    92.229647   -11211.076   -10342.332   -971.35269     102002.7      46.7237      46.7237      46.7237 
  113000    92.377326   -11204.048   -10333.913   -892.23204     102002.7      46.7237      46.7237      46.7237 
  114000    91.037802   -11189.049   -10331.531   -503.54709     102002.7      46.7237      46.7237      46.7237 
  115000    89.841804    -11220.74   -10374.488   -711.25628     102002.7      46.7237      46.7237      46.7237 
  116000    90.238163   -11220.811   -10370.825   -721.44762     102002.7      46.7237      46.7237      46.7237 
  117000    92.677899    -11203.07   -10330.104   -477.05117     102002.7      46.7237      46.7237      46.7237 
  118000    91.503555   -11203.347   -10341.442   -651.53045     102002.7      46.7237      46.7237      46.7237 
  119000    90.864493   -11210.291   -10354.406   -537.16572     102002.7      46.7237      46.7237      46.7237 
  120000    90.080692   -11237.736   -10389.233   -536.67675     102002.7      46.7237      46.7237      46.7237 
  121000    91.179308   -11217.641    -10358.79   -654.61445     102002.7      46.7237      46.7237      46.7237 
  122000    90.973234   -11204.385   -10347.475   -686.16564     102002.7      46.7237      46.7237      46.7237 
  123000     88.82756   -11219.542   -10382.843   -995.37468     102002.7      46.7237      46.7237      46.7237 
  124000    91.816482   -11215.696   -10350.844   -800.51318     102002.7      46.7237      46.7237      46.7237 
  125000    88.896398   -11201.969   -10364.622   -907.49509     102002.7      46.7237      46.7237      46.7237 
  126000    91.647821   -11195.314   -10332.051   -793.45197     102002.7      46.7237      46.7237      46.7237 
  127000    89.835005   -11203.165   -10356.977   -698.99675     102002.7      46.7237      46.7237      46.7237 
  128000    91.840742   -11194.434   -10329.353   -798.11598     102002.7      46.7237      46.7237      46.7237 
  129000    91.881504   -11223.275    -10357.81   -755.89468     102002.7      46.7237      46.7237      46.7237 
  130000     90.69172   -11181.505   -10327.247   -582.69442     102002.7      46.7237      46.7237      46.7237 
  131000    90.766979   -11203.367     -10348.4   -654.25358     102002.7      46.7237      46.7237      46.7237 
  132000    89.434714    -11197.73   -10355.312   -598.27595     102002.7      46.7237      46.7237      46.7237 
  133000    91.142939   -11207.526   -10349.018   -475.72404     102002.7      46.7237      46.7237      46.7237 
  134000     88.25519   -11220.038   -10388.731   -877.84497     102002.7      46.7237      46.7237      46.7237 
  135000    90.963515   -11215.186   -10358.368   -946.71085     102002.7      46.7237      46.7237      46.7237 
  136000    90.996924   -11208.452   -10351.319   -784.80909     102002.7      46.7237      46.7237      46.7237 
  137000    91.262259   -11190.568   -10330.936   -1049.7277     102002.7      46.7237      46.7237      46.7237 
  138000    89.672635   -11191.226   -10346.567   -560.75951     102002.7      46.7237      46.7237      46.7237 
  139000    90.758912   -11210.955   -10356.065   -696.65085     102002.7      46.7237      46.7237      46.7237 
  140000    91.722514   -11215.527    -10351.56   -691.91138     102002.7      46.7237      46.7237      46.7237 
  141000    94.339285   -11210.835   -10322.219   -800.11557     102002.7      46.7237      46.7237      46.7237 
  142000    90.578899   -11215.542   -10362.347   -677.26413     102002.7      46.7237      46.7237      46.7237 
  143000    90.582405   -11220.704   -10367.476   -655.60706     102002.7      46.7237      46.7237      46.7237 
  144000    89.872591   -11222.983   -10376.441   -730.78462     102002.7      46.7237      46.7237      46.7237 
  145000    90.163441   -11219.733   -10370.451    -512.5682     102002.7      46.7237      46.7237      46.7237 
  146000    89.988149   -11199.072   -10351.441   -599.10871     102002.7      46.7237      46.7237      46.7237 
  147000    92.390199   -11231.775   -10361.518   -935.58629     102002.7      46.7237      46.7237      46.7237 
  148000    91.700643    -11234.82   -10371.059   -747.89647     102002.7      46.7237      46.7237      46.7237 
  149000    91.922905   -11215.749   -10349.894   -980.71186     102002.7      46.7237      46.7237      46.7237 
  150000    90.196358    -11212.45   -10362.858   -990.37872     102002.7      46.7237      46.7237      46.7237 
  151000    89.259122    -11232.44   -10391.676   -795.20108     102002.7      46.7237      46.7237      46.7237 
  152000    90.676184   -11206.794   -10352.682   -1110.8216     102002.7      46.7237      46.7237      46.7237 
  153000    90.631414   -11205.426   -10351.736   -704.77751     102002.7      46.7237      46.7237      46.7237 
  154000    88.971042   -11222.081    -10384.03   -693.02738     102002.7      46.7237      46.7237      46.7237 
  155000    91.647836   -11205.339   -10342.075   -856.75939     102002.7      46.7237      46.7237      46.7237 
  156000    91.529835   -11199.638   -10337.486   -881.60429     102002.7      46.7237      46.7237      46.7237 
  157000    91.142757    -11227.15   -10368.643   -987.27348     102002.7      46.7237      46.7237      46.7237 
  158000    91.560382   -11221.897   -10359.457    -873.0219     102002.7      46.7237      46.7237      46.7237 
  159000     89.30931   -11214.525   -10373.289   -924.32554     102002.7      46.7237      46.7237      46.7237 
  160000     89.73771   -11207.876   -10362.604   -782.06379     102002.7      46.7237      46.7237      46.7237 
  161000    89.603617   -11190.577   -10346.568   -1053.1444     102002.7      46.7237      46.7237      46.7237 
  162000    88.399344   -11204.969   -10372.304   -603.79603     102002.7      46.7237      46.7237      46.7237 
  163000    91.436554   -11166.053   -10304.779   -551.69442     102002.7      46.7237      46.7237      46.7237 
  164000    90.518987   -11221.844   -10369.213   -618.06743     102002.7      46.7237      46.7237      46.7237 
  165000     88.54781    -11224.66   -10390.596   -883.06225     102002.7      46.7237      46.7237      46.7237 
  166000    91.496575   -11210.985   -10349.146   -1262.5328     102002.7      46.7237      46.7237      46.7237 
  167000    90.067706   -11207.781   -10359.401   -642.08513     102002.7      46.7237      46.7237      46.7237 
  168000    91.242144   -11205.269   -10345.827   -1028.4145     102002.7      46.7237      46.7237      46.7237 
  169000    90.679507    -11209.32   -10355.177   -1033.2958     102002.7      46.7237      46.7237      46.7237 
  170000    90.726666   -11216.501   -10361.914   -935.79674     102002.7      46.7237      46.7237      46.7237 
  171000    91.402139   -11211.271   -10350.321   -954.11807     102002.7      46.7237      46.7237      46.7237 
  172000    92.409858   -11221.474   -10351.032   -502.11209     102002.7      46.7237      46.7237      46.7237 
  173000    88.375505   -11211.106   -10378.666   -632.69454     102002.7      46.7237      46.7237      46.7237 
  174000    92.647536   -11212.765   -10340.085   -657.59088     102002.7      46.7237      46.7237      46.7237 
  175000    93.934018   -11207.809   -10323.011   -613.30019     102002.7      46.7237      46.7237      46.7237 
  176000    92.619003   -11197.475   -10325.063   -907.22007     102002.7      46.7237      46.7237      46.7237 
  177000    91.123497   -11203.569   -10345.244   -441.49955     102002.7      46.7237      46.7237      46.7237 
  178000     91.07989   -11224.253   -10366.339    -864.2518     102002.7      46.7237      46.7237      46.7237 
  179000    89.646639   -11203.118   -10358.704   -1221.4231     102002.7      46.7237      46.7237      46.7237 
  180000    93.179394   -11204.798   -10327.108   -672.97875     102002.7      46.7237      46.7237      46.7237 
  181000    92.358767    -11201.77    -10331.81   -877.42673     102002.7      46.7237      46.7237      46.7237 
  182000    90.599869   -11215.699   -10362.307   -713.36056     102002.7      46.7237      46.7237      46.7237 
  183000    89.696087   -11210.499    -10365.62   -804.32357     102002.7      46.7237      46.7237      46.7237 
  184000    90.810838   -11211.514   -10356.134   -743.94229     102002.7      46.7237      46.7237      46.7237 
  185000       93.228   -11204.023   -10325.875   -660.04277     102002.7      46.7237      46.7237      46.7237 
  186000    91.271239   -11229.906   -10370.189    -845.4475     102002.7      46.7237      46.7237      46.7237 
  187000    88.508397   -11208.954   -10375.261   -514.57521     102002.7      46.7237      46.7237      46.7237 
  188000    91.145773   -11211.369   -10352.835   -555.64337     102002.7      46.7237      46.7237      46.7237 
  189000    92.440863   -11210.023   -10339.289   -889.29815     102002.7      46.7237      46.7237      46.7237 
  190000    92.513511   -11211.969   -10340.551   -579.29719     102002.7      46.7237      46.7237      46.7237 
  191000    88.749243   -11202.115   -10366.154   -564.01715     102002.7      46.7237      46.7237      46.7237 
  192000    88.053288   -11208.571   -10379.166    -598.8408     102002.7      46.7237      46.7237      46.7237 
  193000    91.887947   -11200.158   -10334.633   -605.72566     102002.7      46.7237      46.7237      46.7237 
  194000    89.119186   -11215.499   -10376.054   -685.60007     102002.7      46.7237      46.7237      46.7237 
  195000    92.922255    -11201.39   -10326.122    -858.4865     102002.7      46.7237      46.7237      46.7237 
  196000     91.90593   -11205.907   -10340.212   -770.74986     102002.7      46.7237      46.7237      46.7237 
  197000    90.439271   -11218.741   -10366.861   -899.76325     102002.7      46.7237      46.7237      46.7237 
  198000    91.289785   -11207.694   -10347.803   -831.21663     102002.7      46.7237      46.7237      46.7237 
  199000     91.11354   -11212.272   -10354.041   -564.90149     102002.7      46.7237      46.7237      46.7237 
  200000    92.843995   -11215.346   -10340.815   -873.83563     102002.7      46.7237      46.7237      46.7237 
  201000    90.030976   -11205.815   -10357.781   -936.92809     102002.7      46.7237      46.7237      46.7237 
  202000    89.713301   -11200.484   -10355.442   -571.22458     102002.7      46.7237      46.7237      46.7237 
  203000    92.480359   -11208.982   -10337.876   -881.34594     102002.7      46.7237      46.7237      46.7237 
  204000    90.805483   -11225.184   -10369.855   -733.86982     102002.7      46.7237      46.7237      46.7237 
  205000    91.554594   -11218.917   -10356.532   -931.28847     102002.7      46.7237      46.7237      46.7237 
  206000    92.313302   -11222.898   -10353.366   -780.47748     102002.7      46.7237      46.7237      46.7237 
  207000    91.129577   -11189.492    -10331.11   -613.39529     102002.7      46.7237      46.7237      46.7237 
  208000    92.542862   -11200.784    -10329.09   -749.20963     102002.7      46.7237      46.7237      46.7237 
  209000      90.8929   -11201.861   -10345.708    -485.1931     102002.7      46.7237      46.7237      46.7237 
  210000    90.407158   -11221.912   -10370.334   -764.23798     102002.7      46.7237      46.7237      46.7237 
  211000    90.216719   -11229.515   -10379.731   -699.61974     102002.7      46.7237      46.7237      46.7237 
  212000    91.620461   -11233.207   -10370.201   -329.60365     102002.7      46.7237      46.7237      46.7237 
  213000     91.91213   -11212.208   -10346.454   -592.09035     102002.7      46.7237      46.7237      46.7237 
  214000    89.658602   -11220.603   -10376.077     -578.211     102002.7      46.7237      46.7237      46.7237 
  215000    91.580974   -11217.145   -10354.511   -564.05731     102002.7      46.7237      46.7237      46.7237 
  216000    90.753499   -11210.732   -10355.892   -628.33551     102002.7      46.7237      46.7237      46.7237 
  217000    93.536289   -11187.724   -10306.672   -895.54467     102002.7      46.7237      46.7237      46.7237 
  218000    89.632849   -11208.015   -10363.731   -706.54072     102002.7      46.7237      46.7237      46.7237 
  219000    91.130395   -11201.582   -10343.192   -712.00571     102002.7      46.7237      46.7237      46.7237 
  220000    91.016636   -11219.232   -10361.913   -715.11181     102002.7      46.7237      46.7237      46.7237 
  221000    89.938344   -11207.566   -10360.405   -594.44031     102002.7      46.7237      46.7237      46.7237 
  222000    91.216103   -11209.835   -10350.638    -900.0736     102002.7      46.7237      46.7237      46.7237 
  223000    90.366697   -11210.184   -10358.988   -686.47087     102002.7      46.7237      46.7237      46.7237 
  224000    90.217551     -11209.2   -10359.408   -842.87988     102002.7      46.7237      46.7237      46.7237 
  225000    90.624387   -11207.857   -10354.233     -743.554     102002.7      46.7237      46.7237      46.7237 
  226000    89.893371    -11218.06   -10371.322   -673.57086     102002.7      46.7237      46.7237      46.7237 
  227000    89.422336   -11220.782   -10378.481   -993.88318     102002.7      46.7237      46.7237      46.7237 
  228000    92.615785   -11206.111    -10333.73   -833.58861     102002.7      46.7237      46.7237      46.7237 
  229000    91.700819   -11220.794   -10357.031   -723.28669     102002.7      46.7237      46.7237      46.7237 
  230000    89.547442   -11194.104   -10350.625   -697.88921     102002.7      46.7237      46.7237      46.7237 
  231000    93.628329   -11210.069    -10328.15   -800.03594     102002.7      46.7237      46.7237      46.7237 
  232000    90.601714   -11212.696   -10359.286   -474.27175     102002.7      46.7237      46.7237      46.7237 
  233000    92.908534   -11220.861   -10345.722   -679.46361     102002.7      46.7237      46.7237      46.7237 
  234000     90.52036   -11206.371   -10353.727   -827.40659     102002.7      46.7237      46.7237      46.7237 
  235000    91.400406   -11210.047   -10349.113   -618.92918     102002.7      46.7237      46.7237      46.7237 
  236000    90.962011    -11208.01   -10351.206   -573.72586     102002.7      46.7237      46.7237      46.7237 
  237000    90.901744   -11198.299   -10342.063   -598.49028     102002.7      46.7237      46.7237      46.7237 
  238000    91.060582   -11226.369   -10368.636   -910.16261     102002.7      46.7237      46.7237      46.7237 
  239000    88.643235   -11215.691   -10380.728   -719.41025     102002.7      46.7237      46.7237      46.7237 
  240000    89.743215   -11197.145   -10351.821   -758.60991     102002.7      46.7237      46.7237      46.7237 
  241000     90.75265   -11213.234   -10358.402   -646.27937     102002.7      46.7237      46.7237      46.7237 
  242000    89.431582   -11214.338    -10371.95   -728.20676     102002.7      46.7237      46.7237      46.7237 
  243000     92.26125   -11190.088   -10321.046   -629.75158     102002.7      46.7237      46.7237      46.7237 
  244000    91.867907   -11215.136   -10349.799   -635.18473     102002.7      46.7237      46.7237      46.7237 
  245000     90.97889    -11231.39   -10374.427   -739.20664     102002.7      46.7237      46.7237      46.7237 
  246000    91.425606   -11211.653   -10350.482   -653.30648     102002.7      46.7237      46.7237      46.7237 
  247000    93.069398   -11215.256   -10338.602   -856.91774     102002.7      46.7237      46.7237      46.7237 
  248000    90.629543   -11224.629   -10370.957   -668.09765     102002.7      46.7237      46.7237      46.7237 
  249000    93.962487   -11196.205   -10311.139   -664.99302     102002.7      46.7237      46.7237      46.7237 
  250000    91.900645   -11201.425   -10335.779   -774.23485     102002.7      46.7237      46.7237      46.7237 
  251000    91.930701    -11222.68   -10356.752   -698.23856     102002.7      46.7237      46.7237      46.7237 
  252000    92.036926   -11237.709    -10370.78     -993.406     102002.7      46.7237      46.7237      46.7237 
  253000    89.232932   -11200.775   -10360.257   -799.86682     102002.7      46.7237      46.7237      46.7237 
  254000    91.584773   -11203.679   -10341.009   -1102.7584     102002.7      46.7237      46.7237      46.7237 
  255000    91.059115   -11213.948   -10356.229   -964.10692     102002.7      46.7237      46.7237      46.7237 
  256000    89.192537   -11217.395   -10377.258   -655.47517     102002.7      46.7237      46.7237      46.7237 
  257000    89.699581   -11190.557   -10345.645   -1049.4712     102002.7      46.7237      46.7237      46.7237 
  258000    89.189424   -11224.629   -10384.522   -600.54822     102002.7      46.7237      46.7237      46.7237 
  259000     92.56734   -11238.667   -10366.742   -619.75206     102002.7      46.7237      46.7237      46.7237 
  260000    91.714043   -11202.605   -10338.718   -726.82242     102002.7      46.7237      46.7237      46.7237 
  261000    90.136143   -11247.187   -10398.162   -939.24074     102002.7      46.7237      46.7237      46.7237 
  262000    90.321304   -11231.749    -10380.98   -752.46421     102002.7      46.7237      46.7237      46.7237 
  263000    90.591768    -11211.99   -10358.673    -755.0089     102002.7      46.7237      46.7237      46.7237 
  264000    89.094023   -11234.839   -10395.631   -678.05175     102002.7      46.7237      46.7237      46.7237 
  265000    90.729274   -11185.863   -10331.251   -762.96015     102002.7      46.7237      46.7237      46.7237 
  266000    89.588853   -11224.916   -10381.047   -630.99141     102002.7      46.7237      46.7237      46.7237 
  267000    90.199481    -11188.06   -10338.438    -619.5103     102002.7      46.7237      46.7237      46.7237 
  268000    92.631394   -11213.893   -10341.365   -936.37879     102002.7      46.7237      46.7237      46.7237 
  269000    90.529767   -11225.114   -10372.382   -1005.9042     102002.7      46.7237      46.7237      46.7237 
  270000    90.130484     -11227.7   -10378.729   -674.61672     102002.7      46.7237      46.7237      46.7237 
  271000    92.483999   -11222.614   -10351.474    -683.6487     102002.7      46.7237      46.7237      46.7237 
  272000    89.590826   -11205.986   -10362.098   -682.53091     102002.7      46.7237      46.7237      46.7237 
  273000     93.04819   -11235.362   -10358.908   -640.27506     102002.7      46.7237      46.7237      46.7237 
  274000    91.467373   -11220.914    -10359.35   -938.71548     102002.7      46.7237      46.7237      46.7237 
  275000    88.791013   -11214.896   -10378.541   -827.93512     102002.7      46.7237      46.7237      46.7237 
  276000    91.639446   -11197.853   -10334.668   -675.49577     102002.7      46.7237      46.7237      46.7237 
  277000    91.536506   -11188.826   -10326.611   -796.06848     102002.7      46.7237      46.7237      46.7237 
  278000    91.351982   -11216.577     -10356.1   -704.47563     102002.7      46.7237      46.7237      46.7237 
  279000    92.329534   -11216.903   -10347.218   -789.44805     102002.7      46.7237      46.7237      46.7237 
  280000    92.962041   -11217.523    -10341.88   -606.13032     102002.7      46.7237      46.7237      46.7237 
  281000    91.462646   -11210.794   -10349.275   -604.44458     102002.7      46.7237      46.7237      46.7237 
  282000    91.996909   -11204.152     -10337.6   -728.29556     102002.7      46.7237      46.7237      46.7237 
  283000    93.040965   -11182.052   -10305.665   -603.60942     102002.7      46.7237      46.7237      46.7237 
  284000     92.80935   -11209.426   -10335.221   -655.80813     102002.7      46.7237      46.7237      46.7237 
  285000    89.814967   -11220.598   -10374.599   -905.48571     102002.7      46.7237      46.7237      46.7237 
  286000    91.323889   -11204.174   -10343.961   -893.07439     102002.7      46.7237      46.7237      46.7237 
  287000    92.654325   -11188.827   -10316.082   -906.52397     102002.7      46.7237      46.7237      46.7237 
  288000     89.86853   -11206.553   -10360.049   -760.18858     102002.7      46.7237      46.7237      46.7237 
  289000    90.049012   -11211.812   -10363.608   -762.67294     102002.7      46.7237      46.7237      46.7237 
  290000     88.58817   -11213.169   -10378.725   -882.54319     102002.7      46.7237      46.7237      46.7237 
  291000    92.174722   -11231.337    -10363.11    -863.4753     102002.7      46.7237      46.7237      46.7237 
  292000    91.555575   -11225.922   -10363.527   -612.79272     102002.7      46.7237      46.7237      46.7237 
  293000     90.34908   -11174.707   -10323.676   -658.65842     102002.7      46.7237      46.7237      46.7237 
  294000    90.084224   -11220.992   -10372.457   -775.85553     102002.7      46.7237      46.7237      46.7237 
  295000    93.418003   -11205.693   -10325.755   -794.05201     102002.7      46.7237      46.7237      46.7237 
  296000    93.739386   -11196.509   -10313.544   -561.52547     102002.7      46.7237      46.7237      46.7237 
  297000    90.470095   -11213.212   -10361.042   -617.23165     102002.7      46.7237      46.7237      46.7237 
  298000    92.141748   -11220.633   -10352.717   -814.03952     102002.7      46.7237      46.7237      46.7237 
  299000    89.765662   -11212.116   -10366.581   -961.57124     102002.7      46.7237      46.7237      46.7237 
  300000    92.593084   -11219.992   -10347.824   -838.74916     102002.7      46.7237      46.7237      46.7237 
  301000    89.389588   -11204.859   -10362.867   -774.83633     102002.7      46.7237      46.7237      46.7237 
  302000    90.106324   -11217.968   -10369.224   -817.23314     102002.7      46.7237      46.7237      46.7237 
  303000    91.723399   -11186.884   -10322.908    -897.0573     102002.7      46.7237      46.7237      46.7237 
  304000    90.931682   -11195.219   -10338.701   -751.91734     102002.7      46.7237      46.7237      46.7237 
  305000    91.007585   -11228.704    -10371.47   -802.37527     102002.7      46.7237      46.7237      46.7237 
  306000    91.292142   -11212.282   -10352.369    -783.4018     102002.7      46.7237      46.7237      46.7237 
  307000    90.749603   -11196.255   -10341.452    -947.4232     102002.7      46.7237      46.7237      46.7237 
  308000    90.537331   -11262.394   -10409.591   -827.94448     102002.7      46.7237      46.7237      46.7237 
  309000    90.461215   -11208.078   -10355.991   -939.64255     102002.7      46.7237      46.7237      46.7237 
  310000    90.912272    -11203.29   -10346.954   -640.81689     102002.7      46.7237      46.7237      46.7237 
  311000    92.074174   -11194.839   -10327.559   -558.20823     102002.7      46.7237      46.7237      46.7237 
  312000    93.428551   -11214.318   -10334.281   -622.77401     102002.7      46.7237      46.7237      46.7237 
  313000    93.889331   -11195.185   -10310.808   -314.54909     102002.7      46.7237      46.7237      46.7237 
  314000    90.431159   -11216.229   -10364.425   -806.86645     102002.7      46.7237      46.7237      46.7237 
  315000    93.113564   -11193.271   -10316.201   -675.02468     102002.7      46.7237      46.7237      46.7237 
  316000    89.381935     -11209.6    -10367.68   -576.87352     102002.7      46.7237      46.7237      46.7237 
  317000    91.334992   -11196.167    -10335.85   -609.25567     102002.7      46.7237      46.7237      46.7237 
  318000    91.762891   -11227.035   -10362.688   -832.27095     102002.7      46.7237      46.7237      46.7237 
  319000     89.82233   -11194.104   -10348.035   -974.04936     102002.7      46.7237      46.7237      46.7237 
  320000     92.96898   -11213.595   -10337.887   -967.20945     102002.7      46.7237      46.7237      46.7237 
  321000    91.456383   -11219.143   -10357.683   -746.09159     102002.7      46.7237      46.7237      46.7237 
  322000    88.804623   -11214.517   -10378.034   -1083.5383     102002.7      46.7237      46.7237      46.7237 
  323000     90.55156   -11219.204   -10366.266   -759.02412     102002.7      46.7237      46.7237      46.7237 
  324000     92.75804   -11199.312   -10325.591     -805.564     102002.7      46.7237      46.7237      46.7237 
  325000    91.052825   -11218.183   -10360.524   -617.65959     102002.7      46.7237      46.7237      46.7237 
  326000    92.444684   -11229.578   -10358.808   -679.19747     102002.7      46.7237      46.7237      46.7237 
  327000     87.81582   -11205.613   -10378.444    -827.2903     102002.7      46.7237      46.7237      46.7237 
  328000    89.923397   -11189.544   -10342.523   -711.40986     102002.7      46.7237      46.7237      46.7237 
  329000    93.529909   -11214.726   -10333.734   -1026.0098     102002.7      46.7237      46.7237      46.7237 
  330000    94.817475   -11199.378   -10306.258   -548.68965     102002.7      46.7237      46.7237      46.7237 
  331000    92.767604   -11202.947   -10329.135   -989.66602     102002.7      46.7237      46.7237      46.7237 
  332000    91.424364   -11225.911   -10364.753   -879.75122     102002.7      46.7237      46.7237      46.7237 
  333000    91.147829   -11229.164    -10370.61   -1071.6916     102002.7      46.7237      46.7237      46.7237 
  334000    90.673796   -11196.386   -10342.297   -903.10884     102002.7      46.7237      46.7237      46.7237 
  335000    92.515549   -11210.591   -10339.154   -856.14905     102002.7      46.7237      46.7237      46.7237 
  336000    89.596722    -11230.82   -10386.876   -555.62389     102002.7      46.7237      46.7237      46.7237 
  337000    91.766577   -11210.007   -10345.625   -653.45985     102002.7      46.7237      46.7237      46.7237 
  338000    90.915841   -11210.189    -10353.82   -804.74171     102002.7      46.7237      46.7237      46.7237 
  339000    90.825218    -11212.09   -10356.574   -1031.1339     102002.7      46.7237      46.7237      46.7237 
  340000    91.825423   -11210.111   -10345.174   -881.76462     102002.7      46.7237      46.7237      46.7237 
  341000    92.343021   -11200.146   -10330.334   -710.05885     102002.7      46.7237      46.7237      46.7237 
  342000    91.047341    -11220.72   -10363.113   -658.29133     102002.7      46.7237      46.7237      46.7237 
  343000    91.754389   -11206.491   -10342.223    -634.8884     102002.7      46.7237      46.7237      46.7237 
  344000    91.182773   -11219.402   -10360.519   -573.87302     102002.7      46.7237      46.7237      46.7237 
  345000    87.866026   -11194.159   -10366.517   -738.54437     102002.7      46.7237      46.7237      46.7237 
  346000    89.703995   -11197.097   -10352.143   -649.63871     102002.7      46.7237      46.7237      46.7237 
  347000    89.032497   -11221.337   -10382.708   -676.21214     102002.7      46.7237      46.7237      46.7237 
  348000     90.86502   -11223.996   -10368.106   -822.11737     102002.7      46.7237      46.7237      46.7237 
  349000    91.676291   -11188.545   -10325.013   -776.62047     102002.7      46.7237      46.7237      46.7237 
  350000    89.815084   -11211.318   -10365.317   -675.95102     102002.7      46.7237      46.7237      46.7237 
  351000    90.036628    -11238.16   -10390.073   -969.13824     102002.7      46.7237      46.7237      46.7237 
  352000     90.15734   -11210.497   -10361.272   -798.08023     102002.7      46.7237      46.7237      46.7237 
  353000    91.227934   -11190.861   -10331.553   -736.91752     102002.7      46.7237      46.7237      46.7237 
  354000    90.687557   -11187.915   -10333.697   -761.16767     102002.7      46.7237      46.7237      46.7237 
  355000    90.190042   -11227.045   -10377.512   -448.65209     102002.7      46.7237      46.7237      46.7237 
  356000    94.045444   -11214.907   -10329.059   -835.86954     102002.7      46.7237      46.7237      46.7237 
  357000    93.327698   -11240.303   -10361.216   -781.19284     102002.7      46.7237      46.7237      46.7237 
  358000    89.281579   -11231.007   -10390.032   -945.46451     102002.7      46.7237      46.7237      46.7237 
  359000     91.93866   -11218.771   -10352.768   -851.91364     102002.7      46.7237      46.7237      46.7237 
  360000    91.346928   -11200.046   -10339.617   -718.97427     102002.7      46.7237      46.7237      46.7237 
  361000    89.338432   -11212.812   -10371.301   -781.24669     102002.7      46.7237      46.7237      46.7237 
  362000    91.481949   -11212.167   -10350.466   -775.88663     102002.7      46.7237      46.7237      46.7237 
  363000    92.502013     -11228.8   -10357.491   -694.60223     102002.7      46.7237      46.7237      46.7237 
  364000    90.577089   -11212.605   -10359.427   -729.20419     102002.7      46.7237      46.7237      46.7237 
  365000    92.087277   -11220.615   -10353.212   -669.60827     102002.7      46.7237      46.7237      46.7237 
  366000    90.368686    -11235.92   -10384.705   -629.21535     102002.7      46.7237      46.7237      46.7237 
  367000    90.973271   -11199.673   -10342.763   -660.10581     102002.7      46.7237      46.7237      46.7237 
  368000    91.736129   -11213.646    -10349.55   -651.88878     102002.7      46.7237      46.7237      46.7237 
  369000    89.651111   -11183.429   -10338.973   -542.05494     102002.7      46.7237      46.7237      46.7237 
  370000    91.435241   -11215.892    -10354.63   -780.69313     102002.7      46.7237      46.7237      46.7237 
  371000    89.783563   -11195.811   -10350.108   -1069.6358     102002.7      46.7237      46.7237      46.7237 
  372000     92.18147   -11204.677   -10336.387   -829.50851     102002.7      46.7237      46.7237      46.7237 
  373000    91.360736   -11230.431   -10369.872   -727.21399     102002.7      46.7237      46.7237      46.7237 
  374000     91.22996   -11210.834   -10351.506   -818.35131     102002.7      46.7237      46.7237      46.7237 
  375000    88.262689   -11204.977   -10373.599   -852.61437     102002.7      46.7237      46.7237      46.7237 
  376000    89.862212   -11185.778   -10339.334    -1081.392     102002.7      46.7237      46.7237      46.7237 
  377000    91.825271   -11184.867   -10319.932   -1062.3477     102002.7      46.7237      46.7237      46.7237 
  378000    90.109806   -11203.101   -10354.325   -671.01991     102002.7      46.7237      46.7237      46.7237 
  379000     90.35918   -11220.786   -10369.661   -777.20295     102002.7      46.7237      46.7237      46.7237 
  380000    90.609121   -11227.902   -10374.422   -821.18374     102002.7      46.7237      46.7237      46.7237 
  381000     92.23129   -11217.839   -10349.079   -886.04126     102002.7      46.7237      46.7237      46.7237 
  382000    91.028337   -11203.787   -10346.359    -788.5578     102002.7      46.7237      46.7237      46.7237 
  383000    89.845541   -11223.424   -10377.137   -1047.5661     102002.7      46.7237      46.7237      46.7237 
  384000    90.838701   -11217.132   -10361.489   -747.93325     102002.7      46.7237      46.7237      46.7237 
  385000    91.314269   -11206.823   -10346.701   -745.61813     102002.7      46.7237      46.7237      46.7237 
  386000    91.376537   -11212.364   -10351.656   -917.62011     102002.7      46.7237      46.7237      46.7237 
  387000    94.798245   -11212.803   -10319.864   -729.80505     102002.7      46.7237      46.7237      46.7237 
  388000    92.614893   -11208.775   -10336.402   -955.42993     102002.7      46.7237      46.7237      46.7237 
  389000    91.194081   -11202.616   -10343.626   -776.83332     102002.7      46.7237      46.7237      46.7237 
  390000    89.875796   -11192.914   -10346.342   -915.06403     102002.7      46.7237      46.7237      46.7237 
  391000    89.209046    -11220.77   -10380.478   -1071.6562     102002.7      46.7237      46.7237      46.7237 
  392000    89.584401   -11206.372   -10362.544   -865.11382     102002.7      46.7237      46.7237      46.7237 
  393000    90.927674   -11228.022   -10371.541   -1058.2976     102002.7      46.7237      46.7237      46.7237 
  394000    90.887615   -11197.098   -10340.995   -865.23072     102002.7      46.7237      46.7237      46.7237 
  395000    90.090245   -11209.425   -10360.832   -953.32439     102002.7      46.7237      46.7237      46.7237 
  396000    92.794778   -11209.264   -10335.196   -655.54625     102002.7      46.7237      46.7237      46.7237 
  397000    91.732607   -11205.666   -10341.603   -896.65007     102002.7      46.7237      46.7237      46.7237 
  398000    91.097963   -11202.466   -10344.382   -923.88378     102002.7      46.7237      46.7237      46.7237 
  399000    90.749335   -11227.382   -10372.581   -794.07009     102002.7      46.7237      46.7237      46.7237 
  400000    89.075417   -11204.597   -10365.564   -1038.8049     102002.7      46.7237      46.7237      46.7237 
  401000    89.381087   -11204.248   -10362.335     -800.282     102002.7      46.7237      46.7237      46.7237 
  402000    91.093256   -11208.515   -10350.475   -1092.2109     102002.7      46.7237      46.7237      46.7237 
  403000    90.626921   -11217.291   -10363.644   -955.88437     102002.7      46.7237      46.7237      46.7237 
  404000    90.114649   -11212.253   -10363.431   -1006.6329     102002.7      46.7237      46.7237      46.7237 
  405000    91.506657   -11210.885   -10348.951   -766.20062     102002.7      46.7237      46.7237      46.7237 
  406000    90.655307   -11204.923   -10351.008     -701.503     102002.7      46.7237      46.7237      46.7237 
  407000    92.034998   -11205.341    -10338.43    -726.5759     102002.7      46.7237      46.7237      46.7237 
  408000    90.369839   -11201.211   -10349.985   -839.03027     102002.7      46.7237      46.7237      46.7237 
  409000    89.704437   -11220.497   -10375.538   -662.70373     102002.7      46.7237      46.7237      46.7237 
  410000    93.395394   -11228.321   -10348.596   -866.27306     102002.7      46.7237      46.7237      46.7237 
  411000    90.065262   -11218.778   -10370.421   -843.08237     102002.7      46.7237      46.7237      46.7237 
  412000    88.882277   -11228.875   -10391.661   -805.08629     102002.7      46.7237      46.7237      46.7237 
  413000    90.524854   -11207.918   -10355.232   -923.53694     102002.7      46.7237      46.7237      46.7237 
  414000    94.074898   -11196.194   -10310.069   -786.10675     102002.7      46.7237      46.7237      46.7237 
  415000    93.007851   -11211.146   -10335.071   -846.36728     102002.7      46.7237      46.7237      46.7237 
  416000    90.267671   -11205.965   -10355.701    -596.3828     102002.7      46.7237      46.7237      46.7237 
  417000    92.270735   -11213.627   -10344.496   -710.47618     102002.7      46.7237      46.7237      46.7237 
  418000    90.920172   -11219.666   -10363.256   -982.69517     102002.7      46.7237      46.7237      46.7237 
  419000    91.356769   -11199.396   -10338.874   -729.31743     102002.7      46.7237      46.7237      46.7237 
  420000    91.434506   -11218.931   -10357.677     -921.263     102002.7      46.7237      46.7237      46.7237 
  421000    89.772744   -11218.801   -10373.199    -834.1769     102002.7      46.7237      46.7237      46.7237 
  422000    91.686303   -11195.916   -10332.289   -957.87004     102002.7      46.7237      46.7237      46.7237 
  423000     89.71243   -11185.466   -10340.432   -756.05691     102002.7      46.7237      46.7237      46.7237 
  424000    91.089268    -11207.62   -10349.618   -996.01544     102002.7      46.7237      46.7237      46.7237 
  425000    91.827819    -11223.71    -10358.75   -810.89887     102002.7      46.7237      46.7237      46.7237 
  426000    92.506311   -11177.856   -10306.506   -824.08318     102002.7      46.7237      46.7237      46.7237 
  427000    90.601931   -11212.836   -10359.424   -956.39069     102002.7      46.7237      46.7237      46.7237 
  428000    92.240324    -11213.18   -10344.335   -810.54735     102002.7      46.7237      46.7237      46.7237 
  429000    91.663967   -11183.256    -10319.84   -819.85389     102002.7      46.7237      46.7237      46.7237 
  430000    91.460098   -11195.323   -10333.827   -831.66466     102002.7      46.7237      46.7237      46.7237 
  431000    92.120716   -11197.696   -10329.978    -844.2451     102002.7      46.7237      46.7237      46.7237 
  432000    92.229651   -11213.344   -10344.599   -1087.3523     102002.7      46.7237      46.7237      46.7237 
  433000    91.371496   -11218.118   -10357.457   -833.96613     102002.7      46.7237      46.7237      46.7237 
  434000    93.581562    -11227.91   -10346.431    -892.7906     102002.7      46.7237      46.7237      46.7237 
  435000    91.337772   -11209.524   -10349.181   -923.38074     102002.7      46.7237      46.7237      46.7237 
  436000    90.688647   -11197.938   -10343.709   -560.49107     102002.7      46.7237      46.7237      46.7237 
  437000    93.832724   -11213.361   -10329.517   -795.97964     102002.7      46.7237      46.7237      46.7237 
  438000    91.682029   -11225.214   -10361.628   -938.00639     102002.7      46.7237      46.7237      46.7237 
  439000    92.325602   -11212.145   -10342.497   -721.55942     102002.7      46.7237      46.7237      46.7237 
  440000    91.142014   -11218.004   -10359.505   -658.81638     102002.7      46.7237      46.7237      46.7237 
  441000    91.225862   -11219.792   -10360.503   -796.79836     102002.7      46.7237      46.7237      46.7237 
  442000    89.416131   -11225.731   -10383.488    -849.1668     102002.7      46.7237      46.7237      46.7237 
  443000    91.994846   -11206.235   -10339.703   -730.25927     102002.7      46.7237      46.7237      46.7237 
  444000    88.129624   -11231.601   -10401.476   -893.53213     102002.7      46.7237      46.7237      46.7237 
  445000    90.661131   -11210.035   -10356.065   -623.37715     102002.7      46.7237      46.7237      46.7237 
  446000    90.006068   -11196.838   -10349.038   -739.54105     102002.7      46.7237      46.7237      46.7237 
  447000    93.168471   -11215.212   -10337.625   -706.97891     102002.7      46.7237      46.7237      46.7237 
  448000    90.462396   -11204.343   -10352.245   -682.03144     102002.7      46.7237      46.7237      46.7237 
  449000    90.720887   -11189.369   -10334.836   -777.75135     102002.7      46.7237      46.7237      46.7237 
  450000    92.102196   -11216.271   -10348.727   -832.18978     102002.7      46.7237      46.7237      46.7237 
  451000    91.157421   -11205.606   -10346.961    -672.0657     102002.7      46.7237      46.7237      46.7237 
  452000    90.644801   -11203.993   -10350.177    -580.3365     102002.7      46.7237      46.7237      46.7237 
  453000    92.550229   -11188.011   -10316.247   -513.70952     102002.7      46.7237      46.7237      46.7237 
  454000    90.501435   -11205.642   -10353.176   -597.54247     102002.7      46.7237      46.7237      46.7237 
  455000    90.239618   -11207.238   -10357.239   -637.63248     102002.7      46.7237      46.7237      46.7237 
  456000    92.056491   -11205.927   -10338.814    -656.4784     102002.7      46.7237      46.7237      46.7237 
  457000    91.883274   -11204.365   -10338.883   -866.30264     102002.7      46.7237      46.7237      46.7237 
  458000    92.174505   -11221.349   -10353.124   -662.27077     102002.7      46.7237      46.7237      46.7237 
  459000    91.786262   -11191.131   -10326.563   -815.60468     102002.7      46.7237      46.7237      46.7237 
  460000    90.982163   -11188.006   -10331.012   -693.79172     102002.7      46.7237      46.7237      46.7237 
  461000    89.745465   -11221.519   -10376.174    -749.6465     102002.7      46.7237      46.7237      46.7237 
  462000    90.906591   -11196.669   -10340.387   -677.80255     102002.7      46.7237      46.7237      46.7237 
  463000    90.429339   -11193.557    -10341.77   -723.27288     102002.7      46.7237      46.7237      46.7237 
  464000    89.395083   -11231.797   -10389.753   -607.77225     102002.7      46.7237      46.7237      46.7237 
  465000    88.801414   -11198.681   -10362.228   -851.58691     102002.7      46.7237      46.7237      46.7237 
  466000     93.25633   -11199.005    -10320.59   -990.39433     102002.7      46.7237      46.7237      46.7237 
  467000     91.31791   -11204.806    -10344.65   -710.55061     102002.7      46.7237      46.7237      46.7237 
  468000    92.007628   -11202.921   -10336.268   -515.23122     102002.7      46.7237      46.7237      46.7237 
  469000    89.306511   -11207.521   -10366.311    -675.3564     102002.7      46.7237      46.7237      46.7237 
  470000    91.014007   -11199.027   -10341.733   -724.16881     102002.7      46.7237      46.7237      46.7237 
  471000    92.273605   -11232.404   -10363.246   -746.71765     102002.7      46.7237      46.7237      46.7237 
  472000    90.849656   -11209.529   -10353.783   -947.40942     102002.7      46.7237      46.7237      46.7237 
  473000     92.65597   -11208.689   -10335.929   -902.94815     102002.7      46.7237      46.7237      46.7237 
  474000    91.481019   -11226.781   -10365.089   -1017.9365     102002.7      46.7237      46.7237      46.7237 
  475000    90.570704   -11214.996   -10361.878   -958.98096     102002.7      46.7237      46.7237      46.7237 
  476000    93.430524   -11198.239   -10318.183   -775.87843     102002.7      46.7237      46.7237      46.7237 
  477000    91.041343   -11218.395   -10360.844   -916.19586     102002.7      46.7237      46.7237      46.7237 
  478000    91.654415   -11200.172   -10336.846   -950.02083     102002.7      46.7237      46.7237      46.7237 
  479000     87.44498   -11192.085   -10368.409    -841.2954     102002.7      46.7237      46.7237      46.7237 
  480000    90.502594   -11203.539   -10351.062   -548.31434     102002.7      46.7237      46.7237      46.7237 
  481000    88.954242   -11220.426   -10382.534   -581.44749     102002.7      46.7237      46.7237      46.7237 
  482000    89.417183    -11193.63   -10351.377   -207.17935     102002.7      46.7237      46.7237      46.7237 
  483000    89.431704   -11212.018   -10369.628   -669.55281     102002.7      46.7237      46.7237      46.7237 
  484000    89.586515   -11217.613   -10373.765   -664.69115     102002.7      46.7237      46.7237      46.7237 
  485000    93.601646   -11203.996   -10322.328   -594.15125     102002.7      46.7237      46.7237      46.7237 
  486000    91.981921   -11214.596   -10348.185   -774.68145     102002.7      46.7237      46.7237      46.7237 
  487000     91.62633   -11208.901   -10345.839    -681.0951     102002.7      46.7237      46.7237      46.7237 
  488000    88.935699   -11214.206   -10376.488   -953.21272     102002.7      46.7237      46.7237      46.7237 
  489000    92.137238   -11206.527   -10338.653   -653.81774     102002.7      46.7237      46.7237      46.7237 
  490000    89.415509   -11237.149   -10394.912    -818.3832     102002.7      46.7237      46.7237      46.7237 
  491000    90.592002   -11209.639    -10356.32   -1041.0309     102002.7      46.7237      46.7237      46.7237 
  492000      88.9596   -11214.693    -10376.75   -734.24432     102002.7      46.7237      46.7237      46.7237 
  493000    91.731227    -11201.81   -10337.761   -569.71512     102002.7      46.7237      46.7237      46.7237 
  494000    89.908421   -11204.911   -10358.031   -765.12143     102002.7      46.7237      46.7237      46.7237 
  495000     91.16521   -11219.204   -10360.486   -890.15299     102002.7      46.7237      46.7237      46.7237 
  496000    90.646705   -11208.698   -10354.865   -822.18704     102002.7      46.7237      46.7237      46.7237 
  497000    92.350994    -11210.73   -10340.843   -704.15546     102002.7      46.7237      46.7237      46.7237 
  498000    90.659052   -11244.447   -10390.497   -487.12926     102002.7      46.7237      46.7237      46.7237 
  499000    88.024327   -11212.376   -10383.243   -858.37921     102002.7      46.7237      46.7237      46.7237 
  500000    92.082915   -11218.459   -10351.097   -511.86408     102002.7      46.7237      46.7237      46.7237 
  500500    94.194254   -11229.019   -10341.769   -860.03461     102002.7      46.7237      46.7237      46.7237 
Loop time of 1844.98 on 16 procs for 500000 steps with 3161 atoms

Performance: 23.415 ns/day, 1.025 hours/ns, 271.006 timesteps/s
99.8% CPU use with 16 MPI tasks x no OpenMP threads

MPI task timing breakdown:
Section |  min time  |  avg time  |  max time  |%varavg| %total
---------------------------------------------------------------
Pair    | 826.24     | 1144.9     | 1373.8     | 488.7 | 62.06
Bond    | 147.62     | 174.82     | 198.59     | 110.8 |  9.48
Neigh   | 14.301     | 14.35      | 14.468     |   1.6 |  0.78
Comm    | 241.63     | 493.62     | 839.89     | 784.9 | 26.75
Output  | 0.021765   | 0.022393   | 0.025873   |   0.6 |  0.00
Modify  | 9.6045     | 10.174     | 11.132     |  17.5 |  0.55
Other   |            | 7.061      |            |       |  0.38

Nlocal:    197.562 ave 225 max 149 min
Histogram: 1 0 0 0 4 3 2 2 0 4
Nghost:    3992.25 ave 4037 max 3963 min
Histogram: 3 2 1 0 4 4 0 1 0 1
Neighs:    11458.8 ave 17596 max 7303 min
Histogram: 1 2 1 5 2 3 0 1 0 1

Total # of neighbors = 183341
Ave neighs/atom = 58.0009
Ave special neighs/atom = 3.64442
Neighbor list builds = 4215
Dangerous builds = 0
Neighbor list info ...
  update every 1 steps, delay 10 steps, check yes
  max neighbors/atom: 2000, page size: 100000
  master list distance cutoff = 16
  ghost atom cutoff = 16
  binsize = 8, bins = 6 6 6
  3 neighbor lists, perpetual/occasional/extra = 3 0 0
  (1) pair buck6d/coul/gauss/dsf, perpetual, skip from (3)
      attributes: half, newton on
      pair build: skip
      stencil: none
      bin: none
  (2) pair lj/cut, perpetual, skip from (3)
      attributes: half, newton on
      pair build: skip
      stencil: none
      bin: none
  (3) neighbor class addition, perpetual
      attributes: half, newton on
      pair build: half/bin/newton
      stencil: half/bin/3d/newton
      bin: standard
Setting up Verlet run ...
  Unit style    : real
  Current step  : 500500
  Time step     : 1
WARNING: Inconsistent image flags (../domain.cpp:786)
Per MPI rank memory allocation (min/avg/max) = 22.79 | 23.28 | 23.44 Mbytes
Step Time TotEng KinEng PotEng E_mol E_pair Temp Pxx Pyy Pzz Pxy Pxz Pyz Cella Cellb Cellc CellAlpha CellBeta CellGamma Volume Press 
  500500       500000   -10341.769    887.24957   -11229.019    4182.3268   -15411.346    94.194254   -803.36265   -1119.9266    -656.8146    5.1490146    -135.7154    115.00561      46.7237      46.7237      46.7237           90           90           90     102002.7   -860.03461 
  501000       500500   -10336.329    862.94824   -11199.277    4194.7541   -15394.031     91.61432   -626.98277   -1081.5631    -1085.557   -48.758566    34.714732   -135.83178      46.7237      46.7237      46.7237           90           90           90     102002.7   -931.36765 
  502000       501500   -10323.391    875.60206   -11198.993    4214.1672   -15413.161    92.957705   -731.80696   -840.28796   -671.60581    219.52385    62.521867    120.67905      46.7237      46.7237      46.7237           90           90           90     102002.7   -747.90024 
  503000       502500   -10353.511    864.56566   -11218.076    4197.4768   -15415.553    91.786032    -485.0449    -534.5148   -1141.8519    235.55882    157.41087    243.79492      46.7237      46.7237      46.7237           90           90           90     102002.7   -720.47055 
  504000       503500   -10362.573    853.86633   -11216.439     4175.408   -15391.847    90.650145    -340.6829   -1155.7943   -257.56403    211.34932    60.512242   -358.28918      46.7237      46.7237      46.7237           90           90           90     102002.7   -584.68041 
  505000       504500   -10345.573     867.2237   -11212.796    4204.9686   -15417.765    92.068222   -361.58584   -821.58596   -908.58168   -3.1681338   -49.748907   -20.954657      46.7237      46.7237      46.7237           90           90           90     102002.7   -697.25116 
  506000       505500   -10351.698    862.99613   -11214.694     4201.751   -15416.445    91.619404    -926.1529   -471.72478   -593.55565     31.30403    122.92577    242.02548      46.7237      46.7237      46.7237           90           90           90     102002.7   -663.81111 
  507000       506500   -10340.078    853.86161    -11193.94    4205.2701    -15399.21    90.649644   -480.54561   -1218.1898   -585.45859   -66.409306    17.449978    2.3124613      46.7237      46.7237      46.7237           90           90           90     102002.7   -761.39802 
  508000       507500    -10369.68    851.94987    -11221.63    4180.5207   -15402.151    90.446685   -472.01541   -418.24713   -713.71908   -182.57981    84.515723   -21.614362      46.7237      46.7237      46.7237           90           90           90     102002.7   -534.66054 
  509000       508500   -10361.725    869.26216   -11230.987     4168.407   -15399.394    92.284633   -954.93096   -775.73412   -347.82463   -84.093882    148.32234     -68.6159      46.7237      46.7237      46.7237           90           90           90     102002.7    -692.8299 
  510000       509500   -10349.048    864.82822   -11213.876     4183.714    -15397.59    91.813907    -245.7498   -832.87041   -773.43014    51.307699    127.63613   -128.23412      46.7237      46.7237      46.7237           90           90           90     102002.7   -617.35012 
  511000       510500   -10377.513    871.49725    -11249.01    4171.8786   -15420.889     92.52192   -855.43788   -479.78331   -821.72474    183.69988    108.81228    85.685662      46.7237      46.7237      46.7237           90           90           90     102002.7   -718.98198 
  512000       511500   -10360.314     842.1764   -11202.491    4195.7458   -15398.237    89.409092   -989.25798   -1073.5471   -1029.2781   -55.971798     26.60167   -226.19219      46.7237      46.7237      46.7237           90           90           90     102002.7   -1030.6944 
  513000       512500   -10350.267    870.89746   -11221.165    4176.8498   -15398.015    92.458244   -629.29681   -851.63645   -872.96745    60.643283   -73.664497    187.69551      46.7237      46.7237      46.7237           90           90           90     102002.7   -784.63357 
  514000       513500   -10372.556    848.94268   -11221.498    4170.0408   -15391.539    90.127429   -296.01179   -902.79623    -1192.108   -183.61941    214.22776   -53.540667      46.7237      46.7237      46.7237           90           90           90     102002.7   -796.97199 
  515000       514500   -10363.879    848.22343   -11212.103    4180.6357   -15392.738    90.051071   -1102.7703   -1279.7913   -869.29302   -2.8382911    56.561213     -185.284      46.7237      46.7237      46.7237           90           90           90     102002.7   -1083.9515 
  516000       515500   -10330.831    860.95401   -11191.785      4209.52   -15401.305    91.402604   -701.36196   -627.32374   -870.55463   -6.7621155     13.82406    46.071998      46.7237      46.7237      46.7237           90           90           90     102002.7   -733.08011 
  517000       516500   -10357.267    854.77468   -11212.042    4193.0314   -15405.073    90.746579   -927.96896   -1114.3046   -848.21202   -116.92595   -48.166531    2.7446907      46.7237      46.7237      46.7237           90           90           90     102002.7    -963.4952 
  518000       517500   -10322.923    864.42548   -11187.349    4206.5477   -15393.897    91.771151   -604.14476   -722.62482   -894.68498   -2.2704607    228.37657     54.81592      46.7237      46.7237      46.7237           90           90           90     102002.7   -740.48486 
  519000       518500   -10383.511    845.35566   -11228.867    4173.0585   -15401.925    89.746616   -654.35689     -1232.02   -798.62253   -49.266086    45.260745   -78.851792      46.7237      46.7237      46.7237           90           90           90     102002.7    -894.9998 
  520000       519500    -10336.84    858.59479   -11195.435    4205.4351    -15400.87    91.152139   -956.31834   -1163.3063   -918.37719    390.72453   -155.35336   -79.526531      46.7237      46.7237      46.7237           90           90           90     102002.7   -1012.6673 
  521000       520500   -10349.262    850.04747   -11199.309    4192.2004    -15391.51    90.244718   -936.28201   -722.18764   -866.68391    127.12524   -54.688063   -91.693736      46.7237      46.7237      46.7237           90           90           90     102002.7   -841.71785 
  522000       521500   -10377.029    844.63386   -11221.663    4186.7151   -15408.378    89.669986   -826.02634   -784.19406   -760.55058   -207.27899   -144.08573   -1.7617009      46.7237      46.7237      46.7237           90           90           90     102002.7   -790.25699 
  523000       522500   -10355.747    847.55746   -11203.304    4206.1174   -15409.422    89.980368   -1110.2655   -772.01557   -586.35606    -24.20282    51.166579    99.461476      46.7237      46.7237      46.7237           90           90           90     102002.7   -822.87905 
  524000       523500   -10358.329    872.43363   -11230.763     4182.353   -15413.116     92.62133   -1162.1201   -503.74506   -690.08593    47.538705   -112.98648   -104.40594      46.7237      46.7237      46.7237           90           90           90     102002.7   -785.31703 
  525000       524500   -10330.615    867.45999   -11198.075    4184.4085   -15382.484    92.093307   -426.99341   -722.79163    -522.1168    86.068118   -21.225606    66.069135      46.7237      46.7237      46.7237           90           90           90     102002.7   -557.30061 
  526000       525500   -10342.237    867.30677   -11209.544    4183.6996   -15393.243    92.077041   -594.63714   -858.10514    -1067.466   -53.115158    67.400789     229.3983      46.7237      46.7237      46.7237           90           90           90     102002.7   -840.06944 
  527000       526500   -10356.764    842.96437   -11199.728     4164.541   -15364.269    89.492746   -311.45697    -429.1987   -480.52366   -80.681303   -133.14707   -34.616574      46.7237      46.7237      46.7237           90           90           90     102002.7   -407.05978 
  528000       527500   -10364.095    858.96872   -11223.064    4172.3826   -15395.447    91.191837   -341.14345   -654.93579   -906.26936    129.05092    -275.1243    76.883415      46.7237      46.7237      46.7237           90           90           90     102002.7    -634.1162 
  529000       528500    -10336.87    876.49641   -11213.366    4161.1648   -15374.531    93.052652   -427.59175   -676.33603   -1095.5348    39.412729   -122.82464    23.669545      46.7237      46.7237      46.7237           90           90           90     102002.7   -733.15421 
  530000       529500   -10348.069    873.59961   -11221.669    4186.5881   -15408.257    92.745116   -167.03004   -982.10342   -616.11032    -22.61783    52.418628    26.391163      46.7237      46.7237      46.7237           90           90           90     102002.7   -588.41459 
  531000       530500   -10331.412    864.44858   -11195.861     4198.431   -15394.292    91.773603   -741.38591    -558.9506   -1309.4665    129.36273    80.799857    43.943023      46.7237      46.7237      46.7237           90           90           90     102002.7   -869.93435 
  532000       531500   -10357.663    865.61055   -11223.274    4189.4081   -15412.682    91.896962   -610.66028   -899.20639   -339.61626    22.232993    92.441598    178.94948      46.7237      46.7237      46.7237           90           90           90     102002.7   -616.49431 
  533000       532500    -10344.02    874.71621   -11218.736    4189.3874   -15408.124    92.863659   -1174.0961   -977.39792   -428.92082   -319.22431    29.147617   -18.280631      46.7237      46.7237      46.7237           90           90           90     102002.7   -860.13827 
  534000       533500   -10343.202    845.56358   -11188.765    4199.3176   -15388.083     89.76869   -1213.1108   -650.16632   -800.48606   -92.985176    166.52069    -226.0237      46.7237      46.7237      46.7237           90           90           90     102002.7   -887.92105 
  535000       534500    -10348.06    866.26673   -11214.327    4191.8349   -15406.162    91.966625   -603.84005   -908.48229    -622.6292    124.05753   -129.96442   -79.751276      46.7237      46.7237      46.7237           90           90           90     102002.7   -711.65052 
  536000       535500    -10338.42    863.61891   -11202.039    4201.3023   -15403.342    91.685521   -1082.5728   -725.68422   -355.16842    73.419826   -39.893822   -150.11447      46.7237      46.7237      46.7237           90           90           90     102002.7   -721.14183 
  537000       536500   -10358.956    863.21458    -11222.17    4171.6109   -15393.781    91.642596   -217.88155   -821.93534     -825.392    67.977446    283.53075    75.781114      46.7237      46.7237      46.7237           90           90           90     102002.7   -621.73629 
  538000       537500   -10351.406    855.75301   -11207.159    4197.5707   -15404.729    90.850444    -1068.577    -688.6475   -642.30098   -202.98666   -150.82718    16.210494      46.7237      46.7237      46.7237           90           90           90     102002.7   -799.84183 
  539000       538500   -10338.989    851.12355   -11190.113    4223.6734   -15413.786     90.35896   -846.01149   -859.01345   -953.40303    52.261206   -11.477741   -100.83261      46.7237      46.7237      46.7237           90           90           90     102002.7   -886.14266 
  540000       539500   -10365.576    849.72043   -11215.297    4184.3938   -15399.691    90.209998   -1153.5552   -726.75816   -950.96527    68.923529    2.1304682   -227.59024      46.7237      46.7237      46.7237           90           90           90     102002.7   -943.75954 
  541000       540500   -10351.211    865.28885     -11216.5    4176.9153   -15393.415     91.86281   -519.15313   -504.72672   -144.67762   -7.5006733   -18.310295    1.4615693      46.7237      46.7237      46.7237           90           90           90     102002.7   -389.51916 
  542000       541500   -10355.667    853.85723   -11209.524    4191.5744   -15401.098     90.64918    -882.6813   -1130.0627   -506.86336     198.7714    83.298382   -80.717226      46.7237      46.7237      46.7237           90           90           90     102002.7   -839.86912 
  543000       542500   -10376.006    838.91744   -11214.923    4180.9526   -15395.876    89.063106   -533.77999   -801.10715   -954.60119   -225.07242   -25.376952   -131.81981      46.7237      46.7237      46.7237           90           90           90     102002.7   -763.16278 
  544000       543500   -10356.565    851.58778   -11208.152    4179.8503   -15388.003    90.408245   -509.28894   -907.79482   -1194.1286   -54.880232    265.12722    67.423422      46.7237      46.7237      46.7237           90           90           90     102002.7   -870.40413 
  545000       544500    -10353.31    852.06947    -11205.38    4191.2696   -15396.649    90.459383   -816.93721   -682.95258   -1093.6087    11.709251   -232.61289    227.97581      46.7237      46.7237      46.7237           90           90           90     102002.7    -864.4995 
  546000       545500    -10362.28    855.49659   -11217.776    4187.1364   -15404.913     90.82322   -704.38493   -573.07175   -939.70066    135.24383    29.378051   -234.06916      46.7237      46.7237      46.7237           90           90           90     102002.7   -739.05245 
  547000       546500   -10341.343    859.17893   -11200.522    4189.7557   -15390.277    91.214153   -769.94734   -259.77139   -957.69997    91.031944   -111.91216   -93.685216      46.7237      46.7237      46.7237           90           90           90     102002.7    -662.4729 
  548000       547500   -10367.208    843.34846   -11210.557    4185.2806   -15395.837    89.533523   -616.54537    -495.4389   -1026.8453    137.74728    196.95601   -75.292891      46.7237      46.7237      46.7237           90           90           90     102002.7   -712.94318 
  549000       548500    -10365.08     857.5162   -11222.596    4175.9996   -15398.595    91.037631   -673.90752   -916.31703   -945.12659   -84.000552   -136.71509    120.30759      46.7237      46.7237      46.7237           90           90           90     102002.7   -845.11704 
  550000       549500   -10383.373    838.88446   -11222.257    4180.3493   -15402.606    89.059605   -497.53615   -910.48281   -630.63443    165.78097    119.99597     6.270878      46.7237      46.7237      46.7237           90           90           90     102002.7   -679.55113 
  551000       550500   -10352.685    856.42738   -11209.112    4184.6628   -15393.775    90.922037   -466.89904    -646.8846   -239.73774   -51.599673   -17.200998   -97.377771      46.7237      46.7237      46.7237           90           90           90     102002.7    -451.1738 
  552000       551500   -10338.203    876.09601   -11214.299    4194.1031   -15408.402    93.010144   -844.33677   -993.25534   -704.19434    102.15219   -73.000337   -142.63395      46.7237      46.7237      46.7237           90           90           90     102002.7   -847.26215 
  553000       552500   -10347.875    871.87825   -11219.753    4183.9018   -15403.655    92.562368   -870.08025   -656.84434   -474.85563    189.68232    138.33382   -317.13054      46.7237      46.7237      46.7237           90           90           90     102002.7   -667.26007 
  554000       553500   -10381.061    834.03716   -11215.098    4166.9896   -15382.088    88.544994   -783.33648   -765.58427   -577.62067   -38.923668   -249.49832     163.6124      46.7237      46.7237      46.7237           90           90           90     102002.7   -708.84714 
  555000       554500   -10331.454    867.69045   -11199.145    4203.7445   -15402.889    92.117774   -748.32173   -1266.6396    -312.3147    -3.104644   -57.502386    -148.5264      46.7237      46.7237      46.7237           90           90           90     102002.7   -775.75867 
[...]
  936000       935500   -10346.365    849.74975   -11196.115    4198.2648    -15394.38    90.213111   -624.74178   -985.67556   -1336.5207    153.36209   -165.34005   -102.89119      46.7237      46.7237      46.7237           90           90           90     102002.7   -982.31269 
  937000       936500   -10357.385    845.67929   -11203.065    4194.5387   -15397.603    89.780974   -496.55369   -646.20881   -999.38766    37.500262    177.91217    165.92448      46.7237      46.7237      46.7237           90           90           90     102002.7   -714.05005 
  938000       937500   -10355.264    865.06093   -11220.325    4172.2322   -15392.557    91.838613    10.236069   -741.01554   -1456.3379    138.78184    85.222828     133.9694      46.7237      46.7237      46.7237           90           90           90     102002.7   -729.03914 
  939000       938500   -10342.317    875.46781   -11217.785    4186.5682   -15404.353    92.943452   -499.95541   -740.61681   -568.58053   -126.96391    164.18103    189.46012      46.7237      46.7237      46.7237           90           90           90     102002.7   -603.05092 
  940000       939500   -10365.381    860.83875    -11226.22    4181.4241   -15407.644    91.390368   -475.16464   -594.97628   -898.50963    -48.45483   -90.603416   -107.69905      46.7237      46.7237      46.7237           90           90           90     102002.7   -656.21685 
  941000       940500   -10340.877    870.36024   -11211.237    4188.5757   -15399.813     92.40121   -862.74679   -805.50733   -917.55654    430.45696      111.169   -129.25871      46.7237      46.7237      46.7237           90           90           90     102002.7   -861.93689 
  942000       941500   -10377.261    848.90332   -11226.164    4183.1096   -15409.274    90.123251   -327.25306   -799.06015    -585.0712   -17.327363    135.64927    162.39289      46.7237      46.7237      46.7237           90           90           90     102002.7   -570.46147 
  943000       942500   -10362.504    853.65575    -11216.16    4194.8267   -15410.987    90.627789   -897.21337   -876.42688   -919.77554    54.670724    12.016392    39.541666      46.7237      46.7237      46.7237           90           90           90     102002.7   -897.80526 
  944000       943500   -10367.423    856.56914   -11223.992    4183.3048   -15407.297    90.937087   -595.39733   -503.54027   -1068.5108    73.649568      110.691     62.19953      46.7237      46.7237      46.7237           90           90           90     102002.7   -722.48281 
  945000       944500   -10362.529     850.2965   -11212.826    4177.2147    -15390.04    90.271156   -609.94781   -493.95044   -611.83192    114.98581    251.07302    54.259963      46.7237      46.7237      46.7237           90           90           90     102002.7   -571.91006 
  946000       945500   -10352.839    863.84582   -11216.684    4187.2066   -15403.891    91.709611   -894.51307   -1017.2615   -1333.2818    56.334223    69.870058    165.42627      46.7237      46.7237      46.7237           90           90           90     102002.7   -1081.6854 
  947000       946500   -10359.174    826.54164   -11185.715    4210.2452   -15395.961    87.749238   -409.83727   -647.83987   -1094.1474    209.00777   -61.711861     54.32969      46.7237      46.7237      46.7237           90           90           90     102002.7   -717.27486 
  948000       947500   -10380.926    833.82808   -11214.754    4198.1029   -15412.857    88.522798   -761.25854   -624.61999   -1010.8383    111.17208    28.148359   -76.925767      46.7237      46.7237      46.7237           90           90           90     102002.7   -798.90559 
  949000       948500   -10380.908    841.67473   -11222.583    4187.6023   -15410.185    89.355832   -689.79745    -797.3632   -1002.9137   -49.633904    134.73521    175.35756      46.7237      46.7237      46.7237           90           90           90     102002.7    -830.0248 
  950000       949500    -10350.89    856.15886   -11207.049    4186.7857   -15393.834     90.89353   -470.18789   -682.22058   -790.89695   -131.42302   -10.777626     302.1649      46.7237      46.7237      46.7237           90           90           90     102002.7   -647.76848 
  951000       950500   -10367.086    848.56061   -11215.646    4177.0747   -15392.721    90.086867   -487.89144   -690.19298   -1011.7231   -124.88806    111.00381   -298.67353      46.7237      46.7237      46.7237           90           90           90     102002.7   -729.93585 
  952000       951500   -10376.264    838.31366   -11214.578     4199.169   -15413.747    88.999006   -986.26214   -925.52758   -952.96186    154.46863    60.327257    152.87911      46.7237      46.7237      46.7237           90           90           90     102002.7    -954.9172 
  953000       952500   -10321.547    869.89929   -11191.447     4204.675   -15396.122    92.352274   -674.55848   -856.74264   -1099.2569    274.44937   -125.08915   -175.40604      46.7237      46.7237      46.7237           90           90           90     102002.7   -876.85267 
  954000       953500    -10359.39    869.06944   -11228.459    4195.7733   -15424.232    92.264174    -726.0913   -648.28385   -928.05382   -156.48174    -8.725781    118.90178      46.7237      46.7237      46.7237           90           90           90     102002.7   -767.47632 
  955000       954500   -10339.457    859.24233   -11198.699    4193.1719   -15391.871    91.220885   -612.55187   -644.14584   -1130.2731    118.90137    107.92072   -99.875193      46.7237      46.7237      46.7237           90           90           90     102002.7   -795.65695 
  956000       955500   -10347.464    868.74337   -11216.207    4189.0772   -15405.284    92.229556   -646.47474   -1069.2751   -1081.1156    23.640405   -78.571081   -35.923431      46.7237      46.7237      46.7237           90           90           90     102002.7   -932.28849 
  957000       956500    -10386.91    829.37972    -11216.29    4187.8597    -15404.15     88.05054   -955.57197   -1288.0628   -895.92422    227.85366   -32.263712    89.404586      46.7237      46.7237      46.7237           90           90           90     102002.7   -1046.5197 
  958000       957500   -10351.271    852.47641   -11203.747    4213.2786   -15417.026    90.502585   -724.34595    -801.9347   -1179.8393    60.925753    67.173952    81.472154      46.7237      46.7237      46.7237           90           90           90     102002.7   -902.03998 
  959000       958500   -10361.452    845.87851   -11207.331    4174.6006   -15381.931    89.802124   -846.69719   -1035.5416   -694.52672    222.31934    80.545025    44.748737      46.7237      46.7237      46.7237           90           90           90     102002.7   -858.92184 
  960000       959500   -10358.142     856.4923   -11214.634    4198.2658     -15412.9    90.928929    -899.9278   -806.22716   -969.67103    29.907707    79.736402    234.45966      46.7237      46.7237      46.7237           90           90           90     102002.7   -891.94199 
  961000       960500   -10360.643    849.27897   -11209.922    4194.2667   -15404.189    90.163132   -670.64819   -979.52875   -830.51481   -101.06777    128.26896   -215.51542      46.7237      46.7237      46.7237           90           90           90     102002.7   -826.89725 
  962000       961500   -10324.169    861.19319   -11185.362    4203.8927   -15389.255    91.427997   -870.57834   -997.75072   -991.11218    -141.3081   -101.90784    33.296405      46.7237      46.7237      46.7237           90           90           90     102002.7   -953.14708 
  963000       962500   -10349.758    871.91689   -11221.675    4178.2442   -15399.919    92.566471    -607.2469   -814.03138   -1039.2628   -84.441808    15.504961    44.555505      46.7237      46.7237      46.7237           90           90           90     102002.7   -820.18035 
  964000       963500   -10366.592    844.57172   -11211.163    4182.7294   -15393.893    89.663389   -463.71858   -934.28752    -1106.813   -158.56746   -125.81607    99.033293      46.7237      46.7237      46.7237           90           90           90     102002.7   -834.93971 
  965000       964500   -10353.787    861.51551   -11215.302    4172.9651   -15388.268    91.462215   -567.24158   -864.44549   -828.47436     33.13405    53.360976    43.622974      46.7237      46.7237      46.7237           90           90           90     102002.7   -753.38714 
  966000       965500   -10350.422    860.98882   -11211.411    4204.5295   -15415.941      91.4063   -1074.3333     -576.596   -1051.2683   -118.01479    169.20779   -119.26492      46.7237      46.7237      46.7237           90           90           90     102002.7   -900.73254 
  967000       966500   -10380.218     847.3585   -11227.576    4172.7091   -15400.285    89.959245    -849.2337   -828.80816   -1087.7855   -23.751234   -74.480572     228.7904      46.7237      46.7237      46.7237           90           90           90     102002.7   -921.94244 
  968000       967500   -10349.057    873.76737   -11222.824    4191.0314   -15413.855    92.762926   -1096.4026   -412.67535   -579.37908   -74.566894   -52.683031   -29.874537      46.7237      46.7237      46.7237           90           90           90     102002.7   -696.15236 
  969000       968500   -10330.314    876.92529    -11207.24    4199.9713   -15407.211    93.098184   -909.31796   -559.30985   -958.46929    5.2418591   -222.61844    258.69985      46.7237      46.7237      46.7237           90           90           90     102002.7   -809.03237 
  970000       969500   -10365.345    855.04223   -11220.388    4185.0071   -15405.395    90.774984    -744.9216   -650.48954   -1089.8974   -113.61862    178.22921    223.75606      46.7237      46.7237      46.7237           90           90           90     102002.7   -828.43617 
  971000       970500   -10341.231    874.56827   -11215.799    4181.7119   -15397.511    92.847952   -366.02166   -706.74273   -699.44886   -172.01348    306.43614    65.873843      46.7237      46.7237      46.7237           90           90           90     102002.7   -590.73775 
  972000       971500   -10375.282    857.75091   -11233.033    4165.3498   -15398.382    91.062549   -176.34884   -519.42509   -747.65428     23.50501   -68.319272    15.293947      46.7237      46.7237      46.7237           90           90           90     102002.7   -481.14274 
  973000       972500   -10342.788    847.81327   -11190.602    4217.2973   -15407.899    90.007526   -881.28393    -571.3199   -918.29248    279.58431   -68.037048     29.71727      46.7237      46.7237      46.7237           90           90           90     102002.7   -790.29877 
  974000       973500   -10360.612    848.64449   -11209.257    4195.8743   -15405.131    90.095772   -853.90438   -990.83877   -940.41788    183.80521   -124.28639   -101.47408      46.7237      46.7237      46.7237           90           90           90     102002.7   -928.38701 
  975000       974500   -10349.481    862.91285   -11212.394    4183.8065     -15396.2    91.610563   -1050.9738   -618.86952    -1036.661   -225.12388    29.333089     229.3711      46.7237      46.7237      46.7237           90           90           90     102002.7    -902.1681 
  976000       975500   -10336.816    863.98668   -11200.803    4198.5489   -15399.352    91.724565   -410.50176   -381.98662   -403.78702   -96.675792   -188.81803   -80.310226      46.7237      46.7237      46.7237           90           90           90     102002.7   -398.75847 
  977000       976500   -10370.469    844.51173    -11214.98     4171.039   -15386.019    89.657021   -782.18064   -451.90633   -618.56686    95.238182   -60.487827   -126.85898      46.7237      46.7237      46.7237           90           90           90     102002.7   -617.55128 
  978000       977500   -10319.075    869.21757   -11188.293     4200.559   -15388.852      92.2799   -484.81967   -719.56906   -994.63934   -182.27286    186.63964   -343.58583      46.7237      46.7237      46.7237           90           90           90     102002.7   -733.00936 
  979000       978500   -10354.113    843.48902   -11197.602     4209.015   -15406.617    89.548445   -460.64294   -868.49325   -813.45572   -171.53926   -26.632429   -157.98835      46.7237      46.7237      46.7237           90           90           90     102002.7    -714.1973 
  980000       979500   -10356.497    853.22997   -11209.727     4195.864   -15405.591    90.582586   -938.14964   -777.10181   -1219.9428   -121.30924    15.548799    99.218753      46.7237      46.7237      46.7237           90           90           90     102002.7   -978.39809 
  981000       980500    -10341.91    850.48387   -11192.394    4194.6088   -15387.003    90.291048   -1018.5601   -581.45112   -898.91576    171.80925   -27.374812    99.338856      46.7237      46.7237      46.7237           90           90           90     102002.7   -832.97567 
  982000       981500   -10360.371    852.73268   -11213.104    4180.2188   -15393.323    90.529792   -550.30285   -675.48547   -826.40075   -41.887925    405.58245   -17.984166      46.7237      46.7237      46.7237           90           90           90     102002.7   -684.06302 
  983000       982500   -10361.627    863.37352   -11225.001    4186.3021   -15411.303     91.65947   -1219.2808   -1055.8874   -1070.5102    62.901895    41.774767    75.282056      46.7237      46.7237      46.7237           90           90           90     102002.7   -1115.2261 
  984000       983500   -10319.289    870.94662   -11190.236    4221.5874   -15411.823    92.463463   -907.19822   -862.76228   -919.19878    -245.8099    75.970763    234.00217      46.7237      46.7237      46.7237           90           90           90     102002.7   -896.38643 
  985000       984500   -10358.557    856.91937   -11215.476    4188.9076   -15404.384    90.974269   -909.32028   -831.33856   -760.62997    -65.35697    35.073908    9.1386194      46.7237      46.7237      46.7237           90           90           90     102002.7   -833.76294 
  986000       985500   -10360.474    855.32166   -11215.795    4190.8568   -15406.652     90.80465   -757.90429   -1094.8686   -538.03464   -122.25611    58.554165   -91.147508      46.7237      46.7237      46.7237           90           90           90     102002.7   -796.93584 
  987000       986500   -10340.788    858.91675   -11199.705    4194.9557   -15394.661     91.18632   -766.20541   -595.02079    -997.3411   -19.843493     29.39592    140.07519      46.7237      46.7237      46.7237           90           90           90     102002.7    -786.1891 
  988000       987500   -10358.519    867.72152   -11226.241    4177.7072   -15403.948    92.121073     -688.081    -1050.585   -568.67127    152.41292    95.078026   -5.1465929      46.7237      46.7237      46.7237           90           90           90     102002.7   -769.11241 
  989000       988500   -10347.068    858.53196     -11205.6    4207.3359   -15412.936    91.145469   -476.94078   -768.19005    -924.8953   -43.902014   -57.680738    84.962503      46.7237      46.7237      46.7237           90           90           90     102002.7   -723.34204 
  990000       989500   -10362.063    849.17251   -11211.235    4177.7354   -15388.971    90.151829   -868.48426   -1181.6212   -988.09162    133.91171   -199.17938     15.47381      46.7237      46.7237      46.7237           90           90           90     102002.7   -1012.7324 
  991000       990500   -10366.207     857.2999   -11223.507    4199.8881   -15423.395    91.014668   -857.35271   -431.29678   -1032.3801    143.73834   -29.347686   -101.65942      46.7237      46.7237      46.7237           90           90           90     102002.7   -773.67651 
  992000       991500   -10358.944     842.5386   -11201.483    4201.7082   -15403.191    89.447544   -493.33328   -935.20881   -1287.6688    -172.7104    67.630678   -119.90199      46.7237      46.7237      46.7237           90           90           90     102002.7   -905.40363 
  993000       992500   -10305.178    885.37977   -11190.558    4216.2794   -15406.837    93.995748   -1191.6987   -1063.8068   -1008.3325    -343.8769   -74.114891    96.075138      46.7237      46.7237      46.7237           90           90           90     102002.7    -1087.946 
  994000       993500   -10345.699    866.45667   -11212.156    4194.7652   -15406.921     91.98679   -753.86871   -1080.8359   -782.85106   -95.430585    57.482662    39.434404      46.7237      46.7237      46.7237           90           90           90     102002.7   -872.51855 
  995000       994500   -10408.627     837.8972   -11246.524    4154.3783   -15400.902    88.954793   -526.77651   -806.36168   -975.47687    304.95215    168.14304   -37.130946      46.7237      46.7237      46.7237           90           90           90     102002.7   -769.53836 
  996000       995500   -10373.212    851.53559   -11224.748    4202.4413   -15427.189    90.402703   -686.21607   -689.38542   -637.78613    8.7826769    -154.9987   -87.343635      46.7237      46.7237      46.7237           90           90           90     102002.7   -671.12921 
  997000       996500   -10363.399    851.54084    -11214.94    4189.5533   -15404.493    90.403261    -524.1374   -827.13492    -937.5913   -126.46946    -44.31687    1.8534442      46.7237      46.7237      46.7237           90           90           90     102002.7   -762.95454 
  998000       997500   -10363.678    861.89875   -11225.577    4199.2832    -15424.86    91.502901   -1022.0979   -676.55884   -1039.6527    44.139598     25.31649    75.751035      46.7237      46.7237      46.7237           90           90           90     102002.7   -912.76979 
  999000       998500   -10377.398    842.92772   -11220.326    4189.4069   -15409.733    89.488855    -569.6807   -1020.9076   -700.53289   -116.26139    83.846792   -343.59426      46.7237      46.7237      46.7237           90           90           90     102002.7   -763.70707 
 1000000       999500   -10365.324    857.51613    -11222.84    4176.3114   -15399.151    91.037624   -628.94677    -643.1841   -533.11543    149.35401    191.16709   -120.33029      46.7237      46.7237      46.7237           90           90           90     102002.7   -601.74877 
 1000500      1000000    -10339.29    874.02015    -11213.31    4193.0023   -15406.312    92.789762   -762.78444   -313.28086   -1220.4185    36.362079    139.84157    91.512877      46.7237      46.7237      46.7237           90           90           90     102002.7   -765.49461 
Loop time of 2135.73 on 16 procs for 500000 steps with 3161 atoms

Performance: 20.227 ns/day, 1.187 hours/ns, 234.112 timesteps/s
99.8% CPU use with 16 MPI tasks x no OpenMP threads

MPI task timing breakdown:
Section |  min time  |  avg time  |  max time  |%varavg| %total
---------------------------------------------------------------
Pair    | 1266       | 1441.9     | 1581.4     | 280.4 | 67.51
Bond    | 127.99     | 183.94     | 242.45     | 287.3 |  8.61
Neigh   | 14.394     | 14.439     | 14.545     |   1.5 |  0.68
Comm    | 275.88     | 463.28     | 691.79     | 596.8 | 21.69
Output  | 0.13127    | 0.1381     | 0.13872    |   0.5 |  0.01
Modify  | 23.843     | 25.074     | 26.05      |  13.3 |  1.17
Other   |            | 6.941      |            |       |  0.32

Nlocal:    197.562 ave 237 max 172 min
Histogram: 6 0 1 1 2 0 4 0 1 1
Nghost:    3999.44 ave 4025 max 3954 min
Histogram: 1 1 0 0 2 4 2 0 1 5
Neighs:    11452.1 ave 13584 max 9029 min
Histogram: 2 0 0 3 2 2 3 2 0 2

Total # of neighbors = 183233
Ave neighs/atom = 57.9668
Ave special neighs/atom = 3.64442
Neighbor list builds = 4202
Dangerous builds = 0
Total wall time: 1:06:25
