57
 energy: -93.770372835666 gnorm: 0.003687656687 xtb: 6.3.0 (7ac954c)
C           2.57432684847873    12.20633269665515    -6.80498431126818
C           3.78830034393745    10.87847438277270    -9.24040855729819
C           0.57924118041233    11.14420973380580   -10.59709803939118
C          -0.65835494172879    11.94405175064119   -10.79192471919257
H           1.95811823676826    12.34559288955045    -7.69334663631016
H           1.95682634859996    12.32927342701847    -5.91913508139855
H           3.34558805162021    12.97801793677998    -6.80002038250717
H           4.60979647941975    10.38909020273707    -9.77135635877710
H           3.96213553857041    11.95582582647077    -9.16623559907510
H          -0.42057488847516    13.00184302508941   -10.71784168767082
H          -1.09616964484982    11.73349874054419   -11.76517442968078
H          -1.39316669103561    11.70776338709356   -10.02229149228565
N           2.56206494212711    10.68499090126461    -9.96238676010379
N           1.60540524800718    11.62316726864913    -9.92383349821437
C           3.88413279423343     8.77030371052604    -6.45537391011843
C           3.27338386945996     9.88382112046650    -5.81937676511703
C           3.18009102731474    10.85191323816466    -6.80844275687079
C           4.25712494693409     7.45933188491660    -5.86326463353897
C           0.88002009255122     9.84863331221269   -11.09438128750353
C           2.16950709763836     9.58845037875614   -10.65408044209726
C           3.02614599744092     8.38364959733015   -10.77710232044337
C           2.87484923970892     9.99954695654322    -4.42413393355337
C           3.17387055158361    11.15425417825157    -3.70008140345182
C           2.80694058933366    11.27461219358790    -2.37502074394123
C           2.13324820856421    10.23523766879121    -1.73504399090052
C           1.85041701004412     9.07274155882137    -2.45188714887177
C           2.21025223871166     8.95730484367556    -3.77700750320234
C           1.71544728711311    10.28168363107110    -0.30776894796597
C           0.04045609383833     8.99712496345111   -11.92490663753160
C          -1.31550294808651     8.83494102738121   -11.64314493220707
C          -2.11003460380308     8.02692013762979   -12.43156211559589
C          -1.56795581186581     7.36675754843645   -13.53308489639732
C          -0.21735689372252     7.54622054939916   -13.83059592363939
C           0.57723215844393     8.34233013265293   -13.03486115697300
C          -2.36282867682305     6.49269155807798   -14.43768845854360
H           3.42043426191096     6.76296850350468    -5.91694652903090
H           3.82883696441387     8.54905825152276   -11.49714261721043
H           3.47603693790736     8.14099731131552    -9.81426652318790
H           2.42853384139805     7.54131566431925   -11.11523006279288
H           3.72171567089220    11.95293355004593    -4.17723115756406
H           3.09053974527774    12.17372207560812    -1.84159344570244
H           1.33807402627030     8.27097344049239    -1.94224562735657
H           1.96441254478170     8.06173544045914    -4.32577440051265
H          -1.74401489783465     9.33468128954840   -10.78814167498830
H          -3.16343810719987     7.94719131921801   -12.19255490299911
H           0.18598136490942     7.04637853804769   -14.69807456232694
H           1.61794335210625     8.48394720345903   -13.28338000605023
N           3.72067626652168    10.30689407906341    -7.92458439626329
N           4.14343482889828     9.05221653335304    -7.71569644506383
O           1.45445314436253     9.29726601010828     0.32905137081214
O          -3.49912904599614     5.97292767623762   -13.93123742936187
O          -2.02521832834922     6.23504222020081   -15.56121226937137
H           4.53882747784305     7.58041341559646    -4.81967042197778
H           5.08686644885137     7.03343809875136    -6.42104990336487
O           1.61831443013640    11.50250617658864     0.25650425084626
H          -3.63239833576639     6.21388955596330   -13.00519538834445
H           1.80894576254856    12.21312761910807    -0.36950331460180
57
 energy: -93.770410806627 gnorm: 0.001367774262 xtb: 6.3.0 (7ac954c)
C           2.57278572512539    12.20631507169324    -6.80420031485660
C           3.78717849701814    10.87781177959205    -9.23988603876803
C           0.58115854890221    11.14611316306585   -10.59984221006874
C          -0.65701118416928    11.94555015589154   -10.79301116983805
H           1.95677802577842    12.34572248686147    -7.69266224417999
H           1.95543536345448    12.32978054926265    -5.91835787253926
H           3.34452457041922    12.97764873072986    -6.79947453682767
H           4.60940105391962    10.38825567412184    -9.76954433915323
H           3.96032116001397    11.95536089146132    -9.16701565449006
H          -0.41961492438467    13.00350228494467   -10.71993196122601
H          -1.09654911188081    11.73403130475345   -11.76524436960112
H          -1.39039632926757    11.70933595178244   -10.02181772669573
N           2.56143760076751    10.68309550440685    -9.96217595668613
N           1.60937061281229    11.62615939759903    -9.93008281426934
C           3.88780578757247     8.77168380323198    -6.45514145065645
C           3.27391641852690     9.88359389247289    -5.81891828650340
C           3.17838287324971    10.85176314964445    -6.80757147207544
C           4.25935468453713     7.45990332377103    -5.86380736421719
C           0.87971944769942     9.84895193440546   -11.09487826557048
C           2.16841391209853     9.58691503961798   -10.65362643148021
C           3.02526007938123     8.38220950336696   -10.77673891889706
C           2.87491735903121     9.99892278235879    -4.42377293622758
C           3.17294354362814    11.15404222162804    -3.69992284664134
C           2.80589605335666    11.27435672716500    -2.37488219927013
C           2.13268200912296    10.23466340616827    -1.73492211558416
C           1.85102602794045     9.07173876382172    -2.45152157214593
C           2.21089706199288     8.95636853614498    -3.77663016464819
C           1.71258627930942    10.28158962871709    -0.30833536115827
C           0.03980771694362     8.99736865716715   -11.92496903692121
C          -1.31621774359267     8.83559026160503   -11.64345528469498
C          -2.11063185378121     8.02727848199721   -12.43172643339427
C          -1.56836370977516     7.36651898571108   -13.53282832443430
C          -0.21770154883874     7.54565065086635   -13.83009441557271
C           0.57681108105732     8.34179827087730   -13.03436648736111
C          -2.36279900126726     6.49164758058332   -14.43704228077832
H           3.42221468245982     6.76404121814585    -5.91948419972249
H           3.82793692156267     8.54824023665106   -11.49677952896897
H           3.47540576561607     8.13967907739066    -9.81400591048686
H           2.42808900583464     7.53970279637498   -11.11510718255974
H           3.72039464586301    11.95297930594591    -4.17713026456033
H           3.08863598069702    12.17384362102088    -1.84160098777418
H           1.33865891445225     8.26997551029607    -1.94194159989067
H           1.96521300712353     8.06073353723358    -4.32536783282525
H          -1.74483132715700     9.33552250524495   -10.78860020563840
H          -3.16408378831712     7.94773338814567   -12.19289896384719
H           0.18583312221348     7.04526148359744   -14.69716562522428
H           1.61762790944038     8.48307393244696   -13.28268087228045
N           3.71895452832165    10.30739190685553    -7.92369576436631
N           4.15051319618284     9.05578100339383    -7.71448600548188
O           1.45600414183263     9.29695766655970     0.33003653517815
O          -3.50028542582478     5.97380767103724   -13.93132642798780
O          -2.02562486873443     6.23456729621601   -15.56080630605049
H           4.53926980022026     7.57982467456349    -4.81962766206994
H           5.08967735170357     7.03398802817684    -6.42071848798530
O           1.61911050357941    11.50223866289128     0.25678113297121
H          -3.63357346837650     6.21477971026374   -13.00529409746197
H           1.80814213515763    12.21286591265119    -0.36970663397812
57
 energy: -93.770422250150 gnorm: 0.001669768784 xtb: 6.3.0 (7ac954c)
C           2.56895130620885    12.20539273476719    -6.80374444947426
C           3.78685119447442    10.87760513105460    -9.23971620477485
C           0.58449003965187    11.14944683255406   -10.60464185295022
C          -0.65365898003764    11.94916405275116   -10.79687061876858
H           1.95379584382735    12.34547691759093    -7.69263588825336
H           1.95131994026110    12.32948937504692    -5.91820001129619
H           3.34144899978937    12.97609014773999    -6.79858849002034
H           4.61035625175033    10.38754771894030    -9.76695409239340
H           3.95852638394775    11.95556304928352    -9.16915195661345
H          -0.41662545896276    13.00722321209079   -10.72430384844085
H          -1.09559384903279    11.73706912237568   -11.76786520937506
H          -1.38506173132846    11.71257980728224   -10.02371668923206
N           2.56136417465587    10.68070271866536    -9.96196941556047
N           1.61403958272106    11.62870553195557    -9.93588676915534
C           3.89409397651820     8.77397678558884    -6.45474774473797
C           3.27424764192456     9.88276945381542    -5.81866869989990
C           3.17497627520024    10.85097445533010    -6.80702257016012
C           4.26543000636846     7.46175060180118    -5.86424781403757
C           0.87914089307948     9.84953134918377   -11.09502860627501
C           2.16662731873576     9.58454931302528   -10.65179799259122
C           3.02327878550708     8.37960730149737   -10.77451205937799
C           2.87473769347437     9.99744741537357    -4.42349754114624
C           3.17131483719482    11.15330872447126    -3.70017697099020
C           2.80402349538216    11.27402872895609    -2.37525692873862
C           2.13226034342158    10.23383932326661    -1.73465781019133
C           1.85135631466895     9.07044770894691    -2.45091042861354
C           2.21170539928414     8.95457687930589    -3.77590814207372
C           1.71542452031606    10.28024183147306    -0.30706404046017
C           0.03853156315999     8.99786561856257   -11.92452500873382
C          -1.31772431573044     8.83706575247521   -11.64372803157442
C          -2.11206817106142     8.02841332770655   -12.43177949428436
C          -1.56956556914527     7.36638654348637   -13.53199273656937
C          -0.21853294894045     7.54423991078817   -13.82837799441780
C           0.57585738170162     8.34081715673458   -13.03294143445143
C          -2.36434766939969     6.49223141303207   -14.43664223503014
H           3.42747513782565     6.76686081343445    -5.92237792625459
H           3.82542681795998     8.54637529132513   -11.49510025331897
H           3.47443483315723     8.13751262113473    -9.81219322480849
H           2.42664887343877     7.53665620306003   -11.11268353722211
H           3.71788252976166    11.95266573080119    -4.17769713978379
H           3.08591971165680    12.17406745901549    -1.84246715196056
H           1.34033496067230     8.26816435255621    -1.94081141019797
H           1.96717811203141     8.05826282031220    -4.32408039864656
H          -1.74672227594992     9.33802262957211   -10.78965561041130
H          -3.16571726753156     7.94973954176307   -12.19356882201111
H           0.18531484514619     7.04286501397931   -14.69474505125584
H           1.61691411321684     8.48122379015758   -13.28078336355491
N           3.71698319814247    10.30853034632839    -7.92295773632926
N           4.15718898204696     9.05992570366909    -7.71385533761213
O           1.45649097316360     9.29554445583322     0.33028290809235
O          -3.50182589247439     5.97424800574364   -13.93109566188988
O          -2.02545887797686     6.23278418811352   -15.55932978893145
H           4.54354262780427     7.57973341098126    -4.81939043725353
H           5.09603539444042     7.03574914731336    -6.42065579760094
O           1.61542051613944    11.50102425534098     0.25641625401188
H          -3.63600192899415     6.21640107343434   -13.00550507933650
H           1.80437908343694    12.21174772685939    -0.36997884643137
57
 energy: -93.770432493031 gnorm: 0.000946464139 xtb: 6.3.0 (7ac954c)
C           2.56611478016871    12.20415555842795    -6.80411085229414
C           3.78757774763507    10.87803614175459    -9.24003832956110
C           0.58582075515498    11.15085080824037   -10.60662029065970
C          -0.65134411171839    11.95169598796927   -10.80008847830410
H           1.95172502627264    12.34431085605276    -7.69348816385768
H           1.94767810712611    12.32785950217273    -5.91905693494374
H           3.33834740653392    12.97511462486308    -6.79806095650220
H           4.61157938160257    10.38768873928521    -9.76619423222178
H           3.95851272950489    11.95615720417167    -9.17044821556088
H          -0.41371696035858    13.00961500299836   -10.72759027066091
H          -1.09343755999063    11.73980743388541   -11.77102410949067
H          -1.38274745969422    11.71551168571863   -10.02681850343249
N           2.56205203201326    10.68048707943317    -9.96234243778334
N           1.61494887515352    11.62861112392568    -9.93620000655219
C           3.89681356515121     8.77492769725792    -6.45454067060523
C           3.27461871553720     9.88235652359385    -5.81873086311767
C           3.17357237942908    10.85038162908022    -6.80725194022497
C           4.27000897430805     7.46323932773003    -5.86413830603587
C           0.87894761878993     9.84999143402567   -11.09495559634413
C           2.16592791975873     9.58385676765831   -10.65056118699488
C           3.02178889439839     8.37824106711452   -10.77216565614375
C           2.87468733222715     9.99659323960491    -4.42351015332784
C           3.17010999034002    11.15284379332286    -3.70033388438375
C           2.80254189294611    11.27348205908433    -2.37545480454534
C           2.13165078968242    10.23276852141508    -1.73473871475525
C           1.85243675040921     9.06881713868387    -2.45064249214665
C           2.21265833508557     8.95321255711436    -3.77570997530928
C           1.71251342676496    10.27957370825450    -0.30781192026168
C           0.03788213311202     8.99824291150312   -11.92412480080372
C          -1.31857536864642     8.83818061149086   -11.64385868648909
C          -2.11296332491531     8.02942684263905   -12.43183308513607
C          -1.57024042762254     7.36633741577751   -13.53129282190941
C          -0.21902087843648     7.54351130760451   -13.82720978674048
C           0.57533632886208     8.34028139984510   -13.03193577932102
C          -2.36461760442989     6.49128050448817   -14.43546552050677
H           3.43228875440494     6.76808683133176    -5.92248342241020
H           3.82351146581213     8.54436743104162   -11.49338028597249
H           3.47353880622470     8.13685156409936    -9.80997941455830
H           2.42491216630990     7.53504990511502   -11.10934843496816
H           3.71580017859446    11.95269835382022    -4.17801578997503
H           3.08310042062350    12.17409677975928    -1.84291178674590
H           1.34182587506606     8.26629609782234    -1.94049059496911
H           1.96912020962330     8.05644358638218    -4.32359133402052
H          -1.74788934365398     9.34009140219969   -10.79048960814390
H          -3.16676044898920     7.95132747326340   -12.19402782826043
H           0.18507428039159     7.04116214301024   -14.69289627557200
H           1.61659621538592     8.47990732899337   -13.27931807558199
N           3.71727518472740    10.30930684900660    -7.92299312884363
N           4.15765686354064     9.06080547286967    -7.71410484592803
O           1.45841224201327     9.29461958983864     0.33112817148790
O          -3.50357065798214     5.97565029413950   -13.93081752685256
O          -2.02582865095091     6.23182084655721   -15.55818710175579
H           4.54823760879782     7.58093641504610    -4.81930913844698
H           5.10069452872592     7.03779841077172    -6.42083357190118
O           1.61535895804760    11.50022697294230     0.25637901460579
H          -3.63807018466885     6.21820827889155   -13.00538318864352
H           1.80234885261430    12.21103250301664    -0.37052653775786
57
 energy: -93.770442714931 gnorm: 0.000722622536 xtb: 6.3.0 (7ac954c)
C           2.56230034877603    12.20214929827291    -6.80478035770394
C           3.78835240789872    10.87848425524900    -9.24038776454283
C           0.58676966816230    11.15197934955591   -10.60814703942758
C          -0.64849857450081    11.95497763157135   -10.80438943035594
H           1.94899380038928    12.34141334272097    -7.69503161072887
H           1.94211191326999    12.32413187332646    -5.92069683038420
H           3.33288181466799    12.97472689440228    -6.79713164926260
H           4.61253389656923    10.38798300273342    -9.76598866694344
H           3.95887484033314    11.95663660770743    -9.17125050452637
H          -0.40885438724738    13.01252260508700   -10.73301445012217
H          -1.08936048071652    11.74295242202992   -11.77580179319412
H          -1.38148420188745    11.72121207034832   -10.03194716992671
N           2.56309540323501    10.68120293302579    -9.96339084533833
N           1.61565490167808    11.62892154673240    -9.93707840277571
C           3.89894996237317     8.77555334800233    -6.45436842245928
C           3.27543491354587     9.88210706799054    -5.81881866361842
C           3.17284205878668    10.84976322328782    -6.80760770275272
C           4.27600052592719     7.46509472290541    -5.86381162249660
C           0.87904188651900     9.85069586397319   -11.09522945064332
C           2.16548847927604     9.58371644029306   -10.64964173082315
C           3.01964108942798     8.37664199087166   -10.76876274822694
C           2.87488068060199     9.99576047675304    -4.42360480601751
C           3.16838989403489    11.15257986116742    -3.70063696211351
C           2.80040946330961    11.27299888841754    -2.37586405913429
C           2.13116346673351    10.23134452251780    -1.73494596309411
C           1.85390943520340     9.06679597681902    -2.45059716169846
C           2.21442788879749     8.95149295644279    -3.77564066665181
C           1.71220290086002    10.27784334106638    -0.30793902098599
C           0.03736322395366     8.99874786290708   -11.92378058987619
C          -1.31940284626114     8.84022454649191   -11.64416356544758
C          -2.11409294253179     8.03132937717415   -12.43174505185019
C          -1.57131021482756     7.36644586993563   -13.53007807735820
C          -0.21972689290167     7.54205379870388   -13.82532889369608
C           0.57482103342182     8.33908606148820   -13.03053058162296
C          -2.36581862962433     6.49115988150807   -14.43394490704875
H           3.44016430437761     6.76768585729903    -5.92143231244055
H           3.82116432807868     8.54010254394130   -11.49079088342626
H           3.47156967817839     8.13688083629239    -9.80626522621273
H           2.42153715962841     7.53336441056476   -11.10359770438769
H           3.71282137475983    11.95316500103018    -4.17849989080422
H           3.07945690969525    12.17419091720362    -1.84352357908651
H           1.34461953856476     8.26352363357018    -1.94026205879203
H           1.97253225110195     8.05404179761762    -4.32318209996507
H          -1.74895530833584     9.34363825762388   -10.79176933069994
H          -3.16813285208964     7.95450658479173   -12.19452921999594
H           0.18446444143339     7.03839281184229   -14.69019814455598
H           1.61635150933438     8.47751519573092   -13.27738457201206
N           3.71876880053570    10.31005069916226    -7.92308428115154
N           4.15868366237562     9.06147034906616    -7.71398936819788
O           1.45990389199217     9.29265888791777     0.33131824342231
O          -3.50587144963999     5.97738775499506   -13.92988446701821
O          -2.02610211188603     6.22989027385189   -15.55598146689580
H           4.55480430470539     7.58394876060090    -4.81931570779869
H           5.10760731535162     7.04181012459599    -6.42078416175947
O           1.61249531423630    11.49855386668654     0.25570758823055
H          -3.64116531738293     6.22122261787792   -13.00490239142471
H           1.79812671145393    12.20950572442709    -0.37144455995304
57
 energy: -93.770465070584 gnorm: 0.001475113668 xtb: 6.3.0 (7ac954c)
C           2.54953204105997    12.19574429194800    -6.80666136965336
C           3.78977678633429    10.87930210366565    -9.24104941995702
C           0.59094799407999    11.15704445757806   -10.61492760042879
C          -0.63881332488796    11.96644257588543   -10.81952852238473
H           1.93981757900165    12.33199402162449    -7.69984995896986
H           1.92373306265853    12.31181623876574    -5.92565212926969
H           3.31433680411747    12.97400089902797    -6.79385076793951
H           4.61453471589129    10.38846247320665    -9.76536081332238
H           3.95935993732183    11.95764285630428    -9.17306723812586
H          -0.39257458831434    13.02282574725218   -10.75248551252011
H          -1.07664539617262    11.75276637769091   -11.79192003030557
H          -1.37656955714181    11.74119241628171   -10.04913319955924
N           2.56536370082589    10.68243339197368    -9.96562790955955
N           1.62006314956768    11.63247628572534    -9.94358785162745
C           3.90841223598474     8.77829257366702    -6.45364645865848
C           3.27778535649319     9.88118871046196    -5.81916740977272
C           3.16983021104267    10.84772004006763    -6.80851641424414
C           4.29695901387210     7.47142735590036    -5.86248532967119
C           0.87917900531075     9.85276416221446   -11.09583214981050
C           2.16368109164831     9.58267046639291   -10.64643707381320
C           3.01247712916272     8.37098768132916   -10.75772731462387
C           2.87521575695177     9.99300646199692    -4.42416179253519
C           3.16161127899136    11.15208720485172    -3.70197034621929
C           2.79263222000203    11.27139194094842    -2.37739144469723
C           2.12946243040684    10.22620647995528    -1.73583407232801
C           1.85952801164480     9.05940620590684    -2.45060514400621
C           2.22108990684710     8.94520645797484    -3.77553833418846
C           1.71026114260359    10.27157533815597    -0.30880237798752
C           0.03568612477804     9.00017059157243   -11.92224698388605
C          -1.32230338952634     8.84777522832376   -11.64529940113779
C          -2.11801270174841     8.03835360337711   -12.43145592372166
C          -1.57502542527943     7.36696272213670   -13.52573954166620
C          -0.22211233721982     7.53668115997922   -13.81854125744466
C           0.57330660671518     8.33416724043425   -13.02511363524997
C          -2.37009960622319     6.49076431998420   -14.42829115766163
H           3.46748793613545     6.76637312742341    -5.91864522719392
H           3.81356973581999     8.52526396680579   -11.48228036208578
H           3.46497617393006     8.13669746226331    -9.79414377016342
H           2.41015773930637     7.52761508007632   -11.08491701015593
H           3.70142799682014    11.95544374203832    -4.18042784787355
H           3.06614727920513    12.17466608767414    -1.84569438484798
H           1.35496586834527     8.25344142999055    -1.93973239723127
H           1.98497856283116     8.04552939214432    -4.32208471614558
H          -1.75247587979474     9.35646004534335   -10.79626481086561
H          -3.17287824530937     7.96611420201304   -12.19632419369476
H           0.18237627756667     7.02812874791813   -14.68041522604679
H           1.61587922076467     8.46810394377703   -13.27004977997237
N           3.72180214861947    10.31182169550841    -7.92323411373207
N           4.16675535495150     9.06514343363863    -7.71310116133794
O           1.46550345010091     9.28541759150045     0.33190809988357
O          -3.51419433312102     5.98409919909543   -13.92616400299742
O          -2.02737185696082     6.22295148217310   -15.54791645887558
H           4.57610969198186     7.59378315866094    -4.81851319214559
H           5.13200946151031     7.05539076974908    -6.41989829455923
O           1.60247036596487    11.49234110363355     0.25332071622258
H          -3.65209692527153     6.23266129388994   -13.00281230456525
H           1.78284134072227    12.20385642544005    -0.37476918430072
57
 energy: -93.770485683861 gnorm: 0.001451932352 xtb: 6.3.0 (7ac954c)
C           2.53371343707588    12.18725499903548    -6.80967183049413
C           3.79113730908030    10.88009726176185    -9.24174400317810
C           0.59627530492165    11.16398742509873   -10.62421489430032
C          -0.62687735437479    11.98069793864450   -10.83998245001761
H           1.92861197498537    12.31999027437101    -7.70655358914861
H           1.90102636354658    12.29528447510494    -5.93244045506901
H           3.29072901184127    12.97296995891917    -6.79008805318210
H           4.61610798581775    10.38932473850410    -9.76598190928521
H           3.96064932287581    11.95856076948797    -9.17398676660580
H          -0.37252695757100    13.03559521672208   -10.77869803358043
H          -1.06091638124944    11.76400479714244   -11.81346387362770
H          -1.37076082914803    11.76653524285964   -10.07231647111552
N           2.56711860094649    10.68401341462358    -9.96697324099017
N           1.62560006469111    11.63816728935250    -9.95254064764154
C           3.92130837120400     8.78175271803851    -6.45252774721305
C           3.28069817464559     9.88006251422745    -5.81991337521664
C           3.16635196894493    10.84486999054934    -6.81019403521182
C           4.32408140481807     7.47982572601008    -5.85967381594362
C           0.87948114924514     9.85532679993439   -11.09635674653904
C           2.16154018798786     9.58186883317697   -10.64210482430877
C           3.00358893154802     8.36450109891517   -10.74335015005618
C           2.87609191877887     9.98975204042306    -4.42534482765006
C           3.15198344944965    11.15216170372858    -3.70427431561912
C           2.78169329962240    11.26954253797057    -2.37991194130894
C           2.12748532443884    10.21916394197636    -1.73751096903757
C           1.86786026184107     9.04933090247010    -2.45121385597586
C           2.23103981568396     8.93683641173204    -3.77590031693173
C           1.70842258206629    10.26236865416032    -0.31035187005824
C           0.03411228224147     9.00216318486404   -11.92023281657489
C          -1.32560165293585     8.85864222622856   -11.64699400723928
C          -2.12287278725029     8.04858358958436   -12.43098489310297
C          -1.57978788094712     7.36797082836202   -13.51956211628732
C          -0.22497123370850     7.52891749028353   -13.80883630989428
C           0.57197569190180     8.32674692633275   -13.01733770462368
C          -2.37609357797724     6.49065518012662   -14.41995793038389
H           3.50297752191986     6.76489021205631    -5.91390979399588
H           3.80408192395337     8.50659403579900   -11.47106742940498
H           3.45702251681937     8.13704722499655    -9.77853659121266
H           2.39556544181189     7.52140049950103   -11.06088077452961
H           3.68477459352923    11.95977466479033    -4.18351157841017
H           3.04752209590881    12.17552049457024    -1.84887122893208
H           1.37035202479218     8.23937270121891    -1.93965773779625
H           2.00323310402877     8.03433941947654    -4.32143301508323
H          -1.75612657325313     9.37476049207444   -10.80256189973882
H          -3.17889434956381     7.98320263158079   -12.19888732407829
H           0.17964939092163     7.01341464584474   -14.66654601778100
H           1.61613153896208     8.45368208818646   -13.25936829275794
N           3.72448682923610    10.31270546453278    -7.92395053066813
N           4.17832546159051     9.06938304718438    -7.71195049034047
O           1.47273075707735     9.27482147933569     0.33159860547849
O          -3.52569959176024     5.99429877922268   -13.92002760079366
O          -2.02969061613526     6.21337867250044   -15.53619917316260
H           4.60286224017477     7.60708628442467    -4.81613413798036
H           5.16357646104711     7.07288479889085    -6.41728975014511
O           1.58751550625940    11.48303484452055     0.24957209959752
H          -3.66675352595538     6.24978172416783   -12.99901238427161
H           1.76100599617653    12.19537888326549    -0.37955455442190
57
 energy: -93.770498117298 gnorm: 0.000837218547 xtb: 6.3.0 (7ac954c)
C           2.52392040018337    12.18118305585192    -6.81251854499853
C           3.79176270372084    10.88049620914878    -9.24213575282340
C           0.59983976544955    11.16892065756293   -10.63113337778948
C          -0.61937112319624    11.98936885656755   -10.85469683737829
H           1.92206343928232    12.31182355392231    -7.71184335997056
H           1.88676398061545    12.28361915458661    -5.93788997578285
H           3.27557402138132    12.97178308819431    -6.78827973816322
H           4.61635576278406    10.39017549630696    -9.76758852703965
H           3.96207973287307    11.95887211925315    -9.17347197159769
H          -0.36049090061819    13.04335262864252   -10.79760643135022
H          -1.05073719663416    11.76973871794361   -11.82874817947097
H          -1.36713330753870    11.78241437756513   -10.08895797363234
N           2.56743423909979    10.68545770382127    -9.96689813554025
N           1.62912219227916    11.64291808467273    -9.95921929594616
C           3.93071926775437     8.78416041530224    -6.45149746534642