LAMMPS (30 Mar 2018)
Reading data file ...
  orthogonal box = (0 0 0) to (46.7237 46.7237 46.7237)
  2 by 2 by 4 MPI processor grid
  reading atoms ...
  1804 atoms
  scanning bonds ...
  5 = max bonds/atom
  scanning angles ...
  10 = max angles/atom
  scanning dihedrals ...
  32 = max dihedrals/atom
  scanning impropers ...
  3 = max impropers/atom
  reading bonds ...
  2064 bonds
  reading angles ...
  3696 angles
  reading dihedrals ...
  6240 dihedrals
  reading impropers ...
  1008 impropers
Finding 1-2 1-3 1-4 neighbors ...
  special bond factors lj:   0          0          0         
  special bond factors coul: 0          0          0         
  5 = max # of 1-2 neighbors
  8 = max # of 1-3 neighbors
  20 = max # of 1-4 neighbors
  19 = max # of special neighbors
Finding 1-2 1-3 1-4 neighbors ...
  special bond factors lj:   0          0          1         
  special bond factors coul: 1          1          1         
  5 = max # of 1-2 neighbors
  8 = max # of 1-3 neighbors
  19 = max # of special neighbors
WARNING: Using 'neigh_modify every 1 delay 0 check yes' setting during minimization (../min.cpp:168)
Neighbor list info ...
  update every 1 steps, delay 0 steps, check yes
  max neighbors/atom: 2000, page size: 100000
  master list distance cutoff = 16
  ghost atom cutoff = 16
  binsize = 8, bins = 6 6 6
  3 neighbor lists, perpetual/occasional/extra = 3 0 0
  (1) pair buck6d/coul/gauss/dsf, perpetual, skip from (3)
      attributes: half, newton on
      pair build: skip
      stencil: none
      bin: none
  (2) pair lj/cut, perpetual, skip from (3)
      attributes: half, newton on
      pair build: skip
      stencil: none
      bin: none
  (3) neighbor class addition, perpetual
      attributes: half, newton on
      pair build: half/bin/newton
      stencil: half/bin/3d/newton
      bin: standard
Setting up cg style minimization ...
  Unit style    : real
  Current step  : 0
WARNING: Inconsistent image flags (../domain.cpp:786)
Per MPI rank memory allocation (min/avg/max) = 22.9 | 23.35 | 23.8 Mbytes
Step Temp E_pair E_mol TotEng Press 
       0            0    -11743.03    6482.8914   -5260.1384    6179.2187 
     504            0   -11775.715    3727.0319   -8048.6832   -542.54857 
Loop time of 2.76115 on 16 procs for 504 steps with 1804 atoms

99.8% CPU use with 16 MPI tasks x no OpenMP threads

Minimization stats:
  Stopping criterion = max force evaluations
  Energy initial, next-to-last, final = 
        -5260.13840399     -8048.66501525     -8048.68320399
  Force two-norm initial, final = 2576.5 6.47602
  Force max component initial, final = 151.978 0.987139
  Final line search alpha, max atom move = 0.00432759 0.00427194
  Iterations, force evaluations = 504 1001

MPI task timing breakdown:
Section |  min time  |  avg time  |  max time  |%varavg| %total
---------------------------------------------------------------
Pair    | 1.2326     | 1.6315     | 2.0268     |  16.6 | 59.09
Bond    | 0.28794    | 0.35974    | 0.44286    |   7.8 | 13.03
Neigh   | 0.015045   | 0.015185   | 0.015403   |   0.1 |  0.55
Comm    | 0.29045    | 0.71669    | 1.1325     |  25.9 | 25.96
Output  | 0          | 0          | 0          |   0.0 |  0.00
Modify  | 0          | 0          | 0          |   0.0 |  0.00
Other   |            | 0.03808    |            |       |  1.38

Nlocal:    112.75 ave 138 max 91 min
Histogram: 2 2 1 1 2 2 1 4 0 1
Nghost:    2257.75 ave 2277 max 2233 min
Histogram: 1 0 4 1 2 1 1 1 0 5
Neighs:    11461.8 ave 14949 max 7601 min
Histogram: 2 1 3 1 0 1 1 3 1 3

Total # of neighbors = 183389
Ave neighs/atom = 101.657
Ave special neighs/atom = 6.38581
Neighbor list builds = 12
Dangerous builds = 0
Neighbor list info ...
  update every 1 steps, delay 10 steps, check yes
  max neighbors/atom: 2000, page size: 100000
  master list distance cutoff = 16
  ghost atom cutoff = 16
  binsize = 8, bins = 6 6 6
  3 neighbor lists, perpetual/occasional/extra = 3 0 0
  (1) pair buck6d/coul/gauss/dsf, perpetual, skip from (3)
      attributes: half, newton on
      pair build: skip
      stencil: none
      bin: none
  (2) pair lj/cut, perpetual, skip from (3)
      attributes: half, newton on
      pair build: skip
      stencil: none
      bin: none
  (3) neighbor class addition, perpetual
      attributes: half, newton on
      pair build: half/bin/newton
      stencil: half/bin/3d/newton
      bin: standard
Setting up Verlet run ...
  Unit style    : real
  Current step  : 504
  Time step     : 1
WARNING: Inconsistent image flags (../domain.cpp:786)
Per MPI rank memory allocation (min/avg/max) = 22.54 | 22.63 | 22.73 Mbytes
Step Temp PotEng TotEng Press Volume Lx Ly Lz 
     504           91   -8048.6832   -7559.6128   -323.37277     102002.7      46.7237      46.7237      46.7237 
    1000    83.173311   -7634.1045   -7187.0978   -588.18012     102002.7      46.7237      46.7237      46.7237 
    2000     92.17545   -7538.0202   -7042.6324    -646.9736     102002.7      46.7237      46.7237      46.7237 
    3000    88.712515   -7524.1104   -7047.3338   -1325.8854     102002.7      46.7237      46.7237      46.7237 
    4000    88.454662   -7547.0417   -7071.6509   -614.69942     102002.7      46.7237      46.7237      46.7237 
    5000    93.142449   -7544.5155   -7043.9307   -1065.4888     102002.7      46.7237      46.7237      46.7237 
    6000    87.129975   -7560.4314     -7092.16   -602.97618     102002.7      46.7237      46.7237      46.7237 
    7000    89.815422   -7530.9675   -7048.2635   -665.06101     102002.7      46.7237      46.7237      46.7237 
    8000    89.112661   -7538.2818   -7059.3547   -962.57804     102002.7      46.7237      46.7237      46.7237 
    9000       89.954   -7554.1362   -7070.6874    -541.5592     102002.7      46.7237      46.7237      46.7237 
   10000    90.323562    -7526.882    -7041.447   -758.94797     102002.7      46.7237      46.7237      46.7237 
   11000    89.483786   -7543.2984   -7062.3767   -912.97816     102002.7      46.7237      46.7237      46.7237 
   12000    92.851543   -7526.7199   -7027.6985   -634.19882     102002.7      46.7237      46.7237      46.7237 
   13000    90.500446   -7552.1054   -7065.7197   -913.94794     102002.7      46.7237      46.7237      46.7237 
   14000    90.806351   -7537.4726   -7049.4429   -859.71296     102002.7      46.7237      46.7237      46.7237 
   15000    91.449991    -7545.606   -7054.1172   -939.11881     102002.7      46.7237      46.7237      46.7237 
   16000    92.461498   -7538.5629   -7041.6378   -824.58838     102002.7      46.7237      46.7237      46.7237 
   17000    91.307711   -7546.3549   -7055.6307   -815.88551     102002.7      46.7237      46.7237      46.7237 
   18000    90.173884   -7552.3184   -7067.6879   -582.00364     102002.7      46.7237      46.7237      46.7237 
   19000    94.324453   -7546.9764    -7040.039   -1008.5526     102002.7      46.7237      46.7237      46.7237 
   20000    91.990292   -7556.7772   -7062.3846   -627.39954     102002.7      46.7237      46.7237      46.7237 
   21000    91.324452   -7558.7064   -7067.8922    -814.1147     102002.7      46.7237      46.7237      46.7237 
   22000    91.620508    -7539.932   -7047.5267   -1037.0602     102002.7      46.7237      46.7237      46.7237 
   23000    90.136845   -7532.5289   -7048.0974   -575.66279     102002.7      46.7237      46.7237      46.7237 
   24000    90.618342   -7543.6345   -7056.6153   -781.01831     102002.7      46.7237      46.7237      46.7237 
   25000    92.305509   -7538.5598    -7042.473   -588.17746     102002.7      46.7237      46.7237      46.7237 
   26000    89.465823   -7551.6108   -7070.7857   -678.72222     102002.7      46.7237      46.7237      46.7237 
   27000     91.85582   -7537.3801   -7043.7102   -597.23882     102002.7      46.7237      46.7237      46.7237 
   28000    93.596595   -7553.2281   -7050.2025   -480.37587     102002.7      46.7237      46.7237      46.7237 
   29000    88.899178   -7531.2882   -7053.5084   -747.16834     102002.7      46.7237      46.7237      46.7237 
   30000    92.201864    -7542.234   -7046.7043    -473.7656     102002.7      46.7237      46.7237      46.7237 
   31000    90.736811   -7544.7565   -7057.1005    -908.5574     102002.7      46.7237      46.7237      46.7237 
   32000    88.891708   -7543.2139   -7065.4743   -563.00324     102002.7      46.7237      46.7237      46.7237 
   33000    89.962401   -7521.5854   -7038.0914   -556.58958     102002.7      46.7237      46.7237      46.7237 
   34000    90.293386   -7557.9935   -7072.7206   -846.98574     102002.7      46.7237      46.7237      46.7237 
   35000     92.82773   -7541.8256   -7042.9322   -772.09912     102002.7      46.7237      46.7237      46.7237 
   36000    90.985065   -7557.7474   -7068.7573   -927.80486     102002.7      46.7237      46.7237      46.7237 
   37000    92.414257   -7548.2772   -7051.6059   -564.10477     102002.7      46.7237      46.7237      46.7237 
   38000    89.899739   -7542.9957   -7059.8385   -701.53832     102002.7      46.7237      46.7237      46.7237 
   39000    92.290675   -7524.6796   -7028.6726   -630.83544     102002.7      46.7237      46.7237      46.7237 
   40000    91.974915   -7541.2611   -7046.9511   -578.56467     102002.7      46.7237      46.7237      46.7237 
   41000    91.935062   -7557.2554   -7063.1595   -850.04698     102002.7      46.7237      46.7237      46.7237 
   42000    88.262767   -7540.1764   -7065.8169   -670.33045     102002.7      46.7237      46.7237      46.7237 
   43000    87.736348   -7556.8559   -7085.3256   -526.63633     102002.7      46.7237      46.7237      46.7237 
   44000    92.169782   -7542.3234   -7046.9661   -575.12551     102002.7      46.7237      46.7237      46.7237 
   45000    88.087331   -7550.9323   -7077.5157   -826.98724     102002.7      46.7237      46.7237      46.7237 
   46000    91.089383   -7556.1252   -7066.5743   -654.93942     102002.7      46.7237      46.7237      46.7237 
   47000    91.946037   -7531.3588    -7037.204   -727.64077     102002.7      46.7237      46.7237      46.7237 
   48000    88.576488   -7543.2355   -7067.1899   -710.88025     102002.7      46.7237      46.7237      46.7237 
   49000    88.819735   -7540.0613   -7062.7085   -623.43785     102002.7      46.7237      46.7237      46.7237 
   50000    91.411157   -7551.9571   -7060.6769   -677.88272     102002.7      46.7237      46.7237      46.7237 
   51000     91.42117   -7537.7304   -7046.3964   -634.37961     102002.7      46.7237      46.7237      46.7237 
   52000    89.682244   -7533.8355   -7051.8472   -626.25146     102002.7      46.7237      46.7237      46.7237 
   53000    89.117626   -7531.9308    -7052.977     -659.869     102002.7      46.7237      46.7237      46.7237 
   54000    86.915314   -7556.3408   -7089.2231     -559.175     102002.7      46.7237      46.7237      46.7237 
   55000    91.857913   -7535.3943   -7041.7131   -803.22094     102002.7      46.7237      46.7237      46.7237 
   56000    91.329036   -7539.9733   -7049.1345   -433.23257     102002.7      46.7237      46.7237      46.7237 
   57000    91.953285   -7532.5871   -7038.3933   -746.94935     102002.7      46.7237      46.7237      46.7237 
   58000    89.709509   -7544.2102   -7062.0754   -971.71101     102002.7      46.7237      46.7237      46.7237 
   59000    91.476811   -7551.2896   -7059.6566   -760.57726     102002.7      46.7237      46.7237      46.7237 
   60000    91.374926   -7542.0451   -7050.9596   -869.62513     102002.7      46.7237      46.7237      46.7237 
   61000    86.517076   -7552.4027   -7087.4253   -645.39748     102002.7      46.7237      46.7237      46.7237 
   62000    91.540147   -7536.1552   -7044.1818   -852.95611     102002.7      46.7237      46.7237      46.7237 
   63000    89.968318   -7543.7106   -7060.1848   -567.09778     102002.7      46.7237      46.7237      46.7237 
   64000    93.015136   -7536.0253   -7036.1247   -764.99567     102002.7      46.7237      46.7237      46.7237 
   65000    88.864966   -7523.6961   -7046.1002   -602.35551     102002.7      46.7237      46.7237      46.7237 
   66000    90.920872   -7553.6894   -7065.0442   -592.07258     102002.7      46.7237      46.7237      46.7237 
   67000    89.576927   -7533.8409   -7052.4186   -665.87595     102002.7      46.7237      46.7237      46.7237 
   68000    89.245859   -7540.6625   -7061.0195   -604.90354     102002.7      46.7237      46.7237      46.7237 
   69000    88.066183   -7522.9928   -7049.6899   -714.38995     102002.7      46.7237      46.7237      46.7237 
   70000     88.42033   -7553.1954   -7077.9891   -620.03887     102002.7      46.7237      46.7237      46.7237 
   71000    93.106282   -7542.3315    -7041.941   -724.97052     102002.7      46.7237      46.7237      46.7237 
   72000    88.129788   -7557.7911   -7084.1463   -835.20962     102002.7      46.7237      46.7237      46.7237 
   73000     91.15971   -7548.8225   -7058.8937   -633.32624     102002.7      46.7237      46.7237      46.7237 
   74000    93.801621   -7554.0161   -7049.8886   -724.67455     102002.7      46.7237      46.7237      46.7237 
   75000     87.71224   -7565.1219   -7093.7211   -788.00649     102002.7      46.7237      46.7237      46.7237 
   76000    89.732295   -7522.2798   -7040.0225   -754.15643     102002.7      46.7237      46.7237      46.7237 
   77000    88.914612   -7537.1547    -7059.292   -1112.7112     102002.7      46.7237      46.7237      46.7237 
   78000    90.340753   -7549.2435   -7063.7161   -778.66555     102002.7      46.7237      46.7237      46.7237 
   79000    94.062516   -7535.8433   -7030.3137   -954.00801     102002.7      46.7237      46.7237      46.7237 
   80000    89.795618   -7544.0665   -7061.4689   -771.05384     102002.7      46.7237      46.7237      46.7237 
   81000    96.371273   -7559.7893   -7041.8515   -461.89117     102002.7      46.7237      46.7237      46.7237 
   82000    89.947928   -7533.7613   -7050.3451   -946.07298     102002.7      46.7237      46.7237      46.7237 
   83000    90.090631    -7539.491   -7055.3079   -649.90659     102002.7      46.7237      46.7237      46.7237 
   84000    94.194328   -7564.7825   -7058.5444   -619.10985     102002.7      46.7237      46.7237      46.7237 
   85000    92.971966   -7535.3117   -7035.6431   -487.66677     102002.7      46.7237      46.7237      46.7237 
   86000    87.751995   -7547.9281   -7076.3137   -526.97006     102002.7      46.7237      46.7237      46.7237 
   87000    93.303522   -7545.1354   -7043.6849   -572.02191     102002.7      46.7237      46.7237      46.7237 
   88000    93.258799   -7527.0854   -7025.8752   -602.52442     102002.7      46.7237      46.7237      46.7237 
   89000    87.733248    -7531.275   -7059.7614   -820.59097     102002.7      46.7237      46.7237      46.7237 
   90000    94.051854   -7547.2201   -7041.7477   -602.24357     102002.7      46.7237      46.7237      46.7237 
   91000    93.585009   -7555.2057   -7052.2424    -587.3656     102002.7      46.7237      46.7237      46.7237 
   92000    89.706894   -7537.2107   -7055.0899   -678.18992     102002.7      46.7237      46.7237      46.7237 
   93000    92.783663   -7535.9106   -7037.2541   -470.10567     102002.7      46.7237      46.7237      46.7237 
   94000    90.462355   -7534.9105   -7048.7296   -565.11526     102002.7      46.7237      46.7237      46.7237 
   95000    88.016419   -7542.0444   -7069.0089   -750.87339     102002.7      46.7237      46.7237      46.7237 
   96000    90.615041   -7538.3722   -7051.3707   -680.32145     102002.7      46.7237      46.7237      46.7237 
   97000    93.472289   -7544.9863   -7042.6288   -969.27151     102002.7      46.7237      46.7237      46.7237 
   98000    87.106913   -7531.9537   -7063.8063   -766.30274     102002.7      46.7237      46.7237      46.7237 
   99000    91.107438   -7555.7112   -7066.0634   -642.27942     102002.7      46.7237      46.7237      46.7237 
  100000    90.519989   -7532.0409   -7045.5502   -868.27323     102002.7      46.7237      46.7237      46.7237 
  101000    89.524012   -7534.0707   -7052.9328   -592.40715     102002.7      46.7237      46.7237      46.7237 
  102000     91.67211   -7541.0128   -7048.3302   -973.68178     102002.7      46.7237      46.7237      46.7237 
  103000    90.090581   -7539.6638    -7055.481   -612.21529     102002.7      46.7237      46.7237      46.7237 
  104000    88.905712   -7548.7222   -7070.9073    -454.4325     102002.7      46.7237      46.7237      46.7237 
  105000    91.431869   -7544.2906   -7052.8991   -482.24079     102002.7      46.7237      46.7237      46.7237 
  106000    94.117484   -7543.8153   -7037.9902   -449.49335     102002.7      46.7237      46.7237      46.7237 
  107000    90.433261   -7553.1845   -7067.1599   -700.91194     102002.7      46.7237      46.7237      46.7237 
  108000    95.463791   -7541.0594   -7027.9987   -509.48014     102002.7      46.7237      46.7237      46.7237 
  109000    90.400533   -7538.9752   -7053.1265   -683.74595     102002.7      46.7237      46.7237      46.7237 
  110000    93.993784   -7537.4608   -7032.3006   -642.04307     102002.7      46.7237      46.7237      46.7237 
  111000    90.788955   -7549.8048   -7061.8686    -785.1627     102002.7      46.7237      46.7237      46.7237 
  112000    90.572186   -7550.5815   -7063.8103   -644.55355     102002.7      46.7237      46.7237      46.7237 
  113000    92.658216   -7537.2015   -7039.2191   -561.92246     102002.7      46.7237      46.7237      46.7237 
  114000    92.575109   -7553.7376   -7056.2019   -660.50017     102002.7      46.7237      46.7237      46.7237 
  115000    89.995158   -7550.6329   -7066.9629   -679.00078     102002.7      46.7237      46.7237      46.7237 
  116000    89.942684   -7538.8737   -7055.4857   -591.39644     102002.7      46.7237      46.7237      46.7237 
  117000    89.698171   -7528.6516   -7046.5777    -492.1991     102002.7      46.7237      46.7237      46.7237 
  118000    86.870568   -7545.4244   -7078.5472   -696.33573     102002.7      46.7237      46.7237      46.7237 
  119000    88.939254   -7540.7144   -7062.7192   -693.72969     102002.7      46.7237      46.7237      46.7237 
  120000    91.781875   -7536.7784   -7043.5058   -749.51032     102002.7      46.7237      46.7237      46.7237 
  121000    89.238491   -7519.6284    -7040.025   -745.36997     102002.7      46.7237      46.7237      46.7237 
  122000    88.294992   -7548.5258   -7073.9931    -674.5999     102002.7      46.7237      46.7237      46.7237 
  123000    87.218746   -7518.0996   -7049.3511   -743.80317     102002.7      46.7237      46.7237      46.7237 
  124000    88.589019   -7541.0077   -7064.8948   -655.57521     102002.7      46.7237      46.7237      46.7237 
  125000    94.304023   -7566.9723   -7060.1447   -760.13017     102002.7      46.7237      46.7237      46.7237 
  126000     91.74376   -7537.6134   -7044.5457   -915.68165     102002.7      46.7237      46.7237      46.7237 
  127000    87.743758   -7546.3739   -7074.8038   -730.31782     102002.7      46.7237      46.7237      46.7237 
  128000    91.639885   -7545.7401   -7053.2306    -605.6818     102002.7      46.7237      46.7237      46.7237 
  129000    92.803768    -7535.681   -7036.9164   -562.50684     102002.7      46.7237      46.7237      46.7237 
  130000    90.067933   -7549.4463   -7065.3852   -657.95242     102002.7      46.7237      46.7237      46.7237 
  131000    90.134314   -7534.2095   -7049.7916   -901.29482     102002.7      46.7237      46.7237      46.7237 
  132000    89.847887    -7552.476   -7069.5975   -789.04681     102002.7      46.7237      46.7237      46.7237 
  133000    89.249071   -7533.1389   -7053.4787   -791.66075     102002.7      46.7237      46.7237      46.7237 
  134000     90.17217   -7531.9138   -7047.2925   -751.79763     102002.7      46.7237      46.7237      46.7237 
  135000    92.616905   -7521.3178   -7023.5575   -785.12189     102002.7      46.7237      46.7237      46.7237 
  136000    92.034988   -7553.1133   -7058.4804   -612.70801     102002.7      46.7237      46.7237      46.7237 
  137000    94.099059   -7534.8143   -7029.0883   -461.61999     102002.7      46.7237      46.7237      46.7237 
  138000    89.903368   -7536.0452   -7052.8685   -558.42717     102002.7      46.7237      46.7237      46.7237 
  139000    89.185644   -7531.9753   -7052.6559   -600.94213     102002.7      46.7237      46.7237      46.7237 
  140000    93.923512   -7541.3505   -7036.5679    -513.0521     102002.7      46.7237      46.7237      46.7237 
  141000    90.179553   -7548.5484   -7063.8873   -560.50913     102002.7      46.7237      46.7237      46.7237 
  142000    88.274256   -7530.6482    -7056.227   -767.22246     102002.7      46.7237      46.7237      46.7237 
  143000    89.206988    -7517.279   -7037.8449   -863.98262     102002.7      46.7237      46.7237      46.7237 
  144000    90.275294   -7540.7573   -7055.5817   -625.27622     102002.7      46.7237      46.7237      46.7237 
  145000    90.877047   -7532.4652   -7044.0556   -877.79734     102002.7      46.7237      46.7237      46.7237 
  146000    89.755555   -7544.7518   -7062.3695   -448.70078     102002.7      46.7237      46.7237      46.7237 
  147000    90.729339   -7542.8375   -7055.2217   -669.67185     102002.7      46.7237      46.7237      46.7237 
  148000    89.954609   -7537.5741    -7054.122   -681.23984     102002.7      46.7237      46.7237      46.7237 
  149000    94.893505   -7538.4646   -7028.4689   -685.34007     102002.7      46.7237      46.7237      46.7237 
  150000    91.976011   -7561.1352   -7066.8192   -905.52631     102002.7      46.7237      46.7237      46.7237 
  151000    89.946527   -7547.5427   -7064.1341   -688.76184     102002.7      46.7237      46.7237      46.7237 
  152000    90.287813   -7539.9408    -7054.698   -626.69071     102002.7      46.7237      46.7237      46.7237 
  153000    87.568971   -7525.5433   -7054.9126    -554.3635     102002.7      46.7237      46.7237      46.7237 
  154000     94.19141   -7523.0659   -7016.8436   -549.01019     102002.7      46.7237      46.7237      46.7237 
  155000    89.128014   -7544.5796     -7065.57    -748.3798     102002.7      46.7237      46.7237      46.7237 
  156000    90.831186   -7524.3201   -7036.1569    -609.7839     102002.7      46.7237      46.7237      46.7237 
  157000    88.057585   -7535.5492   -7062.2924     -721.562     102002.7      46.7237      46.7237      46.7237 
  158000    93.905106    -7526.685   -7022.0014   -632.68349     102002.7      46.7237      46.7237      46.7237 
  159000    91.022865   -7528.7929   -7039.5996   -501.82655     102002.7      46.7237      46.7237      46.7237 
  160000    90.232851   -7559.2807   -7074.3332   -807.08711     102002.7      46.7237      46.7237      46.7237 
  161000    92.186126   -7532.6895   -7037.2444    -554.9213     102002.7      46.7237      46.7237      46.7237 
  162000    88.663139   -7558.3489   -7081.8377   -634.91225     102002.7      46.7237      46.7237      46.7237 
  163000     89.87681   -7529.4343   -7046.4003   -921.29535     102002.7      46.7237      46.7237      46.7237 
  164000    92.314875   -7545.2921    -7049.155   -641.60703     102002.7      46.7237      46.7237      46.7237 
  165000    87.362211   -7544.1058   -7074.5862   -654.73414     102002.7      46.7237      46.7237      46.7237 
  166000    94.006395   -7548.0962   -7042.8682   -837.71718     102002.7      46.7237      46.7237      46.7237 
  167000    89.166772   -7533.9171   -7054.6991   -640.54949     102002.7      46.7237      46.7237      46.7237 
  168000    91.331823   -7549.8671   -7059.0133   -818.44895     102002.7      46.7237      46.7237      46.7237 
  169000    90.094838   -7526.2756   -7042.0699   -808.68904     102002.7      46.7237      46.7237      46.7237 
  170000    89.355109   -7536.5617   -7056.3315    -567.7995     102002.7      46.7237      46.7237      46.7237 
  171000    95.046062   -7536.4454   -7025.6298   -968.29412     102002.7      46.7237      46.7237      46.7237 
  172000    91.039376   -7543.8771   -7054.5951   -652.99255     102002.7      46.7237      46.7237      46.7237 
  173000    88.438211   -7542.2597   -7066.9573   -888.98329     102002.7      46.7237      46.7237      46.7237 
  174000    90.566506   -7529.9467    -7043.206   -727.16028     102002.7      46.7237      46.7237      46.7237 
  175000    89.975471   -7530.7932    -7047.229    -727.4794     102002.7      46.7237      46.7237      46.7237 
  176000    87.690917   -7541.6574   -7070.3713   -490.78457     102002.7      46.7237      46.7237      46.7237 
  177000    91.653114   -7544.0127   -7051.4322   -626.11604     102002.7      46.7237      46.7237      46.7237 
  178000    91.691737   -7557.3358   -7064.5476   -776.85975     102002.7      46.7237      46.7237      46.7237 
  179000    93.019033   -7516.0418   -7016.1202    -730.2213     102002.7      46.7237      46.7237      46.7237 
  180000    89.470678    -7550.951   -7070.0997    -680.1972     102002.7      46.7237      46.7237      46.7237 
  181000    91.181468   -7549.2428   -7059.1971    -683.7133     102002.7      46.7237      46.7237      46.7237 
  182000    94.959966   -7522.6257   -7012.2728   -777.85228     102002.7      46.7237      46.7237      46.7237 
  183000    91.577436   -7551.3613   -7059.1875   -638.38668     102002.7      46.7237      46.7237      46.7237 
  184000    90.643351   -7528.3398   -7041.1861   -701.40702     102002.7      46.7237      46.7237      46.7237 
  185000    89.907066   -7550.9063   -7067.7097   -633.44012     102002.7      46.7237      46.7237      46.7237 
  186000    89.675384   -7547.1804    -7065.229   -791.46347     102002.7      46.7237      46.7237      46.7237 
  187000    90.197182   -7540.4454   -7055.6896   -614.93304     102002.7      46.7237      46.7237      46.7237 
  188000    93.364448   -7541.2261   -7039.4482   -440.78037     102002.7      46.7237      46.7237      46.7237 
  189000    88.996782   -7534.9904    -7056.686   -610.59164     102002.7      46.7237      46.7237      46.7237 
  190000    91.587504   -7534.7543   -7042.5263   -358.68844     102002.7      46.7237      46.7237      46.7237 
  191000    89.424209   -7542.5152   -7061.9137   -464.79294     102002.7      46.7237      46.7237      46.7237 
  192000    92.133191   -7524.6906     -7029.53   -750.14191     102002.7      46.7237      46.7237      46.7237 
  193000    87.743839    -7524.889   -7053.3185   -635.34762     102002.7      46.7237      46.7237      46.7237 
  194000     89.58909     -7535.52   -7054.0324   -695.76148     102002.7      46.7237      46.7237      46.7237 
  195000    92.384171   -7538.5975    -7042.088   -517.25143     102002.7      46.7237      46.7237      46.7237 
  196000    91.565754   -7542.3243   -7050.2133   -676.90294     102002.7      46.7237      46.7237      46.7237 
  197000    86.796695   -7551.8213   -7085.3411   -526.94309     102002.7      46.7237      46.7237      46.7237 
  198000    92.503218   -7544.7641   -7047.6148   -600.91127     102002.7      46.7237      46.7237      46.7237 
  199000    89.816092   -7528.3581   -7045.6505   -504.97954     102002.7      46.7237      46.7237      46.7237 
  200000    88.891491   -7550.3376   -7072.5991   -625.79917     102002.7      46.7237      46.7237      46.7237 
  201000    90.451984   -7529.9139   -7043.7887   -751.35262     102002.7      46.7237      46.7237      46.7237 
  202000    93.288113   -7561.1245   -7059.7569   -280.90217     102002.7      46.7237      46.7237      46.7237 
  203000    91.410378   -7544.3519   -7053.0759   -428.89656     102002.7      46.7237      46.7237      46.7237 
  204000    90.924349   -7530.6569    -7041.993   -583.35038     102002.7      46.7237      46.7237      46.7237 
  205000    90.155606   -7556.5268   -7071.9945   -532.47716     102002.7      46.7237      46.7237      46.7237 
  206000    90.791948   -7541.5903    -7053.638   -633.70709     102002.7      46.7237      46.7237      46.7237 
  207000    91.039037   -7553.0748   -7063.7946   -653.63276     102002.7      46.7237      46.7237      46.7237 
  208000    94.971952   -7552.4977   -7042.0804   -429.54773     102002.7      46.7237      46.7237      46.7237 
  209000    90.989903   -7556.6207   -7067.6045   -570.82613     102002.7      46.7237      46.7237      46.7237 
  210000    92.890935    -7531.145   -7031.9119   -743.47125     102002.7      46.7237      46.7237      46.7237 
  211000    88.611736    -7547.267    -7071.032   -611.85255     102002.7      46.7237      46.7237      46.7237 
  212000    89.444049   -7537.8888   -7057.1806   -721.19454     102002.7      46.7237      46.7237      46.7237 
  213000    90.975515   -7557.2335   -7068.2946    -703.3546     102002.7      46.7237      46.7237      46.7237 
  214000    90.844333   -7539.0209   -7050.7871   -596.99376     102002.7      46.7237      46.7237      46.7237 
  215000    92.907957   -7551.3336    -7052.009   -805.57703     102002.7      46.7237      46.7237      46.7237 
  216000    90.558306   -7553.0053   -7066.3087    -761.7133     102002.7      46.7237      46.7237      46.7237 
  217000    93.324326   -7540.5803   -7039.0179   -803.37958     102002.7      46.7237      46.7237      46.7237 
  218000    88.679683   -7547.5781    -7070.978   -705.19421     102002.7      46.7237      46.7237      46.7237 
  219000    90.427891   -7536.3532   -7050.3575   -548.27748     102002.7      46.7237      46.7237      46.7237 
  220000    91.836356   -7536.3137   -7042.7483   -815.65712     102002.7      46.7237      46.7237      46.7237 
  221000    91.244026   -7556.1604   -7065.7784    -624.1366     102002.7      46.7237      46.7237      46.7237 
  222000    87.446452   -7557.7672   -7087.7949   -718.12655     102002.7      46.7237      46.7237      46.7237 
  223000    91.703806   -7539.7709   -7046.9179   -447.08351     102002.7      46.7237      46.7237      46.7237 
  224000    89.623856   -7549.1873   -7067.5128   -746.40276     102002.7      46.7237      46.7237      46.7237 
  225000    93.311851   -7538.6133   -7037.1181   -702.01559     102002.7      46.7237      46.7237      46.7237 
  226000    91.000816   -7553.8873   -7064.8125   -727.20568     102002.7      46.7237      46.7237      46.7237 
  227000    90.547603   -7537.2191     -7050.58   -675.26889     102002.7      46.7237      46.7237      46.7237 
  228000     91.12695   -7550.9154   -7061.1627   -647.75571     102002.7      46.7237      46.7237      46.7237 
  229000     90.92706   -7530.4518   -7041.7733   -857.92957     102002.7      46.7237      46.7237      46.7237 
  230000    90.547324   -7542.6776     -7056.04   -707.40497     102002.7      46.7237      46.7237      46.7237 
  231000    91.808897   -7531.4569   -7038.0391   -742.49816     102002.7      46.7237      46.7237      46.7237 
  232000    92.409919   -7529.1672   -7032.5193   -762.04436     102002.7      46.7237      46.7237      46.7237 
  233000    88.528314   -7538.0158   -7062.2292   -346.35042     102002.7      46.7237      46.7237      46.7237 
  234000    89.755044   -7535.6451   -7053.2656   -957.35475     102002.7      46.7237      46.7237      46.7237 
  235000    93.379645   -7542.9941   -7041.1345   -641.34622     102002.7      46.7237      46.7237      46.7237 
  236000    88.302972   -7556.1676   -7081.5921   -374.03135     102002.7      46.7237      46.7237      46.7237 
  237000    91.394665   -7545.8896   -7054.6981   -614.24684     102002.7      46.7237      46.7237      46.7237 
  238000    88.380256   -7538.1313   -7063.1404   -455.30078     102002.7      46.7237      46.7237      46.7237 
  239000    90.203101   -7537.2268   -7052.4392   -566.42546     102002.7      46.7237      46.7237      46.7237 
  240000    90.659903   -7546.0686   -7058.8259   -550.72282     102002.7      46.7237      46.7237      46.7237 
  241000    92.058085   -7539.8776   -7045.1206   -742.30526     102002.7      46.7237      46.7237      46.7237 
  242000    91.392073   -7536.6195   -7045.4419   -502.18586     102002.7      46.7237      46.7237      46.7237 
  243000    90.080574   -7546.4825   -7062.3534    -718.6823     102002.7      46.7237      46.7237      46.7237 
  244000      90.0584    -7547.765   -7063.7551   -555.62969     102002.7      46.7237      46.7237      46.7237 
  245000    91.696719   -7535.9685   -7043.1536   -327.32093     102002.7      46.7237      46.7237      46.7237 
  246000    91.584734   -7557.4309   -7065.2179   -691.46945     102002.7      46.7237      46.7237      46.7237 
  247000    89.121748   -7550.3599   -7071.3839   -418.38589     102002.7      46.7237      46.7237      46.7237 
  248000     91.53906   -7549.8742   -7057.9066   -750.52411     102002.7      46.7237      46.7237      46.7237 
  249000    91.445022   -7550.1927   -7058.7305   -812.07626     102002.7      46.7237      46.7237      46.7237 
  250000    91.066792   -7547.9896   -7058.5602   -591.62076     102002.7      46.7237      46.7237      46.7237 
  251000    88.102763   -7540.0054   -7066.5058   -544.05839     102002.7      46.7237      46.7237      46.7237 
  252000    90.039668   -7547.3976   -7063.4884   -617.33207     102002.7      46.7237      46.7237      46.7237 
  253000    92.314601   -7545.6468   -7049.5111   -808.77043     102002.7      46.7237      46.7237      46.7237 
  254000    91.370372   -7531.0335   -7039.9726   -764.57724     102002.7      46.7237      46.7237      46.7237 
  255000    93.663828   -7544.1126   -7040.7257   -532.78874     102002.7      46.7237      46.7237      46.7237 
  256000    92.531558   -7550.5341   -7053.2324   -621.77163     102002.7      46.7237      46.7237      46.7237 
  257000    90.268073   -7538.6996   -7053.5629    -751.2228     102002.7      46.7237      46.7237      46.7237 
  258000    93.073351   -7551.8291   -7051.6156    -743.6743     102002.7      46.7237      46.7237      46.7237 
  259000    91.523992   -7553.4452   -7061.5586   -729.02695     102002.7      46.7237      46.7237      46.7237 
  260000    90.318408   -7560.9488   -7075.5415   -924.24041     102002.7      46.7237      46.7237      46.7237 
  261000    92.725992   -7538.0785   -7039.7319     -702.578     102002.7      46.7237      46.7237      46.7237 
  262000    87.657726   -7540.7549   -7069.6472   -469.11339     102002.7      46.7237      46.7237      46.7237 
  263000    92.624217   -7569.0485   -7071.2488    -538.8274     102002.7      46.7237      46.7237      46.7237 
  264000    88.970796   -7540.1934   -7062.0287   -326.83751     102002.7      46.7237      46.7237      46.7237 
  265000    95.083941   -7549.8565   -7038.8373   -506.75146     102002.7      46.7237      46.7237      46.7237 
  266000    91.237626   -7546.7542   -7056.4067   -454.54579     102002.7      46.7237      46.7237      46.7237 
  267000    93.681508   -7549.6793   -7046.1974   -646.79647     102002.7      46.7237      46.7237      46.7237 
  268000    89.536776   -7537.5907   -7056.3842   -799.15721     102002.7      46.7237      46.7237      46.7237 
  269000    86.501145    -7538.415   -7073.5232    -439.9461     102002.7      46.7237      46.7237      46.7237 
  270000    90.304204   -7540.7916   -7055.4607    -797.0131     102002.7      46.7237      46.7237      46.7237 
  271000    94.418818   -7536.8744   -7029.4299   -584.38628     102002.7      46.7237      46.7237      46.7237 
  272000    90.725398   -7542.5044   -7054.9098    -699.4108     102002.7      46.7237      46.7237      46.7237 
  273000    91.278088   -7519.8342   -7029.2692   -796.70019     102002.7      46.7237      46.7237      46.7237 
  274000     92.00753   -7539.3166   -7044.8312    -932.4249     102002.7      46.7237      46.7237      46.7237 
  275000    90.066532   -7547.1224   -7063.0688   -904.69379     102002.7      46.7237      46.7237      46.7237 
  276000    90.745237   -7545.6076   -7057.9064   -622.71943     102002.7      46.7237      46.7237      46.7237 
  277000    93.306773   -7522.0768   -7020.6088    -942.3125     102002.7      46.7237      46.7237      46.7237 
  278000      89.4704    -7533.905   -7053.0552   -521.68866     102002.7      46.7237      46.7237      46.7237 
  279000    88.953128   -7547.4179   -7069.3481   -890.59236     102002.7      46.7237      46.7237      46.7237 
  280000    91.535148   -7541.4523   -7049.5057   -631.17643     102002.7      46.7237      46.7237      46.7237 
  281000    91.821522   -7542.5178   -7049.0322   -493.53062     102002.7      46.7237      46.7237      46.7237 
  282000     90.49118   -7530.0526   -7043.7168   -720.21535     102002.7      46.7237      46.7237      46.7237 
  283000     88.82323   -7551.3901   -7074.0184   -744.67227     102002.7      46.7237      46.7237      46.7237 
  284000    93.125081   -7537.0589   -7036.5674   -619.49911     102002.7      46.7237      46.7237      46.7237 
  285000    90.445035   -7550.6556   -7064.5678   -450.69634     102002.7      46.7237      46.7237      46.7237 
  286000    92.440915   -7546.0143   -7049.1998   -809.42551     102002.7      46.7237      46.7237      46.7237 
  287000    89.748721     -7555.92   -7073.5744   -692.12763     102002.7      46.7237      46.7237      46.7237 
  288000    91.409901   -7536.7464    -7045.473   -827.76577     102002.7      46.7237      46.7237      46.7237 
  289000    90.353819   -7557.6019   -7072.0043   -564.34933     102002.7      46.7237      46.7237      46.7237 
  290000    89.521847   -7516.2249   -7035.0986    -743.4627     102002.7      46.7237      46.7237      46.7237 
  291000    89.441223   -7561.1536   -7080.4607   -823.27964     102002.7      46.7237      46.7237      46.7237 
  292000    92.466446   -7538.5238   -7041.5721   -711.40755     102002.7      46.7237      46.7237      46.7237 
  293000    92.436254   -7540.5042   -7043.7148   -712.55469     102002.7      46.7237      46.7237      46.7237 
  294000    86.659813    -7549.393   -7083.6484   -793.57811     102002.7      46.7237      46.7237      46.7237 
  295000    90.737434   -7538.4175   -7050.7582   -984.83951     102002.7      46.7237      46.7237      46.7237 
  296000    87.732657   -7542.6031   -7071.0927    -850.1362     102002.7      46.7237      46.7237      46.7237 
  297000    90.312474   -7525.4079   -7040.0325   -789.79663     102002.7      46.7237      46.7237      46.7237 
  298000    94.012067   -7530.5827   -7025.3242   -677.24819     102002.7      46.7237      46.7237      46.7237 
  299000    88.651829    -7532.603   -7056.1526   -818.82132     102002.7      46.7237      46.7237      46.7237 
  300000    89.258127   -7552.8181   -7073.1091   -841.07548     102002.7      46.7237      46.7237      46.7237 
  301000    92.786183   -7546.4743   -7047.8042   -855.78239     102002.7      46.7237      46.7237      46.7237 
  302000    89.626365   -7551.4205   -7069.7325   -702.76148     102002.7      46.7237      46.7237      46.7237 
  303000    90.022683   -7545.9817   -7062.1637   -745.97714     102002.7      46.7237      46.7237      46.7237 
  304000    93.012243   -7526.6325   -7026.7475   -819.41948     102002.7      46.7237      46.7237      46.7237 
  305000    90.749885   -7543.8602   -7056.1339   -551.25533     102002.7      46.7237      46.7237      46.7237 
  306000    89.512046   -7536.0616    -7054.988   -833.46763     102002.7      46.7237      46.7237      46.7237 
  307000    93.921968   -7532.5293    -7027.755   -667.78154     102002.7      46.7237      46.7237      46.7237 
  308000    92.153406   -7536.8058   -7041.5365   -449.09726     102002.7      46.7237      46.7237      46.7237 
  309000     91.34506   -7544.3073   -7053.3823   -750.04606     102002.7      46.7237      46.7237      46.7237 
  310000    91.364389   -7559.4714   -7068.4426   -686.74075     102002.7      46.7237      46.7237      46.7237 
  311000    90.583115   -7543.4954   -7056.6654   -534.92674     102002.7      46.7237      46.7237      46.7237 
  312000    96.834635   -7537.5101    -7017.082   -581.75601     102002.7      46.7237      46.7237      46.7237 
  313000    92.284051   -7546.7455   -7050.7741   -693.34271     102002.7      46.7237      46.7237      46.7237 
  314000    89.886044   -7539.9069   -7056.8233   -681.08817     102002.7      46.7237      46.7237      46.7237 
  315000    90.671812   -7524.7463   -7037.4397   -767.46732     102002.7      46.7237      46.7237      46.7237 
  316000    90.258989   -7539.8905   -7054.8025   -934.76038     102002.7      46.7237      46.7237      46.7237 
  317000     90.22319   -7521.4282   -7036.5327   -691.80062     102002.7      46.7237      46.7237      46.7237 
  318000    91.100923   -7551.7003   -7062.0875   -894.12952     102002.7      46.7237      46.7237      46.7237 
  319000     92.66487   -7539.8049   -7041.7868   -653.24951     102002.7      46.7237      46.7237      46.7237 
  320000    91.437496   -7537.8886   -7046.4669   -540.60564     102002.7      46.7237      46.7237      46.7237 
  321000    89.163072   -7531.4665   -7052.2684   -580.42089     102002.7      46.7237      46.7237      46.7237 
  322000    93.396518   -7538.2138   -7036.2635   -555.00071     102002.7      46.7237      46.7237      46.7237 
  323000     93.52168   -7548.0417   -7045.4187   -1000.7045     102002.7      46.7237      46.7237      46.7237 
  324000    88.591008   -7546.5049   -7070.3814   -485.66253     102002.7      46.7237      46.7237      46.7237 
  325000    91.227507   -7536.6282   -7046.3351   -947.58493     102002.7      46.7237      46.7237      46.7237 
  326000    92.098393   -7546.4994   -7051.5257   -412.17223     102002.7      46.7237      46.7237      46.7237 
  327000     91.14377   -7541.3586   -7051.5155   -432.81541     102002.7      46.7237      46.7237      46.7237 
  328000    89.607837   -7554.0458   -7072.4574   -664.45239     102002.7      46.7237      46.7237      46.7237 
  329000    90.628916   -7542.7672   -7055.6911   -765.54833     102002.7      46.7237      46.7237      46.7237 
  330000    87.880119   -7532.6465   -7060.3436   -824.21788     102002.7      46.7237      46.7237      46.7237 
  331000    91.831928   -7538.0773   -7044.5357   -649.71389     102002.7      46.7237      46.7237      46.7237 
  332000    89.534222   -7525.0477    -7043.855   -602.48059     102002.7      46.7237      46.7237      46.7237 
  333000    91.006199   -7542.4758    -7053.372   -875.57023     102002.7      46.7237      46.7237      46.7237 
  334000     88.49088   -7551.3995    -7075.814   -551.30626     102002.7      46.7237      46.7237      46.7237 
  335000    92.605816   -7552.4275   -7054.7267   -652.13505     102002.7      46.7237      46.7237      46.7237 
  336000    90.338933   -7560.2003   -7074.6827   -800.52766     102002.7      46.7237      46.7237      46.7237 
  337000     90.97839   -7543.6664   -7054.7121   -486.06163     102002.7      46.7237      46.7237      46.7237 
  338000    90.170808   -7543.7054   -7059.0913   -772.32712     102002.7      46.7237      46.7237      46.7237 
  339000     88.83607   -7541.1711   -7063.7305   -486.02472     102002.7      46.7237      46.7237      46.7237 
  340000    90.096942   -7524.6084   -7040.3914   -875.28246     102002.7      46.7237      46.7237      46.7237 
  341000    87.036741   -7538.7799   -7071.0096   -899.53454     102002.7      46.7237      46.7237      46.7237 
  342000    93.534016   -7561.1862   -7058.4969   -853.82675     102002.7      46.7237      46.7237      46.7237 
  343000    92.888763   -7540.5674    -7041.346   -802.95816     102002.7      46.7237      46.7237      46.7237 
  344000    91.100514   -7540.2882   -7050.6775   -559.48823     102002.7      46.7237      46.7237      46.7237 
  345000    91.304873   -7545.2859   -7054.5769   -875.76476     102002.7      46.7237      46.7237      46.7237 
  346000    88.954872    -7529.919   -7051.8399   -703.98174     102002.7      46.7237      46.7237      46.7237 
  347000    89.440637   -7539.1958    -7058.506   -846.49536     102002.7      46.7237      46.7237      46.7237 
  348000    94.425254   -7543.4475   -7035.9684   -751.90669     102002.7      46.7237      46.7237      46.7237 
  349000    90.947426   -7533.1347   -7044.3468   -680.51039     102002.7      46.7237      46.7237      46.7237 
  350000    90.217795   -7570.4539   -7085.5873   -808.99834     102002.7      46.7237      46.7237      46.7237 
  351000    92.984837    -7560.142   -7060.4043   -595.83402     102002.7      46.7237      46.7237      46.7237 
  352000    89.531322   -7537.1693   -7055.9921   -927.95598     102002.7      46.7237      46.7237      46.7237 
  353000     89.23907   -7541.5525    -7061.946   -1036.9973     102002.7      46.7237      46.7237      46.7237 
  354000    92.096247   -7555.1167   -7060.1546   -873.29153     102002.7      46.7237      46.7237      46.7237 
  355000     88.89325   -7543.2327   -7065.4848   -705.61803     102002.7      46.7237      46.7237      46.7237 
  356000    89.608552   -7548.8349   -7067.2426    -568.2164     102002.7      46.7237      46.7237      46.7237 
  357000    94.745031   -7538.7904   -7029.5926   -821.06567     102002.7      46.7237      46.7237      46.7237 
  358000    88.519847   -7547.4797   -7071.7386   -583.65097     102002.7      46.7237      46.7237      46.7237 
  359000    89.053196   -7530.5225    -7051.915   -737.23465     102002.7      46.7237      46.7237      46.7237 
  360000     94.71461   -7551.0727   -7042.0384   -719.55517     102002.7      46.7237      46.7237      46.7237 
  361000    89.867812   -7534.7038   -7051.7182   -662.81836     102002.7      46.7237      46.7237      46.7237 
  362000    92.985022   -7563.3728   -7063.6341   -591.03535     102002.7      46.7237      46.7237      46.7237 
  363000    91.481646   -7543.3909   -7051.7319   -724.80668     102002.7      46.7237      46.7237      46.7237 
  364000    90.993577   -7537.2695   -7048.2335    -681.4634     102002.7      46.7237      46.7237      46.7237 
  365000    91.013879   -7541.6809   -7052.5358   -593.30746     102002.7      46.7237      46.7237      46.7237 
  366000    86.803845   -7536.1219   -7069.6033   -731.47993     102002.7      46.7237      46.7237      46.7237 
  367000    89.463613   -7533.4523    -7052.639    -660.8914     102002.7      46.7237      46.7237      46.7237 
  368000    91.051037   -7549.4519   -7060.1071   -731.35127     102002.7      46.7237      46.7237      46.7237 
  369000    93.045936    -7532.847   -7032.7809   -741.89483     102002.7      46.7237      46.7237      46.7237 
  370000    92.546448   -7529.9613   -7032.5796    -711.0779     102002.7      46.7237      46.7237      46.7237 
  371000     89.19901   -7537.7193   -7058.3281   -677.49972     102002.7      46.7237      46.7237      46.7237 
  372000    91.021399   -7557.1196   -7067.9341   -897.56813     102002.7      46.7237      46.7237      46.7237 
  373000    89.937036   -7540.0615   -7056.7039   -855.64426     102002.7      46.7237      46.7237      46.7237 
  374000    89.320937   -7528.2499   -7048.2034   -504.77934     102002.7      46.7237      46.7237      46.7237 
  375000    91.556952   -7539.3186   -7047.2549   -731.11312     102002.7      46.7237      46.7237      46.7237 
  376000    89.762609   -7549.3865   -7066.9663   -827.55816     102002.7      46.7237      46.7237      46.7237 
  377000    89.775341   -7520.6405   -7038.1519   -506.38817     102002.7      46.7237      46.7237      46.7237 
  378000    89.322813   -7532.3772   -7052.3206   -934.18001     102002.7      46.7237      46.7237      46.7237 
  379000    91.300564   -7559.8458     -7069.16   -702.22216     102002.7      46.7237      46.7237      46.7237 
  380000    90.279527    -7550.173   -7064.9746   -597.36717     102002.7      46.7237      46.7237      46.7237 
  381000    91.239525   -7535.7594   -7045.4017   -603.54447     102002.7      46.7237      46.7237      46.7237 
  382000    91.372094   -7532.9278   -7041.8576   -423.74381     102002.7      46.7237      46.7237      46.7237 
  383000    88.682964    -7555.693   -7079.0752   -639.73934     102002.7      46.7237      46.7237      46.7237 
  384000    90.111538   -7541.2605    -7056.965   -676.80433     102002.7      46.7237      46.7237      46.7237 
  385000    91.628658   -7544.1701    -7051.721   -627.12925     102002.7      46.7237      46.7237      46.7237 
  386000    93.505131   -7544.6856   -7042.1516   -931.57813     102002.7      46.7237      46.7237      46.7237 
  387000    88.537206   -7550.2452   -7074.4108   -619.60458     102002.7      46.7237      46.7237      46.7237 
  388000    91.276029   -7549.8769   -7059.3229   -595.01265     102002.7      46.7237      46.7237      46.7237 
  389000     89.45766   -7529.6007   -7048.8194   -944.82878     102002.7      46.7237      46.7237      46.7237 
  390000    91.441738   -7571.3749   -7079.9304   -622.43664     102002.7      46.7237      46.7237      46.7237 
  391000    91.447458   -7539.3625   -7047.8872    -718.0331     102002.7      46.7237      46.7237      46.7237 
  392000    93.984601   -7562.5275   -7057.4167   -826.62359     102002.7      46.7237      46.7237      46.7237 
  393000    90.242853   -7558.7411   -7073.7398   -574.46069     102002.7      46.7237      46.7237      46.7237 
  394000    91.451945   -7530.2565   -7038.7572   -461.79641     102002.7      46.7237      46.7237      46.7237 
  395000    91.238542   -7545.3316   -7054.9791   -613.71171     102002.7      46.7237      46.7237      46.7237 
  396000    91.423267   -7531.6173    -7040.272   -517.34747     102002.7      46.7237      46.7237      46.7237 
  397000    90.366734   -7530.6329   -7044.9659   -601.05106     102002.7      46.7237      46.7237      46.7237 
  398000    89.345855   -7538.9133   -7058.7329   -516.87133     102002.7      46.7237      46.7237      46.7237 
  399000    94.474313   -7553.5749   -7045.8321   -665.49719     102002.7      46.7237      46.7237      46.7237 
  400000    90.842465   -7544.8095   -7056.5858   -753.31388     102002.7      46.7237      46.7237      46.7237 
  401000    86.591847   -7543.9286   -7078.5493    -724.1793     102002.7      46.7237      46.7237      46.7237 
  402000    92.900165   -7545.8651   -7046.5824    -484.3828     102002.7      46.7237      46.7237      46.7237 
  403000    91.289858   -7538.5872    -7047.959   -950.12153     102002.7      46.7237      46.7237      46.7237 
  404000    89.881432   -7540.2931   -7057.2343   -611.35947     102002.7      46.7237      46.7237      46.7237 
  405000    92.648987   -7536.5058    -7038.573   -696.60224     102002.7      46.7237      46.7237      46.7237 
  406000    91.916707    -7552.465   -7058.4678   -568.39571     102002.7      46.7237      46.7237      46.7237 
  407000    90.000972   -7555.0659   -7071.3646   -809.04601     102002.7      46.7237      46.7237      46.7237 
  408000    89.842839    -7527.515   -7044.6636   -801.66901     102002.7      46.7237      46.7237      46.7237 
  409000    91.581921   -7531.3469    -7039.149   -650.46592     102002.7      46.7237      46.7237      46.7237 
  410000    91.533544   -7548.2734   -7056.3355   -839.16593     102002.7      46.7237      46.7237      46.7237 
  411000    90.542276   -7535.2897   -7048.6792   -769.06207     102002.7      46.7237      46.7237      46.7237 
  412000     93.29469   -7550.1452   -7048.7422   -962.89141     102002.7      46.7237      46.7237      46.7237 
  413000    89.086343   -7547.2003   -7068.4147    -924.2223     102002.7      46.7237      46.7237      46.7237 
  414000     90.88131   -7552.3115   -7063.8789   -655.47331     102002.7      46.7237      46.7237      46.7237 
  415000    90.301479   -7545.8522   -7060.5359   -1244.9727     102002.7      46.7237      46.7237      46.7237 
  416000      89.2851   -7542.2797   -7062.4258   -1039.5482     102002.7      46.7237      46.7237      46.7237 
  417000     87.85532   -7541.1586   -7068.9889   -992.75492     102002.7      46.7237      46.7237      46.7237 
  418000    92.040187   -7548.9293   -7054.2685   -729.43016     102002.7      46.7237      46.7237      46.7237 
  419000     91.72863   -7553.2287   -7060.2423   -885.32177     102002.7      46.7237      46.7237      46.7237 
  420000    91.746135   -7534.2738   -7041.1933   -806.05409     102002.7      46.7237      46.7237      46.7237 
  421000    90.387399   -7541.9045   -7056.1264   -907.72695     102002.7      46.7237      46.7237      46.7237 
  422000    89.011009   -7547.8166   -7069.4358    -608.0343     102002.7      46.7237      46.7237      46.7237 
  423000    89.637812   -7539.4458   -7057.6963   -578.75297     102002.7      46.7237      46.7237      46.7237 
  424000    89.773986   -7558.5269   -7076.0455   -577.74256     102002.7      46.7237      46.7237      46.7237 
  425000    93.827464   -7553.4865   -7049.2202   -572.35096     102002.7      46.7237      46.7237      46.7237 
  426000    91.579289   -7544.1341   -7051.9503   -731.88055     102002.7      46.7237      46.7237      46.7237 
  427000    92.012268    -7542.187   -7047.6762   -813.53731     102002.7      46.7237      46.7237      46.7237 
  428000     92.03471    -7529.519   -7034.8876   -699.41226     102002.7      46.7237      46.7237      46.7237 
  429000    91.572225   -7540.6784   -7048.5326   -334.04568     102002.7      46.7237      46.7237      46.7237 
  430000    91.402444   -7539.6523    -7048.419   -653.94909     102002.7      46.7237      46.7237      46.7237 
  431000    91.012358    -7544.704   -7055.5671   -525.37364     102002.7      46.7237      46.7237      46.7237 
  432000    90.272929   -7551.3231   -7066.1602   -704.63577     102002.7      46.7237      46.7237      46.7237 
  433000    93.668259   -7547.5574   -7044.1467   -725.12739     102002.7      46.7237      46.7237      46.7237 
  434000    91.215658   -7551.2037   -7060.9742   -569.87016     102002.7      46.7237      46.7237      46.7237 
  435000    92.687187    -7534.343    -7036.205    -802.1104     102002.7      46.7237      46.7237      46.7237 
  436000    93.278051   -7551.3317   -7050.0181   -498.85951     102002.7      46.7237      46.7237      46.7237 
  437000    88.084643   -7552.5664   -7079.1643   -649.50697     102002.7      46.7237      46.7237      46.7237 
  438000    88.283479   -7532.4752   -7058.0045   -913.75313     102002.7      46.7237      46.7237      46.7237 
  439000    93.227464   -7535.6564   -7034.6147   -763.07112     102002.7      46.7237      46.7237      46.7237 
  440000    91.953821   -7537.9361   -7043.7394   -676.05496     102002.7      46.7237      46.7237      46.7237 
  441000    93.807038   -7541.7067   -7037.5502   -564.94079     102002.7      46.7237      46.7237      46.7237 
  442000    90.998866   -7544.2991   -7055.2347   -741.40989     102002.7      46.7237      46.7237      46.7237 
  443000    89.293635   -7518.4321   -7038.5323   -801.32216     102002.7      46.7237      46.7237      46.7237 
  444000    91.234646   -7556.2938   -7065.9623    -668.0063     102002.7      46.7237      46.7237      46.7237 
  445000    90.538455   -7544.8703   -7058.2803   -675.34485     102002.7      46.7237      46.7237      46.7237 
  446000    91.914785   -7546.2959    -7052.309    -727.5634     102002.7      46.7237      46.7237      46.7237 
  447000    90.941901    -7542.843   -7054.0848    -845.7756     102002.7      46.7237      46.7237      46.7237 
  448000    92.302519   -7558.8715   -7062.8008   -796.03664     102002.7      46.7237      46.7237      46.7237 
  449000    91.241477   -7528.1856   -7037.8174   -608.02032     102002.7      46.7237      46.7237      46.7237 
  450000    90.865858    -7557.585   -7069.2355    -950.2082     102002.7      46.7237      46.7237      46.7237 
  451000    91.270019   -7557.6896    -7067.168   -720.44985     102002.7      46.7237      46.7237      46.7237 
  452000    91.125074   -7556.8774   -7067.1348   -547.15134     102002.7      46.7237      46.7237      46.7237 
  453000    93.607845   -7539.2529   -7036.1669   -661.44628     102002.7      46.7237      46.7237      46.7237 
  454000    91.996523   -7552.1825   -7057.7563   -766.05799     102002.7      46.7237      46.7237      46.7237 
  455000     92.11334   -7523.6246   -7028.5706   -791.45469     102002.7      46.7237      46.7237      46.7237 
  456000    87.500934    -7543.554   -7073.2889   -843.08373     102002.7      46.7237      46.7237      46.7237 
  457000    89.850644   -7546.1963    -7063.303    -569.6866     102002.7      46.7237      46.7237      46.7237 
  458000    91.692088   -7541.9124   -7049.1224   -747.13564     102002.7      46.7237      46.7237      46.7237 
  459000    89.737768    -7551.116   -7068.8293   -720.91322     102002.7      46.7237      46.7237      46.7237 
  460000    90.872201   -7525.9608   -7037.5772   -629.38141     102002.7      46.7237      46.7237      46.7237 
  461000    88.975545   -7538.6222    -7060.432   -873.42528     102002.7      46.7237      46.7237      46.7237 
  462000    91.466614   -7544.5897   -7053.0115   -792.81079     102002.7      46.7237      46.7237      46.7237 
  463000    89.316385   -7533.7802   -7053.7582   -798.50466     102002.7      46.7237      46.7237      46.7237 
  464000    91.513504   -7532.8192   -7040.9889   -475.99885     102002.7      46.7237      46.7237      46.7237 
  465000    88.983783   -7551.8389   -7073.6044   -288.88454     102002.7      46.7237      46.7237      46.7237 
  466000    91.541445   -7541.2235   -7049.2431   -410.59405     102002.7      46.7237      46.7237      46.7237 
  467000    91.808797   -7528.2227   -7034.8055   -705.75889     102002.7      46.7237      46.7237      46.7237 
  468000    90.671142   -7538.8803   -7051.5773   -437.29486     102002.7      46.7237      46.7237      46.7237 
  469000    88.879442   -7562.3044   -7084.6307   -603.38829     102002.7      46.7237      46.7237      46.7237 
  470000    91.479083   -7546.7345   -7055.0893   -658.10367     102002.7      46.7237      46.7237      46.7237 
  471000     87.99984   -7538.1868   -7065.2405   -809.72034     102002.7      46.7237      46.7237      46.7237 
  472000    91.234155   -7530.2645   -7039.9356   -889.10256     102002.7      46.7237      46.7237      46.7237 
  473000    87.462236   -7543.5678   -7073.5107    -805.6903     102002.7      46.7237      46.7237      46.7237 
  474000    92.236991   -7528.9319   -7033.2133   -707.08819     102002.7      46.7237      46.7237      46.7237 
  475000    88.984366   -7541.5173   -7063.2797   -632.66302     102002.7      46.7237      46.7237      46.7237 
  476000    92.849351   -7537.0613   -7038.0517   -816.27115     102002.7      46.7237      46.7237      46.7237 
  477000    91.441703   -7554.6939   -7063.2495    -737.7305     102002.7      46.7237      46.7237      46.7237 
  478000    88.465915   -7558.1761   -7082.7248   -694.98382     102002.7      46.7237      46.7237      46.7237 
  479000    91.773905   -7549.4083   -7056.1786   -808.36339     102002.7      46.7237      46.7237      46.7237 
  480000    92.047801    -7546.101   -7051.3993   -860.87217     102002.7      46.7237      46.7237      46.7237 
  481000    88.759321   -7551.7569   -7074.7287   -708.53684     102002.7      46.7237      46.7237      46.7237 
  482000    92.143745   -7537.5167   -7042.2994   -790.39223     102002.7      46.7237      46.7237      46.7237 
  483000    93.265763   -7538.1269   -7036.8793   -576.84345     102002.7      46.7237      46.7237      46.7237 
  484000    90.450454   -7541.4801   -7055.3632    -783.9544     102002.7      46.7237      46.7237      46.7237 
  485000    93.973553   -7534.5363   -7029.4848   -665.36623     102002.7      46.7237      46.7237      46.7237 
  486000    90.968854   -7552.2164   -7063.3133   -672.68975     102002.7      46.7237      46.7237      46.7237 
  487000    92.637449   -7530.7957   -7032.9249   -754.89783     102002.7      46.7237      46.7237      46.7237 
  488000    91.163054   -7539.0325   -7049.0857   -746.18836     102002.7      46.7237      46.7237      46.7237 
  489000    89.386171   -7549.5591    -7069.162   -635.07383     102002.7      46.7237      46.7237      46.7237 
  490000    92.308415    -7535.486   -7039.3836   -667.18152     102002.7      46.7237      46.7237      46.7237 
  491000    92.704252   -7549.2034   -7050.9736   -1001.7944     102002.7      46.7237      46.7237      46.7237 
  492000    89.425961   -7543.5889    -7062.978   -675.16583     102002.7      46.7237      46.7237      46.7237 
  493000    93.662609   -7536.2099   -7032.8296   -868.22398     102002.7      46.7237      46.7237      46.7237 
  494000    91.892198   -7548.6761   -7054.8107   -918.26463     102002.7      46.7237      46.7237      46.7237 
  495000     90.50941   -7539.5166   -7053.0828   -630.41613     102002.7      46.7237      46.7237      46.7237 
  496000    91.881166   -7524.8245   -7031.0183   -841.94835     102002.7      46.7237      46.7237      46.7237 
  497000    89.306459   -7546.5738   -7066.6051   -818.47709     102002.7      46.7237      46.7237      46.7237 
  498000    90.644265    -7555.828   -7068.6694   -867.88383     102002.7      46.7237      46.7237      46.7237 
  499000    91.790489   -7540.4886   -7047.1698   -922.23889     102002.7      46.7237      46.7237      46.7237 
  500000    87.785738   -7555.9657     -7084.17   -593.97258     102002.7      46.7237      46.7237      46.7237 
  500504    88.602743    -7539.535   -7063.3484   -584.63118     102002.7      46.7237      46.7237      46.7237 
Loop time of 1313.03 on 16 procs for 500000 steps with 1804 atoms

Performance: 32.901 ns/day, 0.729 hours/ns, 380.799 timesteps/s
99.8% CPU use with 16 MPI tasks x no OpenMP threads

MPI task timing breakdown:
Section |  min time  |  avg time  |  max time  |%varavg| %total
---------------------------------------------------------------
Pair    | 503.85     | 703.14     | 921.06     | 522.2 | 53.55
Bond    | 162.38     | 174.15     | 186.65     |  63.2 | 13.26
Neigh   | 4.4733     | 4.5143     | 4.5832     |   1.8 |  0.34
Comm    | 190.19     | 418.11     | 629.32     | 709.0 | 31.84
Output  | 0.020272   | 0.020652   | 0.023531   |   0.5 |  0.00
Modify  | 7.2654     | 7.8656     | 8.5094     |  11.9 |  0.60
Other   |            | 5.233      |            |       |  0.40

Nlocal:    112.75 ave 148 max 82 min
Histogram: 2 1 1 2 1 4 2 2 0 1
Nghost:    2287 ave 2320 max 2251 min
Histogram: 1 1 0 3 3 2 2 2 0 2
Neighs:    11468.8 ave 19760 max 6112 min
Histogram: 3 2 0 4 1 3 1 1 0 1

Total # of neighbors = 183501
Ave neighs/atom = 101.719
Ave special neighs/atom = 6.38581
Neighbor list builds = 3542
Dangerous builds = 0
Neighbor list info ...
  update every 1 steps, delay 10 steps, check yes
  max neighbors/atom: 2000, page size: 100000
  master list distance cutoff = 16
  ghost atom cutoff = 16
  binsize = 8, bins = 6 6 6
  3 neighbor lists, perpetual/occasional/extra = 3 0 0
  (1) pair buck6d/coul/gauss/dsf, perpetual, skip from (3)
      attributes: half, newton on
      pair build: skip
      stencil: none
      bin: none
  (2) pair lj/cut, perpetual, skip from (3)
      attributes: half, newton on
      pair build: skip
      stencil: none
      bin: none
  (3) neighbor class addition, perpetual
      attributes: half, newton on
      pair build: half/bin/newton
      stencil: half/bin/3d/newton
      bin: standard
Setting up Verlet run ...
  Unit style    : real
  Current step  : 500504
  Time step     : 1
WARNING: Inconsistent image flags (../domain.cpp:786)
Per MPI rank memory allocation (min/avg/max) = 22.88 | 23.26 | 23.34 Mbytes
Step Time TotEng KinEng PotEng E_mol E_pair Temp Pxx Pyy Pzz Pxy Pxz Pyz Cella Cellb Cellc CellAlpha CellBeta CellGamma Volume Press 
  500504       500000   -7063.3484    476.18663    -7539.535    4189.5256   -11729.061    88.602743   -624.27911   -575.98244   -553.63198   -36.305784   -130.25279    -88.57295      46.7237      46.7237      46.7237           90           90           90     102002.7   -584.63118 
  501000       500496   -7051.1288    499.28463   -7550.4134    4201.0358   -11751.449    92.900526   -490.66074   -809.49681    -1098.348   -149.77383    147.79884    97.224979      46.7237      46.7237      46.7237           90           90           90     102002.7   -799.50184 
  502000       501496   -7048.6758    487.57397   -7536.2497    4212.7009   -11748.951    90.721555   -615.66223   -379.61106   -811.08382    245.29403     -37.2859   -199.32205      46.7237      46.7237      46.7237           90           90           90     102002.7   -602.11904 
  503000       502496   -7078.6187    481.22143   -7559.8402    4187.3623   -11747.202    89.539555   -889.90943   -358.85608   -890.24048   -96.022513    81.760017  -0.56385588      46.7237      46.7237      46.7237           90           90           90     102002.7     -713.002 
  504000       503496   -7045.5516     484.8068   -7530.3584    4210.6298   -11740.988    90.206675   -1048.9275   -983.62181   -766.58813    97.303802   -194.52088    164.38971      46.7237      46.7237      46.7237           90           90           90     102002.7   -933.04582 
  505000       504496   -7029.9056    508.86091   -7538.7665    4194.7995   -11733.566    94.682357    -902.5329   -478.81249   -949.00738   -198.46714    65.169525    93.669231      46.7237      46.7237      46.7237           90           90           90     102002.7   -776.78426 
  506000       505496   -7042.0567    492.80902   -7534.8657     4214.598   -11749.464    91.695626   -658.26698   -917.02987   -758.39556   -247.43769   -85.921804    90.898851      46.7237      46.7237      46.7237           90           90           90     102002.7   -777.89747 
  507000       506496   -7049.6793    497.42717   -7547.1065    4176.6824   -11723.789    92.554912   -1013.2123   -561.21094     -460.975    20.951316    128.71014    201.46691      46.7237      46.7237      46.7237           90           90           90     102002.7   -678.46608 
  508000       507496   -7073.5912    481.22081    -7554.812    4188.3518   -11743.164    89.539439   -710.63525   -401.26122   -954.83504   -72.910489    37.062507   -60.600654      46.7237      46.7237      46.7237           90           90           90     102002.7    -688.9105 
  509000       508496   -7071.9397    493.21878   -7565.1585    4178.1431   -11743.302    91.771869   -810.18106    -399.5869   -664.78772    148.04316    171.85036    38.737771      46.7237      46.7237      46.7237           90           90           90     102002.7   -624.85189 
  510000       509496   -7051.2355    498.94525   -7550.1807    4191.7812   -11741.962    92.837377   -828.44841   -1073.8588    -508.7841    14.197125    173.72418   -156.69607      46.7237      46.7237      46.7237           90           90           90     102002.7   -803.69709 
  511000       510496   -7063.2013    487.92204   -7551.1234    4189.2567    -11740.38     90.78632   -803.26691   -521.01341   -874.02003    55.241742   -10.313625   -133.17304      46.7237      46.7237      46.7237           90           90           90     102002.7   -732.76678 
  512000       511496   -7022.6499    504.26236   -7526.9122    4224.7217   -11751.634    93.826718   -841.32126   -226.88732   -1223.0358   -145.63363   -135.91569    88.771099      46.7237      46.7237      46.7237           90           90           90     102002.7   -763.74814 
  513000       512496   -7052.9684    483.03854    -7536.007    4183.6908   -11719.698     89.87766   -828.19607   -1512.3029   -635.57725     15.63027   -2.1197379   -116.67622      46.7237      46.7237      46.7237           90           90           90     102002.7   -992.02541 
  514000       513496   -7064.0191     478.8835   -7542.9026    4187.8711   -11730.774    89.104543   -433.10276   -575.60023    73.455172    25.490083   -97.564614    142.76022      46.7237      46.7237      46.7237           90           90           90     102002.7   -311.74927 
  515000       514496   -7045.2008    483.04258   -7528.2434    4224.2745   -11752.518    89.878412   -774.99181    -866.1263   -1090.4672    94.007742    103.99694   -11.244368      46.7237      46.7237      46.7237           90           90           90     102002.7   -910.52845 
  516000       515496   -7059.1009    484.33208    -7543.433    4225.9634   -11769.396    90.118346   -462.74201    -405.4914   -742.09937   -183.79595     90.34835   -221.96873      46.7237      46.7237      46.7237           90           90           90     102002.7    -536.7776 
  517000       516496   -7044.3336    497.60414   -7541.9377    4200.1484   -11742.086    92.587841   -629.07229   -465.83217   -277.22977   -164.77132    42.169885   -12.128379      46.7237      46.7237      46.7237           90           90           90     102002.7   -457.37808 
  518000       517496   -7060.7235    489.53854   -7550.2621    4168.9761   -11719.238    91.087096   -492.04639   -810.69571   -463.45923   -33.713144    146.36252    31.608449      46.7237      46.7237      46.7237           90           90           90     102002.7   -588.73378 
  519000       518496   -7040.2319    496.98449   -7537.2164    4201.2235    -11738.44    92.472545   -446.56001   -728.34554   -672.05944    61.848012    82.887569    65.458613      46.7237      46.7237      46.7237           90           90           90     102002.7     -615.655 
  520000       519496   -7055.5685    492.66928   -7548.2378    4206.0809   -11754.319    91.669625   -558.02308   -560.23921   -1004.3118    9.7231059    35.492985    39.935598      46.7237      46.7237      46.7237           90           90           90     102002.7   -707.52468 
  521000       520496    -7079.044    476.46954   -7555.5135    4182.7752   -11738.289    88.655383   -1025.7627   -489.48482   -587.97157   -105.75129    130.26751    87.316084      46.7237      46.7237      46.7237           90           90           90     102002.7   -701.07302 
  522000       521496   -7062.4923    478.64306   -7541.1354    4195.9283   -11737.064    89.059804   -511.93784   -493.91881   -458.83971    39.566898   -127.78835   -86.207927      46.7237      46.7237      46.7237           90           90           90     102002.7   -488.23212 
  523000       522496   -7048.4834    494.31819   -7542.8016    4192.9864   -11735.788    91.976432   -1042.1414    -914.4188   -474.77833    70.155518    122.53091    12.863958      46.7237      46.7237      46.7237           90           90           90     102002.7   -810.44617 
  524000       523496   -7033.9178    490.03105   -7523.9488     4210.102   -11734.051    91.178736   -877.24392   -346.41852    -665.5613   -138.23341    5.3588683    44.546923      46.7237      46.7237      46.7237           90           90           90     102002.7   -629.74124 
  525000       524496   -7049.3327    502.14728   -7551.4799    4202.7869   -11754.267    93.433171   -718.48472   -651.75258   -655.15781    16.949486     -51.9922   -178.57451      46.7237      46.7237      46.7237           90           90           90     102002.7    -675.1317 
  526000       525496   -7067.8232    489.47302   -7557.2962    4173.4359   -11730.732    91.074905   -777.98699   -795.79111   -716.59925    177.96924    300.59029     30.03529      46.7237      46.7237      46.7237           90           90           90     102002.7   -763.45912 
  527000       526496   -7051.9525    485.91671   -7537.8692    4217.0843   -11754.953    90.413193   -586.64751   -604.61691   -572.46768   -31.270887   -162.70727    81.877502      46.7237      46.7237      46.7237           90           90           90     102002.7    -587.9107 
  528000       527496   -7061.7216    476.53782   -7538.2595    4199.3742   -11737.634    88.668089   -391.80773   -899.87209   -641.40134      49.8033    97.245347    59.618963      46.7237      46.7237      46.7237           90           90           90     102002.7   -644.36039 
  529000       528496   -7036.3597     500.2637   -7536.6234    4215.4978   -11752.121    93.082697   -1030.2985   -720.44556   -815.38786    22.436976   -146.69879   -108.71671      46.7237      46.7237      46.7237           90           90           90     102002.7   -855.37732 
  530000       529496   -7043.4199    514.82174   -7558.2417    4193.0955   -11751.337    95.791472    -737.2662   -537.10104   -1074.7633    25.055477    -25.14674   -128.07386      46.7237      46.7237      46.7237           90           90           90     102002.7   -783.04352 
  531000       530496   -7071.3308    485.48569   -7556.8165    4181.0685   -11737.885    90.332994   -999.89515   -707.91266   -559.67134   -99.880318    64.140149    105.59275      46.7237      46.7237      46.7237           90           90           90     102002.7   -755.82638 
  532000       531496    -7035.492    495.04724   -7530.5392    4208.2751   -11738.814    92.112086   -812.09214   -930.48278   -926.57222   -213.08328    79.445534    7.5420277      46.7237      46.7237      46.7237           90           90           90     102002.7   -889.71571 
  533000       532496   -7066.1423    479.88978    -7546.032    4199.8123   -11745.844    89.291778   -850.46445   -513.01313   -635.02526    82.726162    158.28905   -31.011009      46.7237      46.7237      46.7237           90           90           90     102002.7   -666.16761 
  534000       533496   -7044.6678    503.72993   -7548.3977     4207.791   -11756.189    93.727649    -344.5729   -499.41296   -822.41442      45.6247 -0.096145584    160.20578      46.7237      46.7237      46.7237           90           90           90     102002.7   -555.46676 
  535000       534496   -7032.1783    507.93106   -7540.1093    4196.5632   -11736.673    94.509343   -869.18729   -520.98923   -810.12218    193.39486    184.56638   -132.28952      46.7237      46.7237      46.7237           90           90           90     102002.7    -733.4329 
  536000       535496   -7068.2893    495.88666    -7564.176    4190.8472   -11755.023    92.268274    -867.1299   -737.53906   -727.85019    34.294618    182.40875   -188.01421      46.7237      46.7237      46.7237           90           90           90     102002.7   -777.50639 
  537000       536496   -7032.2869    499.51567   -7531.8025      4207.92   -11739.723    92.943515   -598.22758   -810.47017   -705.35204    52.696758    116.50304    135.44937      46.7237      46.7237      46.7237           90           90           90     102002.7   -704.68326 
  538000       537496   -7051.6042    496.64479    -7548.249    4198.4892   -11746.738    92.409336   -732.51017   -573.47127   -830.25274   -30.853842   -100.14414   -23.679793      46.7237      46.7237      46.7237           90           90           90     102002.7   -712.07806 
  539000       538496   -7045.2399    489.79973   -7535.0397    4210.7183   -11745.758    91.135696   -158.24123   -980.26226   -781.78862   -145.68104    -108.8933   -147.14087      46.7237      46.7237      46.7237           90           90           90     102002.7   -640.09737 
  540000       539496   -7060.4279    490.30909    -7550.737    4187.8664   -11738.603    91.230471   -652.88189   -797.10094   -626.30264   -200.77603    121.72441    99.003823      46.7237      46.7237      46.7237           90           90           90     102002.7   -692.09516 
  541000       540496   -7006.8383    526.12757   -7532.9659    4194.1358   -11727.102    97.895118   -363.83206   -249.44142   -578.28064      47.3012   -261.87271   -110.08205      46.7237      46.7237      46.7237           90           90           90     102002.7    -397.1847 
  542000       541496   -7063.7978     486.2724   -7550.0702    4205.6447   -11755.715    90.479376   -574.76075   -562.51563   -567.23271   -122.19566   -56.161976    64.888925      46.7237      46.7237      46.7237           90           90           90     102002.7    -568.1697 
  543000       542496   -7052.8676    479.96438    -7532.832    4218.0096   -11750.842    89.305659   -508.56898   -773.18669   -918.27893    18.857548    -42.81769   -32.922178      46.7237      46.7237      46.7237           90           90           90     102002.7   -733.34486 
  544000       543496   -7037.7233    484.48683   -7522.2102    4213.5805   -11735.791    90.147139   -801.44196   -397.31275   -1068.5598    225.83637    109.87009    42.223848      46.7237      46.7237      46.7237           90           90           90     102002.7    -755.7715 
  545000       544496   -7062.9472    486.39854   -7549.3458    4187.3401   -11736.686    90.502846   -536.16404   -955.57315   -655.26861   -166.66037    203.21009   -38.377562      46.7237      46.7237      46.7237           90           90           90     102002.7    -715.6686 
  546000       545496   -7044.0577    499.35631    -7543.414    4197.2166   -11740.631    92.913862   -154.00409   -574.54185   -979.12798    46.357594    57.457078   -48.382875      46.7237      46.7237      46.7237           90           90           90     102002.7   -569.22464 
  547000       546496    -7078.886    478.79187   -7557.6779    4194.6491   -11752.327    89.087493   -826.19288   -895.56202   -1184.9216    62.424332   -21.782977   -44.027843      46.7237      46.7237      46.7237           90           90           90     102002.7   -968.89218 
  548000       547496   -7040.3627    499.24232    -7539.605    4191.2021   -11730.807    92.892653   -236.12544   -479.33636   -721.84354   -76.144772    89.610423    4.2904768      46.7237      46.7237      46.7237           90           90           90     102002.7   -479.10178 
  549000       548496    -7066.824    492.87815   -7559.7022    4200.8193   -11760.522    91.708489   -650.34137   -451.85154   -836.87842   -212.71655     17.32323    156.93724      46.7237      46.7237      46.7237           90           90           90     102002.7   -646.35711 
  550000       549496   -7048.9036    491.69871   -7540.6023    4205.4551   -11746.057    91.489034   -989.02567   -512.40861   -1023.6165 -0.040362683   -34.065098   -49.002486      46.7237      46.7237      46.7237           90           90           90     102002.7   -841.68361 
  551000       550496   -7041.9066    480.05041    -7521.957    4224.3525   -11746.309    89.321666   -919.55679   -536.43394   -684.84608   -14.014628   -17.102033    232.68601      46.7237      46.7237      46.7237           90           90           90     102002.7   -713.61227 
  552000       551496   -7059.2247    485.64298   -7544.8677    4204.9647   -11749.832    90.362261   -337.46023   -675.70764   -693.19139    43.027391    108.81405   -263.27771      46.7237      46.7237      46.7237           90           90           90     102002.7   -568.78642 
  553000       552496   -7056.7174    483.53183   -7540.2492    4202.5494   -11742.799    89.969445   -800.35607   -601.47165   -326.59114   -8.4552973    116.18864    17.529766      46.7237      46.7237      46.7237           90           90           90     102002.7   -576.13962 
  554000       553496   -7051.1416    486.15193   -7537.2935    4200.2281   -11737.522    90.456959   -804.62109   -765.46819    -614.8364   -80.706064     142.0324   -63.286205      46.7237      46.7237      46.7237           90           90           90     102002.7   -728.30856 
  555000       554496   -7057.9371    493.74004   -7551.6772    4188.3971   -11740.074    91.868857   -766.99475   -166.77223   -879.92764   -22.221978    31.208214   -14.921526      46.7237      46.7237      46.7237           90           90           90     102002.7   -604.56487 
[...]
  936000       935496    -7042.674    486.79733   -7529.4713    4234.6973   -11764.169    90.577048   -859.51354   -581.68973    -708.0468   -29.895307    114.95758   -30.253857      46.7237      46.7237      46.7237           90           90           90     102002.7   -716.41669 
  937000       936496   -7059.4304    489.34573   -7548.7762    4188.4143    -11737.19    91.051221   -647.77558   -370.57611   -979.49177    76.950675    287.23159    110.14619      46.7237      46.7237      46.7237           90           90           90     102002.7   -665.94782 
  938000       937496   -7037.1884    504.72633   -7541.9147     4191.653   -11733.568    93.913048   -702.88715   -534.14492   -523.02592     77.86606   -42.951561   -71.757222      46.7237      46.7237      46.7237           90           90           90     102002.7     -586.686 
  939000       938496   -7040.1051    500.08099   -7540.1861    4215.0221   -11755.208    93.048701   -1134.8012   -203.21288   -450.33385   -323.10643    40.828354    23.816328      46.7237      46.7237      46.7237           90           90           90     102002.7   -596.11598 
  940000       939496   -7052.4803    489.61256   -7542.0929    4204.9606   -11747.053     91.10087   -649.78569   -461.87651   -965.96021   -112.76502     254.1845    7.2659323      46.7237      46.7237      46.7237           90           90           90     102002.7    -692.5408 
  941000       940496   -7037.0798     497.4622    -7534.542    4224.9738   -11759.516    92.561431    -878.7245    -780.0976   -946.06651   -127.05121   -88.630904    -88.92067      46.7237      46.7237      46.7237           90           90           90     102002.7    -868.2962 
  942000       941496    -7047.579    478.11473   -7525.6937    4222.4422   -11748.136      88.9615   -1133.4329   -859.70805   -795.37654    350.08635    87.274225      33.4401      46.7237      46.7237      46.7237           90           90           90     102002.7   -929.50583 
  943000       942496   -7056.3149      495.087   -7551.4019    4194.6903   -11746.092    92.119484   -930.30824   -1162.3194   -574.03656   -85.835257    57.818855    186.61204      46.7237      46.7237      46.7237           90           90           90     102002.7   -888.88806 
  944000       943496   -7053.2877    493.40141   -7546.6891    4193.4358   -11740.125     91.80585   -705.94018   -717.81813   -1005.9977   -136.43432   -104.91252    26.559539      46.7237      46.7237      46.7237           90           90           90     102002.7   -809.91866 
  945000       944496   -7061.8027    488.11353   -7549.9162      4188.72   -11738.636     90.82195   -848.84434   -442.76715   -740.09993    81.065429   -268.46938   -285.34945      46.7237      46.7237      46.7237           90           90           90     102002.7   -677.23714 
  946000       945496   -7050.5243     480.8188   -7531.3431    4199.6273    -11730.97    89.464638   -619.12078   -917.80917    -540.8604     138.7972    42.854653   -10.426775      46.7237      46.7237      46.7237           90           90           90     102002.7   -692.59678 
  947000       946496    -7052.587     486.2613   -7538.8483    4210.6559   -11749.504     90.47731   -787.15306   -783.99227   -733.32739   -341.95435    190.17705   -163.92386      46.7237      46.7237      46.7237           90           90           90     102002.7   -768.15758 
  948000       947496   -7072.8068     477.3191   -7550.1259    4175.9205   -11726.046    88.813459   -453.19992   -438.23431   -844.26723    76.394161   -136.94949   -92.139423      46.7237      46.7237      46.7237           90           90           90     102002.7   -578.56715 
  949000       948496     -7052.94    483.72343   -7536.6634    4224.8061   -11761.469    90.005094   -555.46761   -949.42328   -856.71016   -74.774408   -106.66309   -25.630348      46.7237      46.7237      46.7237           90           90           90     102002.7   -787.20035 
  950000       949496   -7051.4665    489.44073   -7540.9072    4204.0331    -11744.94    91.068897   -998.18247   -796.72004   -353.81258    229.36645   -191.84446   -83.880779      46.7237      46.7237      46.7237           90           90           90     102002.7   -716.23836 
  951000       950496   -7033.3352    500.85688    -7534.192    4218.0294   -11752.221     93.19307   -667.90796   -711.09036   -1085.7702    272.67737   -17.668138    16.309934      46.7237      46.7237      46.7237           90           90           90     102002.7   -821.58952 
  952000       951496   -7066.5947    480.26641   -7546.8611    4191.3955   -11738.257    89.361857   -644.49997   -689.47482   -191.54683   -34.013614    35.297545     214.9693      46.7237      46.7237      46.7237           90           90           90     102002.7    -508.5072 
  953000       952496   -7050.5275    498.03536   -7548.5628     4195.171   -11743.734    92.668076    -771.8268   -300.79563   -534.49136    -114.3255   -97.238612   -290.25823      46.7237      46.7237      46.7237           90           90           90     102002.7    -535.7046 
  954000       953496   -7041.1359    490.76816    -7531.904    4196.0142   -11727.918    91.315889   -417.26781   -495.95128   -815.79222  -0.89745481    76.968507   -110.95951      46.7237      46.7237      46.7237           90           90           90     102002.7    -576.3371 
  955000       954496   -7041.4856    490.53082   -7532.0164    4202.7269   -11734.743    91.271728   -534.29141   -410.79848   -494.59324   -172.16062    24.803388    204.68104      46.7237      46.7237      46.7237           90           90           90     102002.7   -479.89438 
  956000       955496   -7072.2564    489.03264    -7561.289    4184.6037   -11745.893    90.992966    -496.5401   -612.61374   -780.90479    180.63459    145.05116    113.60625      46.7237      46.7237      46.7237           90           90           90     102002.7   -630.01954 
  957000       956496   -7070.5006    472.08706   -7542.5877    4201.0445   -11743.632    87.839948   -698.39262   -417.76178     -457.356    34.991848    6.6574769   -113.63421      46.7237      46.7237      46.7237           90           90           90     102002.7   -524.50347 
  958000       957496   -7043.4019    496.98811     -7540.39    4206.9926   -11747.383    92.473217   -897.82447   -307.60333    -581.9933    256.74481    38.261853   -102.99835      46.7237      46.7237      46.7237           90           90           90     102002.7   -595.80704 
  959000       958496   -7054.0851    483.94816   -7538.0333      4202.34   -11740.373     90.04691    -506.3456   -537.50068    -480.4535    146.79158    218.14961    -7.103287      46.7237      46.7237      46.7237           90           90           90     102002.7   -508.09993 
  960000       959496    -7029.962     490.2543   -7520.2163     4212.297   -11732.513    91.220276   -631.98594   -74.888583   -256.27956   -180.57823   -11.721353      50.2165      46.7237      46.7237      46.7237           90           90           90     102002.7   -321.05136 
  961000       960496   -7039.5405    489.74556    -7529.286    4207.9879   -11737.274    91.125617   -938.67363   -178.74222   -526.96253   -16.391938   -98.346979    22.253799      46.7237      46.7237      46.7237           90           90           90     102002.7   -548.12613 
  962000       961496   -7063.2881    497.59692   -7560.8851    4184.0619   -11744.947    92.586497   -362.02982    -514.2722   -386.35095    239.70108   -119.74527    28.254775      46.7237      46.7237      46.7237           90           90           90     102002.7   -420.88432 
  963000       962496   -7068.0362    482.86897   -7550.9052    4185.1554   -11736.061    89.846109   -604.51596   -332.91168   -379.45688   -265.66094     25.58459   -140.45124      46.7237      46.7237      46.7237           90           90           90     102002.7   -438.96151 
  964000       963496   -7040.5745    484.52745   -7525.1019    4228.3082    -11753.41    90.154697   -1146.6355   -675.96189   -746.82702   -9.1521578    -125.4994    54.401489      46.7237      46.7237      46.7237           90           90           90     102002.7   -856.47482 
  965000       964496   -7057.0961    480.32001   -7537.4161    4187.3372   -11724.753    89.371829   -552.97005   -570.70636   -666.10536   -48.004133   -7.3350484   -87.798376      46.7237      46.7237      46.7237           90           90           90     102002.7   -596.59392 
  966000       965496   -7017.6903    519.36097   -7537.0512    4197.8379   -11734.889    96.636076   -1048.1667    -810.0541   -1038.5464     63.06998    38.682529   -30.906446      46.7237      46.7237      46.7237           90           90           90     102002.7   -965.58907 
  967000       966496   -7070.2295    478.61733   -7548.8468    4209.4768   -11758.324    89.055016   -715.99161   -1180.4758   -1156.2795   -86.709279    143.56722    67.910541      46.7237      46.7237      46.7237           90           90           90     102002.7   -1017.5823 
  968000       967496   -7065.7416     486.1091   -7551.8507    4193.5449   -11745.396     90.44899   -690.91282    -538.0299   -407.80907    116.58143    182.25463   -86.169188      46.7237      46.7237      46.7237           90           90           90     102002.7   -545.58393 
  969000       968496   -7039.0019    493.12963   -7532.1315    4205.6417   -11737.773    91.755281   -527.88667   -859.11212   -460.72005   -52.582091   -1.7777834   -43.897232      46.7237      46.7237      46.7237           90           90           90     102002.7   -615.90628 
  970000       969496   -7025.0205    500.72535   -7525.7459    4232.0583   -11757.804    93.168596   -734.52992   -615.21063   -880.55448    7.5778658    165.84384     159.2694      46.7237      46.7237      46.7237           90           90           90     102002.7   -743.43167 
  971000       970496   -7057.4742    484.27019   -7541.7444    4202.1043   -11743.849    90.106829   -803.02389   -826.24335   -782.45177   -85.076415    237.21484    130.59281      46.7237      46.7237      46.7237           90           90           90     102002.7   -803.90633 
  972000       971496   -7042.7149    508.66281   -7551.3778    4210.7371   -11762.115    94.645497   -917.55419   -569.47528    -1040.174    66.850304    35.214701   -67.403037      46.7237      46.7237      46.7237           90           90           90     102002.7   -842.40115 
  973000       972496   -7049.3835     490.2271   -7539.6106    4193.5909   -11733.201    91.215215   -681.48126   -880.73179   -1013.8834    131.52584   -83.455362   -109.21388      46.7237      46.7237      46.7237           90           90           90     102002.7   -858.69883 
  974000       973496   -7066.8267    479.12118   -7545.9478    4213.3587   -11759.307    89.148767   -572.25293    -591.6879   -586.91563   -8.2284265    25.565505    228.05346      46.7237      46.7237      46.7237           90           90           90     102002.7   -583.61882 
  975000       974496   -7054.0613    484.85404   -7538.9153    4196.4152   -11735.331    90.215465   -759.37653   -565.23525   -702.58217   -24.880143   -77.597571   -110.70404      46.7237      46.7237      46.7237           90           90           90     102002.7   -675.73132 
  976000       975496   -7064.5916    484.22325   -7548.8148    4209.0374   -11757.852    90.098095   -732.94959   -866.71818   -934.74156    -183.2271    10.069095   -7.1870187      46.7237      46.7237      46.7237           90           90           90     102002.7   -844.80311 
  977000       976496   -7045.2948    497.95707   -7543.2519    4174.3184    -11717.57    92.653509   -963.26059   -1313.2956   -695.68477   -31.188425   -52.576997   -129.19287      46.7237      46.7237      46.7237           90           90           90     102002.7   -990.74699 
  978000       977496   -7072.3489    484.86448   -7557.2133    4197.4228   -11754.636    90.217407   -703.15891   -635.09038   -701.18499   -196.38202    151.69469   -34.160758      46.7237      46.7237      46.7237           90           90           90     102002.7   -679.81143 
  979000       978496   -7052.1842    500.08555   -7552.2697    4183.7482   -11736.018     93.04955   -813.34662   -759.88354   -1038.2567   -175.95489    51.636492   -184.16678      46.7237      46.7237      46.7237           90           90           90     102002.7   -870.49561 
  980000       979496   -7044.3763    498.72986   -7543.1062     4189.912   -11733.018      92.7973   -522.20096   -586.58568   -1110.5788    178.28443   -7.0708069      102.419      46.7237      46.7237      46.7237           90           90           90     102002.7   -739.78849 
  981000       980496   -7087.2003    468.28961   -7555.4899    4187.7226   -11743.213    87.133367   -693.04205   -788.97579   -685.14211    127.39956   -76.389595    215.60427      46.7237      46.7237      46.7237           90           90           90     102002.7   -722.38665 
  982000       981496    -7064.611    488.09407   -7552.7051    4197.1014   -11749.806    90.818328   -488.76695   -840.50467   -676.41719    205.99732    -106.3802   -16.605263      46.7237      46.7237      46.7237           90           90           90     102002.7   -668.56294 
  983000       982496   -7051.0937     488.5403    -7539.634    4191.9518   -11731.586    90.901357   -252.17322   -464.73209   -576.34551   -175.81924    66.203339    7.3999852      46.7237      46.7237      46.7237           90           90           90     102002.7   -431.08361 
  984000       983496   -7035.5358     489.3899   -7524.9257    4211.4925   -11736.418     91.05944   -664.43534   -1047.4549    -776.6837   -35.212845     158.2742    35.229649      46.7237      46.7237      46.7237           90           90           90     102002.7   -829.52464 
  985000       984496   -7065.1327    473.79184   -7538.9246    4207.5471   -11746.472    88.157152   -411.05723   -252.15398    -459.7403    73.548536   -169.87485   -158.00627      46.7237      46.7237      46.7237           90           90           90     102002.7   -374.31717 
  986000       985496   -7048.5516    494.20257   -7542.7541    4206.7219   -11749.476     91.95492   -689.70415   -376.02609   -870.18048    6.9855154    164.45575     25.32151      46.7237      46.7237      46.7237           90           90           90     102002.7   -645.30357 
  987000       986496   -7042.0507     491.7434   -7533.7941    4221.8653   -11755.659     91.49735   -840.56301   -583.91234   -1299.1328    78.666489   -29.253459    130.95432      46.7237      46.7237      46.7237           90           90           90     102002.7   -907.86937 
  988000       987496   -7060.0817    486.58128    -7546.663    4198.4391   -11745.102    90.536847   -773.85541   -1129.4494    -590.2023    18.082542    244.82833   -163.43022      46.7237      46.7237      46.7237           90           90           90     102002.7   -831.16905 
  989000       988496   -7056.3174    506.90307   -7563.2204    4187.7852   -11751.006    94.318067   -890.20619    -537.3973   -1072.5341    -80.66788   -43.544995   -56.109515      46.7237      46.7237      46.7237           90           90           90     102002.7   -833.37919 
  990000       989496   -7039.9583     497.7631   -7537.7214    4219.4821   -11757.204    92.617418   -893.61142   -558.21668   -1195.6994    2.7206815    59.747049   -43.053829      46.7237      46.7237      46.7237           90           90           90     102002.7   -882.50917 
  991000       990496   -7055.2454    501.94943   -7557.1948     4192.222   -11749.417    93.396358   -1076.3158   -922.22185   -1004.3196     53.05919   -39.681316    172.37678      46.7237      46.7237      46.7237           90           90           90     102002.7   -1000.9524 
  992000       991496   -7067.9695     479.8398   -7547.8093    4172.0907     -11719.9    89.282479   -396.87706   -873.28154   -1082.1206   -38.543413   -119.35253   -96.087896      46.7237      46.7237      46.7237           90           90           90     102002.7   -784.09305 
  993000       992496   -7051.9236     494.6085   -7546.5321    4220.0427   -11766.575     92.03045   -1076.6507   -471.38109   -411.31228  -0.14910103    33.573045     84.90524      46.7237      46.7237      46.7237           90           90           90     102002.7   -653.11468 
  994000       993496   -7066.6952    483.78014   -7550.4753    4184.6721   -11735.147    90.015647   -1039.4803    -810.1223   -974.45532   -75.335129   -103.93298   -283.87444      46.7237      46.7237      46.7237           90           90           90     102002.7   -941.35264 
  995000       994496   -7058.5145    496.64225   -7555.1567     4205.944   -11761.101    92.408865    -669.5959   -488.97978   -593.05566     31.52546   -17.667954   -82.080959      46.7237      46.7237      46.7237           90           90           90     102002.7   -583.87711 
  996000       995496   -7053.2581    487.66231   -7540.9204    4200.0111   -11740.932    90.737992   -512.92528   -503.00946   -800.17095     95.04769   -111.67397    -12.36245      46.7237      46.7237      46.7237           90           90           90     102002.7   -605.36857 
  997000       996496    -7045.732    492.64042   -7538.3724    4190.0217   -11728.394    91.664254   -1066.6469   -336.59493    -863.4572    38.785108    148.68087   -31.948005      46.7237      46.7237      46.7237           90           90           90     102002.7   -755.56634 
  998000       997496    -7064.556    476.14328   -7540.6992    4199.2921   -11739.991    88.594676   -426.28415   -497.14693    -323.6956    -70.49885   -44.756204    19.735711      46.7237      46.7237      46.7237           90           90           90     102002.7    -415.7089 
  999000       998496    -7074.945    481.24966   -7556.1947    4194.3098   -11750.504    89.544808   -987.09603   -1116.7079   -987.52098   -114.46982    141.83478   -72.978796      46.7237      46.7237      46.7237           90           90           90     102002.7   -1030.4416 
 1000000       999496   -7047.3506    497.16199   -7544.5125    4199.0453   -11743.558    92.505572    -283.4178   -921.24057   -765.29158   -67.861284   -168.02513   -189.98203      46.7237      46.7237      46.7237           90           90           90     102002.7   -656.64998 
 1000504      1000000   -7053.2414    479.61115   -7532.8526    4194.9872    -11727.84    89.239935   -788.66046   -1018.6188   -1352.5144    67.578676   -121.15754    98.687377      46.7237      46.7237      46.7237           90           90           90     102002.7   -1053.2646 
Loop time of 1486.06 on 16 procs for 500000 steps with 1804 atoms

Performance: 29.070 ns/day, 0.826 hours/ns, 336.461 timesteps/s
99.8% CPU use with 16 MPI tasks x no OpenMP threads

MPI task timing breakdown:
Section |  min time  |  avg time  |  max time  |%varavg| %total
---------------------------------------------------------------
Pair    | 556.59     | 796.55     | 1032.4     | 617.1 | 53.60
Bond    | 163.58     | 183.4      | 206.65     | 103.6 | 12.34
Neigh   | 4.4817     | 4.522      | 4.593      |   1.9 |  0.30
Comm    | 217.31     | 474.24     | 731.16     | 858.5 | 31.91
Output  | 0.10693    | 0.11172    | 0.11219    |   0.4 |  0.01
Modify  | 21.084     | 21.989     | 22.671     |   9.7 |  1.48
Other   |            | 5.244      |            |       |  0.35

Nlocal:    112.75 ave 136 max 84 min
Histogram: 2 0 1 2 2 2 0 3 1 3
Nghost:    2279.38 ave 2314 max 2257 min
Histogram: 2 2 4 0 2 3 2 0 0 1
Neighs:    11462.8 ave 17290 max 6707 min
Histogram: 3 1 1 3 3 0 1 1 0 3

Total # of neighbors = 183404
Ave neighs/atom = 101.665
Ave special neighs/atom = 6.38581
Neighbor list builds = 3547
Dangerous builds = 0
Total wall time: 0:46:42
