LAMMPS (30 Mar 2018)
Reading data file ...
  orthogonal box = (0 0 0) to (46.7237 46.7237 46.7237)
  2 by 3 by 4 MPI processor grid
  reading atoms ...
  3048 atoms
  scanning bonds ...
  5 = max bonds/atom
  scanning angles ...
  10 = max angles/atom
  scanning dihedrals ...
  32 = max dihedrals/atom
  scanning impropers ...
  3 = max impropers/atom
  reading bonds ...
  2064 bonds
  reading angles ...
  3696 angles
  reading dihedrals ...
  6240 dihedrals
  reading impropers ...
  1008 impropers
Finding 1-2 1-3 1-4 neighbors ...
  special bond factors lj:   0          0          0         
  special bond factors coul: 0          0          0         
  5 = max # of 1-2 neighbors
  8 = max # of 1-3 neighbors
  20 = max # of 1-4 neighbors
  19 = max # of special neighbors
Finding 1-2 1-3 1-4 neighbors ...
  special bond factors lj:   0          0          1         
  special bond factors coul: 1          1          1         
  5 = max # of 1-2 neighbors
  8 = max # of 1-3 neighbors
  19 = max # of special neighbors
WARNING: Using 'neigh_modify every 1 delay 0 check yes' setting during minimization (../min.cpp:168)
Neighbor list info ...
  update every 1 steps, delay 0 steps, check yes
  max neighbors/atom: 2000, page size: 100000
  master list distance cutoff = 16
  ghost atom cutoff = 16
  binsize = 8, bins = 6 6 6
  3 neighbor lists, perpetual/occasional/extra = 3 0 0
  (1) pair buck6d/coul/gauss/dsf, perpetual, skip from (3)
      attributes: half, newton on
      pair build: skip
      stencil: none
      bin: none
  (2) pair lj/cut, perpetual, skip from (3)
      attributes: half, newton on
      pair build: skip
      stencil: none
      bin: none
  (3) neighbor class addition, perpetual
      attributes: half, newton on
      pair build: half/bin/newton
      stencil: half/bin/3d/newton
      bin: standard
Setting up cg style minimization ...
  Unit style    : real
  Current step  : 0
WARNING: Inconsistent image flags (../domain.cpp:786)
Per MPI rank memory allocation (min/avg/max) = 22.96 | 23.37 | 24.52 Mbytes
Step Temp E_pair E_mol TotEng Press 
       0            0   -14923.292    6482.8914   -8440.4006    5674.9005 
     500            0   -15318.209    3743.5808   -11574.628   -1998.6751 
Loop time of 1.81205 on 24 procs for 500 steps with 3048 atoms

97.7% CPU use with 24 MPI tasks x no OpenMP threads

Minimization stats:
  Stopping criterion = max force evaluations
  Energy initial, next-to-last, final = 
        -8440.40063935      -11574.510328     -11574.6284525
  Force two-norm initial, final = 2575.49 16.5525
  Force max component initial, final = 152.177 2.28547
  Final line search alpha, max atom move = 0.00469937 0.0107403
  Iterations, force evaluations = 500 1000

MPI task timing breakdown:
Section |  min time  |  avg time  |  max time  |%varavg| %total
---------------------------------------------------------------
Pair    | 0.64256    | 1.0518     | 1.3123     |  14.4 | 58.04
Bond    | 0.10621    | 0.15766    | 0.20007    |   5.7 |  8.70
Neigh   | 0.017732   | 0.018051   | 0.018349   |   0.2 |  1.00
Comm    | 0.25766    | 0.54836    | 1.0083     |  21.7 | 30.26
Output  | 0          | 0          | 0          |   0.0 |  0.00
Modify  | 0          | 0          | 0          |   0.0 |  0.00
Other   |            | 0.03619    |            |       |  2.00

Nlocal:    127 ave 152 max 92 min
Histogram: 1 0 2 2 6 2 3 1 3 4
Nghost:    3384.38 ave 3565 max 3270 min
Histogram: 5 10 1 0 0 0 0 0 2 6
Neighs:    7646.38 ave 11391 max 2149 min
Histogram: 1 0 1 1 6 4 5 0 2 4

Total # of neighbors = 183513
Ave neighs/atom = 60.2077
Ave special neighs/atom = 3.77953
Neighbor list builds = 12
Dangerous builds = 0
Neighbor list info ...
  update every 1 steps, delay 10 steps, check yes
  max neighbors/atom: 2000, page size: 100000
  master list distance cutoff = 16
  ghost atom cutoff = 16
  binsize = 8, bins = 6 6 6
  3 neighbor lists, perpetual/occasional/extra = 3 0 0
  (1) pair buck6d/coul/gauss/dsf, perpetual, skip from (3)
      attributes: half, newton on
      pair build: skip
      stencil: none
      bin: none
  (2) pair lj/cut, perpetual, skip from (3)
      attributes: half, newton on
      pair build: skip
      stencil: none
      bin: none
  (3) neighbor class addition, perpetual
      attributes: half, newton on
      pair build: half/bin/newton
      stencil: half/bin/3d/newton
      bin: standard
Setting up Verlet run ...
  Unit style    : real
  Current step  : 500
  Time step     : 1
WARNING: Inconsistent image flags (../domain.cpp:786)
Per MPI rank memory allocation (min/avg/max) = 22.61 | 22.8 | 23.39 Mbytes
Step Temp PotEng TotEng Press Volume Lx Ly Lz 
     500          110   -11574.628    -10575.55   -1550.9406     102002.7      46.7237      46.7237      46.7237 
    1000    94.659451    -10762.11   -9902.3626   -746.07733     102002.7      46.7237      46.7237      46.7237 
    2000    110.57307   -10614.473     -9610.19   -687.27027     102002.7      46.7237      46.7237      46.7237 
    3000     110.6305    -10642.53   -9637.7255   -887.19348     102002.7      46.7237      46.7237      46.7237 
    4000    110.22473   -10625.271   -9624.1514   -633.47504     102002.7      46.7237      46.7237      46.7237 
    5000    110.49686   -10640.664   -9637.0734   -883.46406     102002.7      46.7237      46.7237      46.7237 
    6000    111.73515   -10639.196   -9624.3581   -769.44609     102002.7      46.7237      46.7237      46.7237 
    7000    109.85135   -10640.164   -9642.4358   -607.17906     102002.7      46.7237      46.7237      46.7237 
    8000    107.31553   -10615.284   -9640.5879   -596.17442     102002.7      46.7237      46.7237      46.7237 
    9000    110.52847   -10643.628     -9639.75   -655.46451     102002.7      46.7237      46.7237      46.7237 
   10000    110.62258   -10629.186   -9624.4535   -932.50019     102002.7      46.7237      46.7237      46.7237 
   11000    110.09141   -10631.502   -9631.5935    -886.9175     102002.7      46.7237      46.7237      46.7237 
   12000    113.61926   -10640.913   -9608.9626   -570.16339     102002.7      46.7237      46.7237      46.7237 
   13000    111.35991   -10654.397   -9642.9672   -915.62589     102002.7      46.7237      46.7237      46.7237 
   14000    109.86942   -10635.513   -9637.6211   -952.47807     102002.7      46.7237      46.7237      46.7237 
   15000    109.22277    -10639.59   -9647.5715   -1056.7039     102002.7      46.7237      46.7237      46.7237 
   16000    109.33462   -10624.397   -9631.3624   -984.87913     102002.7      46.7237      46.7237      46.7237 
   17000    110.97654   -10639.015   -9631.0679    -870.7201     102002.7      46.7237      46.7237      46.7237 
   18000    112.41555   -10654.017   -9632.9992   -590.92368     102002.7      46.7237      46.7237      46.7237 
   19000    106.34892   -10630.893    -9664.976   -617.32643     102002.7      46.7237      46.7237      46.7237 
   20000    112.36577   -10602.834   -9582.2684   -754.88916     102002.7      46.7237      46.7237      46.7237 
   21000    107.97158    -10630.07   -9649.4147   -924.76968     102002.7      46.7237      46.7237      46.7237 
   22000    110.24699   -10643.022   -9641.7002   -725.83152     102002.7      46.7237      46.7237      46.7237 
   23000    111.07918   -10641.672   -9632.7924   -672.60422     102002.7      46.7237      46.7237      46.7237 
   24000    112.39449   -10620.236   -9599.4096    -798.7386     102002.7      46.7237      46.7237      46.7237 
   25000    111.97212   -10630.158   -9613.1679   -801.92755     102002.7      46.7237      46.7237      46.7237 
   26000    110.01952   -10641.311   -9642.0553   -775.80116     102002.7      46.7237      46.7237      46.7237 
   27000    110.74402   -10642.777   -9636.9415   -897.02017     102002.7      46.7237      46.7237      46.7237 
   28000    110.28539   -10626.676   -9625.0063   -579.86219     102002.7      46.7237      46.7237      46.7237 
   29000    109.84639   -10637.557   -9639.8738   -971.26765     102002.7      46.7237      46.7237      46.7237 
   30000    112.02885   -10645.614   -9628.1091   -1134.7038     102002.7      46.7237      46.7237      46.7237 
   31000    106.71919   -10608.205    -9638.925   -936.48727     102002.7      46.7237      46.7237      46.7237 
   32000    109.88387   -10640.876   -9642.8531   -830.97491     102002.7      46.7237      46.7237      46.7237 
   33000    110.96577   -10629.788   -9621.9387   -1163.3479     102002.7      46.7237      46.7237      46.7237 
   34000    108.52762   -10621.463   -9635.7577   -930.56114     102002.7      46.7237      46.7237      46.7237 
   35000    107.45473   -10609.286   -9633.3249   -1151.2376     102002.7      46.7237      46.7237      46.7237 
   36000    110.30606   -10628.313   -9626.4552   -989.71118     102002.7      46.7237      46.7237      46.7237 
   37000      114.477   -10610.912   -9571.1717   -911.98325     102002.7      46.7237      46.7237      46.7237 
   38000    109.85623   -10639.971   -9642.1986   -967.40832     102002.7      46.7237      46.7237      46.7237 
   39000    110.21716   -10606.276   -9605.2254    -1018.461     102002.7      46.7237      46.7237      46.7237 
   40000    107.03963   -10636.362   -9664.1713   -754.18651     102002.7      46.7237      46.7237      46.7237 
   41000     108.4675   -10633.942   -9648.7829   -1026.3713     102002.7      46.7237      46.7237      46.7237 
   42000    106.99127   -10624.347   -9652.5956   -871.27471     102002.7      46.7237      46.7237      46.7237 
   43000    111.58181   -10644.304   -9630.8591   -806.65886     102002.7      46.7237      46.7237      46.7237 
   44000    113.72717   -10638.872   -9605.9414   -757.56782     102002.7      46.7237      46.7237      46.7237 
   45000    109.02495   -10632.036   -9641.8141   -930.81935     102002.7      46.7237      46.7237      46.7237 
   46000    108.48265   -10628.328   -9643.0316   -775.80009     102002.7      46.7237      46.7237      46.7237 
   47000    106.53664   -10645.153   -9677.5306    -940.9378     102002.7      46.7237      46.7237      46.7237 
   48000     109.0875   -10605.426   -9614.6359   -649.31554     102002.7      46.7237      46.7237      46.7237 
   49000     109.7091    -10629.26   -9632.8241   -950.99228     102002.7      46.7237      46.7237      46.7237 
   50000    109.93977   -10622.978    -9624.447   -979.73042     102002.7      46.7237      46.7237      46.7237 
   51000    108.50269   -10635.543   -9650.0645   -674.06126     102002.7      46.7237      46.7237      46.7237 
   52000    110.01769   -10639.758   -9640.5192   -782.54023     102002.7      46.7237      46.7237      46.7237 
   53000    113.02307   -10629.924   -9603.3887   -556.92445     102002.7      46.7237      46.7237      46.7237 
   54000    109.14708    -10626.37   -9635.0383    -477.2921     102002.7      46.7237      46.7237      46.7237 
   55000    113.11589   -10624.832   -9597.4541   -722.82802     102002.7      46.7237      46.7237      46.7237 
   56000    110.34029   -10635.645   -9633.4758   -504.25395     102002.7      46.7237      46.7237      46.7237 
   57000    109.45947   -10627.496   -9633.3277   -764.33504     102002.7      46.7237      46.7237      46.7237 
   58000    110.67398   -10639.699   -9634.4996   -811.87088     102002.7      46.7237      46.7237      46.7237 
   59000    109.56833   -10631.321   -9636.1634   -862.60655     102002.7      46.7237      46.7237      46.7237 
   60000    109.87979    -10643.45   -9645.4638   -745.35093     102002.7      46.7237      46.7237      46.7237 
   61000     111.7261   -10623.927   -9609.1716   -1011.3963     102002.7      46.7237      46.7237      46.7237 
   62000    111.68041   -10609.485   -9595.1449   -565.62183     102002.7      46.7237      46.7237      46.7237 
   63000    110.11992   -10636.926   -9636.7584   -542.06575     102002.7      46.7237      46.7237      46.7237 
   64000    111.67264   -10621.919    -9607.649   -828.81525     102002.7      46.7237      46.7237      46.7237 
   65000    110.45972   -10649.689   -9646.4357   -823.42989     102002.7      46.7237      46.7237      46.7237 
   66000      112.382     -10639.3   -9618.5872   -864.63661     102002.7      46.7237      46.7237      46.7237 
   67000    109.28879   -10622.409   -9629.7909   -741.18955     102002.7      46.7237      46.7237      46.7237 
   68000    110.63846   -10631.843   -9626.9658   -488.47298     102002.7      46.7237      46.7237      46.7237 
   69000    109.27924    -10640.42   -9647.8886   -929.10195     102002.7      46.7237      46.7237      46.7237 
   70000    109.91596   -10623.329   -9625.0147   -690.14188     102002.7      46.7237      46.7237      46.7237 
   71000    109.30895    -10622.58   -9629.7786   -853.59929     102002.7      46.7237      46.7237      46.7237 
   72000    111.07249   -10654.309   -9645.4897   -537.02243     102002.7      46.7237      46.7237      46.7237 
   73000    110.36653   -10652.698   -9650.2912   -400.26635     102002.7      46.7237      46.7237      46.7237 
   74000     109.4077   -10634.373   -9640.6749   -899.67481     102002.7      46.7237      46.7237      46.7237 
   75000    111.57806   -10626.223   -9612.8126    -760.5783     102002.7      46.7237      46.7237      46.7237 
   76000     110.8181   -10648.226   -9641.7173   -620.19671     102002.7      46.7237      46.7237      46.7237 
   77000    108.09559     -10646.4   -9664.6184   -1053.2499     102002.7      46.7237      46.7237      46.7237 
   78000    111.44462   -10632.356    -9620.157   -533.57381     102002.7      46.7237      46.7237      46.7237 
   79000    111.62262   -10614.825   -9601.0098   -999.57618     102002.7      46.7237      46.7237      46.7237 
   80000    108.58389   -10633.288   -9647.0722   -1049.2728     102002.7      46.7237      46.7237      46.7237 
   81000    110.04057   -10626.955   -9627.5086   -983.61874     102002.7      46.7237      46.7237      46.7237 
   82000    109.42081   -10620.822   -9627.0045   -1058.7535     102002.7      46.7237      46.7237      46.7237 
   83000    110.72187   -10621.876   -9616.2416     -674.048     102002.7      46.7237      46.7237      46.7237 
   84000    111.50171   -10623.391   -9610.6737   -880.24416     102002.7      46.7237      46.7237      46.7237 
   85000    111.04461   -10645.057   -9636.4912   -1011.3244     102002.7      46.7237      46.7237      46.7237 
   86000    110.41027    -10632.45   -9629.6458   -839.22969     102002.7      46.7237      46.7237      46.7237 
   87000    109.40178   -10662.673   -9669.0278   -912.52079     102002.7      46.7237      46.7237      46.7237 
   88000    110.72609   -10660.099    -9654.426   -842.94061     102002.7      46.7237      46.7237      46.7237 
   89000     105.4656   -10603.586   -9645.6914   -862.77568     102002.7      46.7237      46.7237      46.7237 
   90000    110.15095   -10617.124   -9616.6748    -803.7279     102002.7      46.7237      46.7237      46.7237 
   91000     108.2699   -10624.844   -9641.4794   -779.83437     102002.7      46.7237      46.7237      46.7237 
   92000    108.43783   -10615.111   -9630.2212   -1028.8625     102002.7      46.7237      46.7237      46.7237 
   93000    107.47662   -10633.227   -9657.0679   -1105.8181     102002.7      46.7237      46.7237      46.7237 
   94000    112.91436    -10622.68   -9597.1319   -899.88911     102002.7      46.7237      46.7237      46.7237 
   95000    109.63871   -10627.166   -9631.3698   -1103.3527     102002.7      46.7237      46.7237      46.7237 
   96000    109.64613   -10612.166   -9616.3019   -737.94263     102002.7      46.7237      46.7237      46.7237 
   97000    108.42362   -10630.904   -9646.1429   -712.91664     102002.7      46.7237      46.7237      46.7237 
   98000    111.52258   -10647.044   -9634.1366   -1013.5829     102002.7      46.7237      46.7237      46.7237 
   99000    110.63328    -10619.76   -9614.9303   -668.11528     102002.7      46.7237      46.7237      46.7237 
  100000      109.705   -10637.215    -9640.816   -1013.5314     102002.7      46.7237      46.7237      46.7237 
  101000    108.46038   -10630.013   -9644.9181    -669.6729     102002.7      46.7237      46.7237      46.7237 
  102000    109.69586   -10633.655   -9637.3392   -934.78713     102002.7      46.7237      46.7237      46.7237 
  103000    106.44422   -10621.418   -9654.6357   -1190.3358     102002.7      46.7237      46.7237      46.7237 
  104000    111.70932   -10607.897   -9593.2939   -756.51874     102002.7      46.7237      46.7237      46.7237 
  105000    109.74415    -10615.16   -9618.4053   -974.25849     102002.7      46.7237      46.7237      46.7237 
  106000    107.53534    -10651.52   -9674.8272   -774.53179     102002.7      46.7237      46.7237      46.7237 
  107000    109.90684   -10648.427    -9650.195   -906.30798     102002.7      46.7237      46.7237      46.7237 
  108000    107.54311   -10635.292   -9658.5288   -916.03704     102002.7      46.7237      46.7237      46.7237 
  109000    109.90743   -10600.224   -9601.9871   -805.60981     102002.7      46.7237      46.7237      46.7237 
  110000    108.58756   -10646.055   -9659.8051   -854.71025     102002.7      46.7237      46.7237      46.7237 
  111000    109.60351   -10597.692   -9602.2152   -872.81976     102002.7      46.7237      46.7237      46.7237 
  112000    110.29583   -10616.263   -9614.4984    -874.3441     102002.7      46.7237      46.7237      46.7237 
  113000    105.80869   -10629.822   -9668.8119   -1345.0034     102002.7      46.7237      46.7237      46.7237 
  114000    111.05247   -10637.621   -9628.9837   -1037.5117     102002.7      46.7237      46.7237      46.7237 
  115000    108.79073   -10624.728   -9636.6328   -791.03993     102002.7      46.7237      46.7237      46.7237 
  116000    112.60547   -10632.796   -9610.0534   -765.55384     102002.7      46.7237      46.7237      46.7237 
  117000    109.37188   -10632.962   -9639.5888   -740.58462     102002.7      46.7237      46.7237      46.7237 
  118000    111.03737   -10629.502   -9621.0023   -843.58617     102002.7      46.7237      46.7237      46.7237 
  119000    109.79568   -10622.211   -9624.9887   -617.36336     102002.7      46.7237      46.7237      46.7237 
  120000    110.53878   -10670.948   -9666.9766   -704.12527     102002.7      46.7237      46.7237      46.7237 
  121000    108.90928   -10601.708   -9612.5368   -684.69905     102002.7      46.7237      46.7237      46.7237 
  122000    107.66998   -10635.801   -9657.8849    -922.9295     102002.7      46.7237      46.7237      46.7237 
  123000    110.26095   -10627.458     -9626.01   -816.07942     102002.7      46.7237      46.7237      46.7237 
  124000    111.75266   -10638.508   -9623.5113   -874.25995     102002.7      46.7237      46.7237      46.7237 
  125000    108.88779   -10663.608   -9674.6311   -895.75309     102002.7      46.7237      46.7237      46.7237 
  126000    111.50102    -10643.39    -9630.679   -746.34337     102002.7      46.7237      46.7237      46.7237 
  127000    112.39781   -10638.365   -9617.5084   -730.10694     102002.7      46.7237      46.7237      46.7237 
  128000     110.5193   -10624.788   -9620.9934   -808.42286     102002.7      46.7237      46.7237      46.7237 
  129000    110.90528   -10611.826   -9604.5257   -909.90944     102002.7      46.7237      46.7237      46.7237 
  130000    112.56239   -10608.998   -9586.6473    -902.6072     102002.7      46.7237      46.7237      46.7237 
  131000    107.69283   -10660.229   -9682.1057   -769.01177     102002.7      46.7237      46.7237      46.7237 
  132000    112.07618   -10649.423   -9631.4876    -717.8006     102002.7      46.7237      46.7237      46.7237 
  133000    107.28037   -10637.042   -9662.6649   -1074.8056     102002.7      46.7237      46.7237      46.7237 
  134000     109.3317   -10616.346   -9623.3373   -806.65847     102002.7      46.7237      46.7237      46.7237 
  135000    108.16243   -10630.828   -9648.4393   -851.24807     102002.7      46.7237      46.7237      46.7237 
  136000    111.58714   -10630.018   -9616.5242   -1018.3505     102002.7      46.7237      46.7237      46.7237 
  137000    108.67652   -10623.457   -9636.3989   -609.49141     102002.7      46.7237      46.7237      46.7237 
  138000    108.38725   -10645.036   -9660.6057   -1095.7283     102002.7      46.7237      46.7237      46.7237 
  139000    109.55148    -10599.44   -9604.4354   -896.67005     102002.7      46.7237      46.7237      46.7237 
  140000    109.15871   -10638.545   -9647.1075   -819.19428     102002.7      46.7237      46.7237      46.7237 
  141000    110.81031   -10642.336   -9635.8978   -903.33872     102002.7      46.7237      46.7237      46.7237 
  142000    109.58246   -10604.843   -9609.5576   -790.25041     102002.7      46.7237      46.7237      46.7237 
  143000    107.92101    -10598.58   -9618.3848   -749.87736     102002.7      46.7237      46.7237      46.7237 
  144000    108.49293    -10598.27     -9612.88   -696.69358     102002.7      46.7237      46.7237      46.7237 
  145000    110.62726   -10603.868   -9599.0932   -902.47759     102002.7      46.7237      46.7237      46.7237 
  146000    108.61837   -10597.941   -9611.4113   -797.78843     102002.7      46.7237      46.7237      46.7237 
  147000     111.6832   -10651.632    -9637.266   -988.32584     102002.7      46.7237      46.7237      46.7237 
  148000    111.52728   -10650.517   -9637.5669    -1036.974     102002.7      46.7237      46.7237      46.7237 
  149000    112.60306   -10634.378    -9611.658   -720.23431     102002.7      46.7237      46.7237      46.7237 
  150000    109.03293    -10612.69   -9622.3951   -660.15137     102002.7      46.7237      46.7237      46.7237 
  151000    107.15646   -10617.798   -9644.5467   -1138.5684     102002.7      46.7237      46.7237      46.7237 
  152000    110.30326   -10622.634   -9620.8011   -895.84643     102002.7      46.7237      46.7237      46.7237 
  153000     112.1954   -10647.534   -9628.5162   -1275.3446     102002.7      46.7237      46.7237      46.7237 
  154000    109.24483   -10649.192   -9656.9731   -963.33757     102002.7      46.7237      46.7237      46.7237 
  155000     109.7674   -10638.693   -9641.7275   -843.87585     102002.7      46.7237      46.7237      46.7237 
  156000    110.36677   -10619.524    -9617.115   -980.06063     102002.7      46.7237      46.7237      46.7237 
  157000    108.80978   -10633.265   -9644.9974   -813.83915     102002.7      46.7237      46.7237      46.7237 
  158000    110.61365   -10618.008   -9613.3565   -1302.6077     102002.7      46.7237      46.7237      46.7237 
  159000    111.83131   -10608.726   -9593.0147   -978.21699     102002.7      46.7237      46.7237      46.7237 
  160000    111.75048    -10638.77   -9623.7936    -881.3379     102002.7      46.7237      46.7237      46.7237 
  161000    107.63834   -10638.432    -9660.804   -846.93173     102002.7      46.7237      46.7237      46.7237 
  162000    109.91028   -10628.144   -9629.8811    -862.1627     102002.7      46.7237      46.7237      46.7237 
  163000     112.4622   -10603.973   -9582.5314   -729.95294     102002.7      46.7237      46.7237      46.7237 
  164000    109.74023   -10640.656   -9643.9371   -767.39941     102002.7      46.7237      46.7237      46.7237 
  165000    108.33261   -10623.646   -9639.7119   -941.25429     102002.7      46.7237      46.7237      46.7237 
  166000    111.20115   -10626.413   -9616.4255   -829.35082     102002.7      46.7237      46.7237      46.7237 
  167000    108.44462   -10631.102   -9646.1508   -793.99706     102002.7      46.7237      46.7237      46.7237 
  168000    111.71431   -10626.514   -9611.8653   -835.78317     102002.7      46.7237      46.7237      46.7237 
  169000     110.7051   -10618.982   -9613.5002   -727.92306     102002.7      46.7237      46.7237      46.7237 
  170000    109.39133   -10630.305   -9636.7555   -1104.3929     102002.7      46.7237      46.7237      46.7237 
  171000    108.91007   -10632.651   -9643.4723   -877.51675     102002.7      46.7237      46.7237      46.7237 
  172000    109.53181   -10622.541   -9627.7149   -844.93106     102002.7      46.7237      46.7237      46.7237 
  173000     111.6006   -10639.967   -9626.3514   -710.61429     102002.7      46.7237      46.7237      46.7237 
  174000    110.55126   -10623.996   -9619.9108   -661.82421     102002.7      46.7237      46.7237      46.7237 
  175000    108.37829   -10645.688   -9661.3391   -762.01246     102002.7      46.7237      46.7237      46.7237 
  176000    113.09609    -10617.74   -9590.5411    -734.6352     102002.7      46.7237      46.7237      46.7237 
  177000    108.98654   -10619.911   -9630.0376   -782.97165     102002.7      46.7237      46.7237      46.7237 
  178000    110.45258   -10627.879   -9624.6902   -1092.1605     102002.7      46.7237      46.7237      46.7237 
  179000    111.56209   -10647.431   -9634.1654   -932.58713     102002.7      46.7237      46.7237      46.7237 
  180000    107.45402   -10622.128   -9646.1738   -920.27716     102002.7      46.7237      46.7237      46.7237 
  181000    110.66577    -10631.21   -9626.0852   -856.63092     102002.7      46.7237      46.7237      46.7237 
  182000    108.73891   -10639.167   -9651.5427   -1254.2235     102002.7      46.7237      46.7237      46.7237 
  183000    111.57648   -10635.545   -9622.1481    -718.3836     102002.7      46.7237      46.7237      46.7237 
  184000    107.87298   -10615.713   -9635.9533   -446.27197     102002.7      46.7237      46.7237      46.7237 
  185000    107.50014   -10647.508   -9671.1349   -1049.3359     102002.7      46.7237      46.7237      46.7237 
  186000    107.68214   -10623.877   -9645.8506   -757.88396     102002.7      46.7237      46.7237      46.7237 
  187000    108.10674   -10605.554   -9623.6716   -623.31353     102002.7      46.7237      46.7237      46.7237 
  188000    111.50745   -10625.216   -9612.4464   -800.25352     102002.7      46.7237      46.7237      46.7237 
  189000    110.19679   -10636.244   -9635.3787   -867.57885     102002.7      46.7237      46.7237      46.7237 
  190000    110.20059   -10629.098   -9628.1978   -802.43608     102002.7      46.7237      46.7237      46.7237 
  191000    110.90792   -10615.281   -9607.9563   -1003.1671     102002.7      46.7237      46.7237      46.7237 
  192000    107.14686    -10619.73   -9646.5659   -1089.4194     102002.7      46.7237      46.7237      46.7237 
  193000    108.69936   -10624.106   -9636.8406   -1153.0482     102002.7      46.7237      46.7237      46.7237 
  194000    113.46738   -10615.879   -9585.3085   -810.77889     102002.7      46.7237      46.7237      46.7237 
  195000    108.91045   -10606.531   -9617.3493   -917.64168     102002.7      46.7237      46.7237      46.7237 
  196000    111.59669   -10614.325   -9600.7446   -988.66788     102002.7      46.7237      46.7237      46.7237 
  197000    109.82639   -10614.826   -9617.3246   -966.83186     102002.7      46.7237      46.7237      46.7237 
  198000    112.12552   -10628.393   -9610.0101   -978.33902     102002.7      46.7237      46.7237      46.7237 
  199000    109.24308   -10623.847    -9631.644   -735.39345     102002.7      46.7237      46.7237      46.7237 
  200000    109.61317   -10621.428   -9625.8636   -984.34283     102002.7      46.7237      46.7237      46.7237 
  201000    111.74009   -10621.404   -9606.5212   -742.39949     102002.7      46.7237      46.7237      46.7237 
  202000    108.39397   -10610.025   -9625.5335   -865.99214     102002.7      46.7237      46.7237      46.7237 
  203000    107.20838   -10606.331   -9632.6074   -830.84114     102002.7      46.7237      46.7237      46.7237 
  204000    107.80831   -10629.122   -9649.9496   -953.84497     102002.7      46.7237      46.7237      46.7237 
  205000    109.86772   -10632.375   -9634.4986   -922.89192     102002.7      46.7237      46.7237      46.7237 
  206000    111.35096   -10617.621   -9606.2732   -652.55627     102002.7      46.7237      46.7237      46.7237 
  207000    108.25664   -10621.963   -9638.7185   -964.95412     102002.7      46.7237      46.7237      46.7237 
  208000    107.11237   -10606.267   -9633.4159   -864.31515     102002.7      46.7237      46.7237      46.7237 
  209000    109.76531   -10645.623   -9648.6769   -733.34437     102002.7      46.7237      46.7237      46.7237 
  210000    106.90621    -10623.59    -9652.611   -783.01436     102002.7      46.7237      46.7237      46.7237 
  211000    112.45987   -10618.107   -9596.6875   -529.60312     102002.7      46.7237      46.7237      46.7237 
  212000    105.99381   -10618.875   -9656.1831   -676.06705     102002.7      46.7237      46.7237      46.7237 
  213000    108.84641   -10630.946   -9642.3451   -783.94272     102002.7      46.7237      46.7237      46.7237 
  214000    109.31062    -10640.62   -9647.8028   -694.18325     102002.7      46.7237      46.7237      46.7237 
  215000    107.75762   -10630.511   -9651.7993   -934.42419     102002.7      46.7237      46.7237      46.7237 
  216000    111.43132   -10653.178   -9641.0995   -847.42246     102002.7      46.7237      46.7237      46.7237 
  217000    112.12237   -10638.459   -9620.1047   -695.96899     102002.7      46.7237      46.7237      46.7237 
  218000    109.53399   -10629.499    -9634.653   -720.41656     102002.7      46.7237      46.7237      46.7237 
  219000    110.17561   -10634.159   -9633.4863   -545.49763     102002.7      46.7237      46.7237      46.7237 
  220000    109.81762   -10607.369   -9609.9476   -454.63112     102002.7      46.7237      46.7237      46.7237 
  221000    111.35407    -10636.88   -9625.5033   -642.19497     102002.7      46.7237      46.7237      46.7237 
  222000    109.69021   -10619.136   -9622.8715   -629.34321     102002.7      46.7237      46.7237      46.7237 
  223000    110.98598   -10630.751   -9622.7176    -740.5556     102002.7      46.7237      46.7237      46.7237 
  224000    111.30806   -10631.197   -9620.2382   -1001.1832     102002.7      46.7237      46.7237      46.7237 
  225000    110.64923   -10635.336   -9630.3617   -677.47303     102002.7      46.7237      46.7237      46.7237 
  226000    112.64716   -10643.546   -9620.4253   -951.23667     102002.7      46.7237      46.7237      46.7237 
  227000    108.98434   -10607.626   -9617.7731   -912.96607     102002.7      46.7237      46.7237      46.7237 
  228000    107.69802   -10607.345   -9629.1748   -881.67977     102002.7      46.7237      46.7237      46.7237 
  229000    110.27481   -10640.089   -9638.5152   -1059.3909     102002.7      46.7237      46.7237      46.7237 
  230000    110.50106   -10659.937   -9656.3084   -1088.6722     102002.7      46.7237      46.7237      46.7237 
  231000     110.8817   -10661.207   -9654.1208   -960.47312     102002.7      46.7237      46.7237      46.7237 
  232000    109.71551   -10619.373   -9622.8787   -787.69148     102002.7      46.7237      46.7237      46.7237 
  233000    109.33667   -10623.951    -9630.898   -871.86781     102002.7      46.7237      46.7237      46.7237 
  234000    111.53641   -10652.687    -9639.654   -925.47155     102002.7      46.7237      46.7237      46.7237 
  235000     111.0572    -10612.46   -9603.7803   -413.96212     102002.7      46.7237      46.7237      46.7237 
  236000    108.81874    -10655.76   -9667.4108    -743.7338     102002.7      46.7237      46.7237      46.7237 
  237000     109.7628   -10639.789   -9642.8652   -979.31454     102002.7      46.7237      46.7237      46.7237 
  238000     110.0619   -10620.805   -9621.1647   -563.60591     102002.7      46.7237      46.7237      46.7237 
  239000    112.73494    -10640.32   -9616.4017   -968.53287     102002.7      46.7237      46.7237      46.7237 
  240000    109.22253   -10620.249   -9628.2324   -767.83248     102002.7      46.7237      46.7237      46.7237 
  241000    109.43897   -10612.433   -9618.4506    -947.6977     102002.7      46.7237      46.7237      46.7237 
  242000    110.87328   -10611.786   -9604.7765   -932.80246     102002.7      46.7237      46.7237      46.7237 
  243000    111.56703   -10633.936   -9620.6256    -713.3722     102002.7      46.7237      46.7237      46.7237 
  244000    107.69037    -10609.19   -9631.0893   -946.11444     102002.7      46.7237      46.7237      46.7237 
  245000    110.14504   -10628.343   -9627.9474   -1187.8911     102002.7      46.7237      46.7237      46.7237 
  246000    110.11632   -10601.925   -9601.7906   -741.06305     102002.7      46.7237      46.7237      46.7237 
  247000     107.3923   -10637.326   -9661.9329   -931.72493     102002.7      46.7237      46.7237      46.7237 
  248000    109.18844   -10610.026   -9618.3193    -682.4305     102002.7      46.7237      46.7237      46.7237 
  249000    108.79469   -10632.745   -9644.6142    -782.9144     102002.7      46.7237      46.7237      46.7237 
  250000     109.8368    -10643.03   -9645.4345     -983.017     102002.7      46.7237      46.7237      46.7237 
  251000    109.96118   -10619.705   -9620.9795   -973.79265     102002.7      46.7237      46.7237      46.7237 
  252000    112.84954   -10603.027    -9578.068   -854.51892     102002.7      46.7237      46.7237      46.7237 
  253000    110.12987   -10652.794   -9652.5362   -870.64918     102002.7      46.7237      46.7237      46.7237 
  254000    110.55516   -10648.027   -9643.9068   -508.27692     102002.7      46.7237      46.7237      46.7237 
  255000    109.30835   -10612.891   -9620.0952   -650.61893     102002.7      46.7237      46.7237      46.7237 
  256000    111.57926   -10650.773   -9637.3511   -681.24753     102002.7      46.7237      46.7237      46.7237 
  257000    109.94209   -10630.819    -9632.267   -838.07748     102002.7      46.7237      46.7237      46.7237 
  258000     112.6392   -10597.376   -9574.3272    -851.9839     102002.7      46.7237      46.7237      46.7237 
  259000    109.32403   -10637.828   -9644.8893   -901.79161     102002.7      46.7237      46.7237      46.7237 
  260000    111.26771   -10629.375   -9618.7828    -766.8403     102002.7      46.7237      46.7237      46.7237 
  261000    116.49601   -10634.139   -9576.0606   -784.51304     102002.7      46.7237      46.7237      46.7237 
  262000    110.84837   -10630.072   -9623.2888   -938.11727     102002.7      46.7237      46.7237      46.7237 
  263000    109.84618   -10636.102   -9638.4208   -962.98548     102002.7      46.7237      46.7237      46.7237 
  264000    108.23645   -10601.144    -9618.083    -731.1453     102002.7      46.7237      46.7237      46.7237 
  265000    108.10189   -10631.157   -9649.3185   -1016.4605     102002.7      46.7237      46.7237      46.7237 
  266000    112.09558   -10610.653   -9592.5416   -900.73791     102002.7      46.7237      46.7237      46.7237 
  267000    109.30831   -10607.802   -9615.0066   -930.01244     102002.7      46.7237      46.7237      46.7237 
  268000    108.30605   -10628.087   -9644.3946   -938.29152     102002.7      46.7237      46.7237      46.7237 
  269000    107.90705    -10634.58   -9654.5116   -898.06112     102002.7      46.7237      46.7237      46.7237 
  270000    109.33955   -10609.045   -9615.9653   -938.02419     102002.7      46.7237      46.7237      46.7237 
  271000    110.43351   -10625.027   -9622.0118    -998.9014     102002.7      46.7237      46.7237      46.7237 
  272000    112.22962   -10628.748   -9609.4198   -932.96091     102002.7      46.7237      46.7237      46.7237 
  273000    108.37803   -10633.064   -9648.7176   -1146.0215     102002.7      46.7237      46.7237      46.7237 
  274000    109.82362    -10626.52   -9629.0437   -867.64017     102002.7      46.7237      46.7237      46.7237 
  275000    111.32861   -10634.361   -9623.2161   -1026.7157     102002.7      46.7237      46.7237      46.7237 
  276000    108.13846   -10591.634   -9609.4635   -1127.7601     102002.7      46.7237      46.7237      46.7237 
  277000    112.23594   -10645.506   -9626.1195    -864.3627     102002.7      46.7237      46.7237      46.7237 
  278000    108.75604   -10635.406   -9647.6257   -905.04875     102002.7      46.7237      46.7237      46.7237 
  279000    108.36885   -10615.455    -9631.192   -615.66357     102002.7      46.7237      46.7237      46.7237 
  280000    113.46035   -10649.765   -9619.2578    -853.9482     102002.7      46.7237      46.7237      46.7237 
  281000    112.53182   -10610.946   -9588.8729   -696.45624     102002.7      46.7237      46.7237      46.7237 
  282000    109.18524    -10614.96    -9623.282   -673.44367     102002.7      46.7237      46.7237      46.7237 
  283000    109.41953   -10637.113   -9643.3073   -1095.5765     102002.7      46.7237      46.7237      46.7237 
  284000    111.86338   -10625.248   -9609.2461    -541.1483     102002.7      46.7237      46.7237      46.7237 
  285000    109.12559   -10636.736   -9645.6001   -708.91992     102002.7      46.7237      46.7237      46.7237 
  286000    112.43188   -10625.147   -9603.9811   -684.33128     102002.7      46.7237      46.7237      46.7237 
  287000    108.78636   -10636.739   -9648.6836   -1002.6669     102002.7      46.7237      46.7237      46.7237 
  288000    110.19258   -10606.135   -9605.3077    -1035.644     102002.7      46.7237      46.7237      46.7237 
  289000    109.23454   -10630.515   -9638.3888   -693.00074     102002.7      46.7237      46.7237      46.7237 
  290000    111.02152   -10625.881   -9617.5251   -1141.3887     102002.7      46.7237      46.7237      46.7237 
  291000    112.50311   -10646.238   -9624.4251   -1004.5117     102002.7      46.7237      46.7237      46.7237 
  292000    111.72191   -10616.246   -9601.5283   -811.98935     102002.7      46.7237      46.7237      46.7237 
  293000    109.21626   -10627.894   -9635.9339   -998.74499     102002.7      46.7237      46.7237      46.7237 
  294000    112.85121   -10612.831   -9587.8566   -793.18445     102002.7      46.7237      46.7237      46.7237 
  295000    110.92063   -10624.706   -9617.2662   -893.39748     102002.7      46.7237      46.7237      46.7237 
  296000    109.61515   -10620.749   -9625.1659   -857.79544     102002.7      46.7237      46.7237      46.7237 
  297000    109.26444   -10606.343   -9613.9457   -802.48547     102002.7      46.7237      46.7237      46.7237 
  298000    109.62024   -10609.401   -9613.7718   -878.79043     102002.7      46.7237      46.7237      46.7237 
  299000    107.10077   -10646.812   -9674.0659    -931.7775     102002.7      46.7237      46.7237      46.7237 
  300000    110.33263   -10629.991   -9627.8913   -1021.8335     102002.7      46.7237      46.7237      46.7237 
  301000    110.02273   -10627.421   -9628.1368   -793.73083     102002.7      46.7237      46.7237      46.7237 
  302000    109.31373   -10578.078   -9585.2332   -1060.9697     102002.7      46.7237      46.7237      46.7237 
  303000    108.11053   -10600.933   -9619.0157   -936.12334     102002.7      46.7237      46.7237      46.7237 
  304000    112.52446   -10620.508   -9598.5013   -833.23629     102002.7      46.7237      46.7237      46.7237 
  305000    108.44982   -10629.392   -9644.3937   -1000.1104     102002.7      46.7237      46.7237      46.7237 
  306000    111.03328   -10624.431   -9615.9685    -746.2996     102002.7      46.7237      46.7237      46.7237 
  307000    109.11337   -10626.485   -9635.4595   -1083.9685     102002.7      46.7237      46.7237      46.7237 
  308000    109.60711   -10630.597   -9635.0873   -997.60554     102002.7      46.7237      46.7237      46.7237 
  309000    109.54852   -10637.044   -9642.0667   -686.89927     102002.7      46.7237      46.7237      46.7237 
  310000    109.59023   -10628.397   -9633.0409   -1022.2211     102002.7      46.7237      46.7237      46.7237 
  311000    110.58533   -10606.246   -9601.8518   -618.26911     102002.7      46.7237      46.7237      46.7237 
  312000    109.80985    -10613.11   -9615.7585   -673.59235     102002.7      46.7237      46.7237      46.7237 
  313000    111.96646   -10623.506   -9606.5675   -529.12634     102002.7      46.7237      46.7237      46.7237 
  314000    111.27372   -10620.625   -9609.9785   -580.17897     102002.7      46.7237      46.7237      46.7237 
  315000    111.19963   -10617.271   -9607.2972   -688.77327     102002.7      46.7237      46.7237      46.7237 
  316000    109.16019   -10617.313   -9625.8624   -852.36271     102002.7      46.7237      46.7237      46.7237 
  317000      115.095   -10637.905   -9592.5518   -989.18942     102002.7      46.7237      46.7237      46.7237 
  318000    109.31084   -10628.635   -9635.8163   -978.72371     102002.7      46.7237      46.7237      46.7237 
  319000    109.36564   -10628.374   -9635.0579   -1213.3719     102002.7      46.7237      46.7237      46.7237 
  320000    110.78274   -10640.843   -9634.6556   -923.27119     102002.7      46.7237      46.7237      46.7237 
  321000    110.71166   -10606.158   -9600.6158   -950.78281     102002.7      46.7237      46.7237      46.7237 
  322000    110.96032   -10639.965    -9632.165   -449.39048     102002.7      46.7237      46.7237      46.7237 
  323000    107.66214   -10620.654   -9642.8098   -495.61106     102002.7      46.7237      46.7237      46.7237 
  324000    110.03217   -10621.018    -9621.648   -672.21938     102002.7      46.7237      46.7237      46.7237 
  325000    111.79064    -10609.48   -9594.1384   -807.99126     102002.7      46.7237      46.7237      46.7237 
  326000    112.50797   -10620.493   -9598.6363   -700.77027     102002.7      46.7237      46.7237      46.7237 
  327000    107.52644   -10640.866   -9664.2539   -1023.6666     102002.7      46.7237      46.7237      46.7237 
  328000    107.28972   -10633.914   -9659.4524   -1126.8827     102002.7      46.7237      46.7237      46.7237 
  329000    110.31643   -10647.047   -9645.0954   -856.56854     102002.7      46.7237      46.7237      46.7237 
  330000    110.77917   -10627.614   -9621.4586   -877.52692     102002.7      46.7237      46.7237      46.7237 
  331000    108.77695   -10607.477   -9619.5071   -791.24604     102002.7      46.7237      46.7237      46.7237 
  332000    110.07554   -10641.201   -9641.4365   -869.89316     102002.7      46.7237      46.7237      46.7237 
  333000    109.87105   -10613.446    -9615.539   -726.61025     102002.7      46.7237      46.7237      46.7237 
  334000     107.5088   -10625.078   -9648.6266   -721.28486     102002.7      46.7237      46.7237      46.7237 
  335000     111.8895   -10635.721   -9619.4811   -908.07118     102002.7      46.7237      46.7237      46.7237 
  336000    107.98999   -10645.352   -9664.5294    -1024.152     102002.7      46.7237      46.7237      46.7237 
  337000    108.60313   -10636.521   -9650.1296   -1032.9066     102002.7      46.7237      46.7237      46.7237 
  338000    111.57816   -10653.659   -9640.2477   -847.96716     102002.7      46.7237      46.7237      46.7237 
  339000    110.47772   -10637.755   -9634.3382   -899.36918     102002.7      46.7237      46.7237      46.7237 
  340000     108.4862   -10616.683   -9631.3539   -1149.0413     102002.7      46.7237      46.7237      46.7237 
  341000    108.87517   -10644.572   -9655.7098    -1197.188     102002.7      46.7237      46.7237      46.7237 
  342000    110.20574   -10604.781   -9603.8339   -669.36303     102002.7      46.7237      46.7237      46.7237 
  343000    109.12731   -10612.281   -9621.1288   -1030.7122     102002.7      46.7237      46.7237      46.7237 
  344000    109.29366   -10642.166   -9649.5029   -803.45899     102002.7      46.7237      46.7237      46.7237 
  345000    107.89158   -10641.366   -9661.4375   -895.12534     102002.7      46.7237      46.7237      46.7237 
  346000     113.1124    -10619.65    -9592.303   -1150.6585     102002.7      46.7237      46.7237      46.7237 
  347000    109.69772   -10623.841   -9627.5088   -747.89972     102002.7      46.7237      46.7237      46.7237 
  348000    112.59496   -10615.613   -9592.9663   -1006.2549     102002.7      46.7237      46.7237      46.7237 
  349000    110.46654   -10619.957   -9616.6419   -1095.6606     102002.7      46.7237      46.7237      46.7237 
  350000    107.00064   -10637.811   -9665.9743   -1004.3146     102002.7      46.7237      46.7237      46.7237 
  351000    111.04315   -10632.279   -9623.7263   -833.30454     102002.7      46.7237      46.7237      46.7237 
  352000    112.33606   -10614.886   -9594.5903   -552.44265     102002.7      46.7237      46.7237      46.7237 
  353000    111.21905   -10624.616   -9614.4663    -733.6962     102002.7      46.7237      46.7237      46.7237 
  354000    109.53576   -10627.435    -9632.573   -992.09163     102002.7      46.7237      46.7237      46.7237 
  355000    111.35113   -10638.463   -9627.1129   -752.24292     102002.7      46.7237      46.7237      46.7237 
  356000    108.36022   -10616.065     -9631.88   -661.53218     102002.7      46.7237      46.7237      46.7237 
  357000    110.99042   -10617.018   -9608.9445   -697.11849     102002.7      46.7237      46.7237      46.7237 
  358000    111.57392   -10614.105   -9600.7319   -340.31509     102002.7      46.7237      46.7237      46.7237 
  359000    111.90889   -10642.175   -9625.7589   -882.14256     102002.7      46.7237      46.7237      46.7237 
  360000    108.18939   -10610.057   -9627.4239   -848.46973     102002.7      46.7237      46.7237      46.7237 
  361000    109.71968   -10622.663   -9626.1312   -1001.0813     102002.7      46.7237      46.7237      46.7237 
  362000    108.55493   -10638.099   -9652.1457   -716.61908     102002.7      46.7237      46.7237      46.7237 
  363000    107.50266   -10606.795   -9630.3988   -692.72235     102002.7      46.7237      46.7237      46.7237 
  364000    110.94884   -10626.772   -9619.0758    -884.0227     102002.7      46.7237      46.7237      46.7237 
  365000    108.83698   -10616.968   -9628.4526   -837.77939     102002.7      46.7237      46.7237      46.7237 
  366000    111.94702   -10632.638   -9615.8759   -813.26067     102002.7      46.7237      46.7237      46.7237 
  367000    109.26609   -10624.401   -9631.9889   -802.11318     102002.7      46.7237      46.7237      46.7237 
  368000    111.50564   -10633.674   -9620.9212   -957.27672     102002.7      46.7237      46.7237      46.7237 
  369000    108.95781   -10605.422   -9615.8095   -1033.3599     102002.7      46.7237      46.7237      46.7237 
  370000    107.97403   -10627.693   -9647.0156   -1134.9365     102002.7      46.7237      46.7237      46.7237 
  371000     112.0132   -10632.327   -9614.9644   -923.66541     102002.7      46.7237      46.7237      46.7237 
  372000    110.04493   -10609.471   -9609.9852   -728.68858     102002.7      46.7237      46.7237      46.7237 
  373000    109.01422   -10638.289    -9648.164   -868.99239     102002.7      46.7237      46.7237      46.7237 
  374000    109.29336   -10639.708   -9647.0478   -639.72133     102002.7      46.7237      46.7237      46.7237 
  375000    109.70597    -10581.43   -9585.0223   -496.95146     102002.7      46.7237      46.7237      46.7237 
  376000    108.84445   -10641.042   -9652.4593   -932.96397     102002.7      46.7237      46.7237      46.7237 
  377000    108.84217   -10635.522   -9646.9601   -882.66234     102002.7      46.7237      46.7237      46.7237 
  378000    111.84186    -10611.58    -9595.773   -1225.0141     102002.7      46.7237      46.7237      46.7237 
  379000    112.78744   -10611.466   -9587.0708   -930.19496     102002.7      46.7237      46.7237      46.7237 
  380000    111.12874   -10628.639   -9619.3095   -959.11419     102002.7      46.7237      46.7237      46.7237 
  381000    110.79327   -10605.781    -9599.498   -981.53293     102002.7      46.7237      46.7237      46.7237 
  382000    110.20915   -10610.357   -9609.3791    -841.9079     102002.7      46.7237      46.7237      46.7237 
  383000    112.86243    -10659.56   -9634.4837   -817.49399     102002.7      46.7237      46.7237      46.7237 
  384000    110.17042    -10634.72   -9634.0942   -1143.3624     102002.7      46.7237      46.7237      46.7237 
  385000    110.80227   -10625.376   -9619.0115    -1057.997     102002.7      46.7237      46.7237      46.7237 
  386000    109.69968   -10617.321   -9620.9701   -1129.2959     102002.7      46.7237      46.7237      46.7237 
  387000    111.07181   -10631.895   -9623.0818   -1003.9362     102002.7      46.7237      46.7237      46.7237 
  388000    109.68265   -10620.921   -9624.7248   -807.05888     102002.7      46.7237      46.7237      46.7237 
  389000    109.58169   -10612.543   -9617.2639   -965.91316     102002.7      46.7237      46.7237      46.7237 
  390000    109.41259   -10640.142   -9646.3987   -842.88447     102002.7      46.7237      46.7237      46.7237 
  391000     110.7198   -10607.176   -9601.5605   -844.93669     102002.7      46.7237      46.7237      46.7237 
  392000    112.77211   -10631.944   -9607.6879   -706.14992     102002.7      46.7237      46.7237      46.7237 
  393000    108.69473   -10640.943   -9653.7203   -775.05334     102002.7      46.7237      46.7237      46.7237 
  394000    112.32957   -10652.358   -9632.1217   -704.03666     102002.7      46.7237      46.7237      46.7237 
  395000    112.21162   -10626.131   -9606.9654   -765.95903     102002.7      46.7237      46.7237      46.7237 
  396000    109.80901    -10627.15   -9629.8063   -879.23008     102002.7      46.7237      46.7237      46.7237 
  397000    111.63114   -10606.906   -9593.0125   -945.30305     102002.7      46.7237      46.7237      46.7237 
  398000     113.2387   -10614.555   -9586.0618   -924.19653     102002.7      46.7237      46.7237      46.7237 
  399000    108.84845   -10612.714   -9624.0947    -676.1453     102002.7      46.7237      46.7237      46.7237 
  400000    110.95208   -10625.341   -9617.6153   -860.49959     102002.7      46.7237      46.7237      46.7237 
  401000     112.8916   -10606.486   -9581.1445   -781.06823     102002.7      46.7237      46.7237      46.7237 
  402000    110.36592   -10630.702      -9628.3   -710.75079     102002.7      46.7237      46.7237      46.7237 
  403000    109.29945   -10622.823   -9630.1078   -975.04658     102002.7      46.7237      46.7237      46.7237 
  404000    110.62453   -10634.828   -9630.0778   -656.88346     102002.7      46.7237      46.7237      46.7237 
  405000    110.91591   -10612.689   -9605.2926   -711.79739     102002.7      46.7237      46.7237      46.7237 
  406000    108.80605   -10644.705   -9656.4708   -641.97286     102002.7      46.7237      46.7237      46.7237 
  407000    110.26253   -10608.031   -9606.5684   -674.58234     102002.7      46.7237      46.7237      46.7237 
  408000     107.6443   -10640.164   -9662.4813    -1047.025     102002.7      46.7237      46.7237      46.7237 
  409000    112.85943   -10619.522   -9594.4733   -414.32009     102002.7      46.7237      46.7237      46.7237 
  410000    109.56077    -10603.41   -9608.3209   -727.54945     102002.7      46.7237      46.7237      46.7237 
  411000    108.63952   -10640.158   -9653.4361    -733.0793     102002.7      46.7237      46.7237      46.7237 
  412000    109.67158   -10618.183   -9622.0876    -1011.202     102002.7      46.7237      46.7237      46.7237 
  413000    108.66921   -10606.529   -9619.5379   -937.20023     102002.7      46.7237      46.7237      46.7237 
  414000    110.98057   -10641.447   -9633.4624   -724.97837     102002.7      46.7237      46.7237      46.7237 
  415000    110.20229    -10612.73   -9611.8147   -1215.3986     102002.7      46.7237      46.7237      46.7237 
  416000    111.25811   -10612.565   -9602.0599   -1132.0342     102002.7      46.7237      46.7237      46.7237 
  417000    113.35496   -10618.861    -9589.311   -1010.3953     102002.7      46.7237      46.7237      46.7237 
  418000    109.57157   -10625.763   -9630.5761   -1060.7622     102002.7      46.7237      46.7237      46.7237 
  419000    108.25429   -10629.289   -9646.0661   -648.26245     102002.7      46.7237      46.7237      46.7237 
  420000    110.66117   -10629.469    -9624.386   -1137.7387     102002.7      46.7237      46.7237      46.7237 
  421000    109.79119   -10620.122   -9622.9407   -835.22626     102002.7      46.7237      46.7237      46.7237 
  422000    109.17505   -10626.166   -9634.5808   -796.63314     102002.7      46.7237      46.7237      46.7237 
  423000    111.83546   -10618.921   -9603.1719   -939.07769     102002.7      46.7237      46.7237      46.7237 
  424000    112.29328   -10657.846   -9637.9394   -843.35305     102002.7      46.7237      46.7237      46.7237 
  425000    111.62994   -10599.499    -9585.617   -522.66911     102002.7      46.7237      46.7237      46.7237 
  426000    110.40682   -10633.132   -9630.3593   -879.19918     102002.7      46.7237      46.7237      46.7237 
  427000    110.65611   -10627.321   -9622.2835    -650.9186     102002.7      46.7237      46.7237      46.7237 
  428000    110.55123   -10631.067   -9626.9821   -623.32493     102002.7      46.7237      46.7237      46.7237 
  429000    108.20147   -10616.614   -9633.8712   -893.09044     102002.7      46.7237      46.7237      46.7237 
  430000    107.88746   -10652.937   -9673.0461   -691.92505     102002.7      46.7237      46.7237      46.7237 
  431000    111.53881   -10641.661    -9628.607   -625.74049     102002.7      46.7237      46.7237      46.7237 
  432000    108.94526   -10613.068   -9623.5697   -590.03169     102002.7      46.7237      46.7237      46.7237 
  433000    110.41135   -10648.743   -9645.9286   -787.03554     102002.7      46.7237      46.7237      46.7237 
  434000    108.72721   -10627.709   -9640.1906   -1094.6092     102002.7      46.7237      46.7237      46.7237 
  435000    111.29769   -10639.255   -9628.3906   -944.77431     102002.7      46.7237      46.7237      46.7237 
  436000    112.31497   -10647.797   -9627.6935   -757.51561     102002.7      46.7237      46.7237      46.7237 
  437000    109.17814   -10623.824   -9632.2103   -835.49312     102002.7      46.7237      46.7237      46.7237 
  438000    109.99599   -10638.159   -9639.1177   -836.76728     102002.7      46.7237      46.7237      46.7237 
  439000    108.68744   -10623.127   -9635.9705   -724.21758     102002.7      46.7237      46.7237      46.7237 
  440000    111.71449   -10624.122   -9609.4723   -657.24103     102002.7      46.7237      46.7237      46.7237 
  441000    112.92732   -10608.193   -9582.5274   -728.60486     102002.7      46.7237      46.7237      46.7237 
  442000    110.09084   -10641.746   -9641.8433   -1018.2967     102002.7      46.7237      46.7237      46.7237 
  443000    111.88343    -10607.29   -9591.1052   -888.08316     102002.7      46.7237      46.7237      46.7237 
  444000    108.61647   -10629.952   -9643.4399   -754.37303     102002.7      46.7237      46.7237      46.7237 
  445000    110.50509   -10620.337   -9616.6718   -1117.0722     102002.7      46.7237      46.7237      46.7237 
  446000    110.44971   -10612.467   -9609.3047   -680.03349     102002.7      46.7237      46.7237      46.7237 
  447000    109.58542   -10622.093     -9626.78   -993.40737     102002.7      46.7237      46.7237      46.7237 
  448000    110.88203   -10646.041   -9638.9521   -1043.6384     102002.7      46.7237      46.7237      46.7237 
  449000    111.10747   -10638.523   -9629.3859   -666.13464     102002.7      46.7237      46.7237      46.7237 
  450000    110.02061    -10646.14   -9646.8749   -943.71432     102002.7      46.7237      46.7237      46.7237 
  451000    110.45232   -10630.969   -9627.7832   -840.13785     102002.7      46.7237      46.7237      46.7237 
  452000    111.84905   -10632.458   -9616.5854   -709.02408     102002.7      46.7237      46.7237      46.7237 
  453000    110.78108   -10643.429   -9637.2569   -783.58031     102002.7      46.7237      46.7237      46.7237 
  454000    108.26685   -10648.951   -9665.6139   -599.97817     102002.7      46.7237      46.7237      46.7237 
  455000    108.45207   -10643.182   -9658.1634   -606.54951     102002.7      46.7237      46.7237      46.7237 
  456000    109.57772   -10637.007   -9641.7645   -935.79816     102002.7      46.7237      46.7237      46.7237 
  457000    111.62916   -10605.492   -9591.6172   -871.45277     102002.7      46.7237      46.7237      46.7237 
  458000    109.30237   -10620.565    -9627.823   -678.60412     102002.7      46.7237      46.7237      46.7237 
  459000    109.74797   -10626.813   -9630.0244   -804.70314     102002.7      46.7237      46.7237      46.7237 
  460000    110.12946    -10637.86   -9637.6065   -839.22631     102002.7      46.7237      46.7237      46.7237 
  461000    107.39131   -10651.633   -9676.2481   -1115.9516     102002.7      46.7237      46.7237      46.7237 
  462000    108.38328   -10639.698   -9655.3038   -988.91926     102002.7      46.7237      46.7237      46.7237 
  463000    110.71974    -10626.92   -9621.3052   -862.78657     102002.7      46.7237      46.7237      46.7237 
  464000    108.23032   -10604.216   -9621.2109   -691.75001     102002.7      46.7237      46.7237      46.7237 
  465000    108.06943   -10641.925   -9660.3809   -890.35786     102002.7      46.7237      46.7237      46.7237 
  466000    109.21959   -10614.535   -9622.5454   -782.53146     102002.7      46.7237      46.7237      46.7237 
  467000    109.05546   -10639.871    -9649.372   -710.27618     102002.7      46.7237      46.7237      46.7237 
  468000    109.07553   -10640.381   -9649.6993   -913.96788     102002.7      46.7237      46.7237      46.7237 
  469000    110.34308   -10616.466   -9614.2714   -782.25408     102002.7      46.7237      46.7237      46.7237 
  470000    111.68644   -10624.857   -9610.4613   -801.89209     102002.7      46.7237      46.7237      46.7237 
  471000     110.5168   -10650.053   -9646.2814   -1142.9067     102002.7      46.7237      46.7237      46.7237 
  472000    111.36052   -10623.356   -9611.9209   -1217.6809     102002.7      46.7237      46.7237      46.7237 
  473000    109.52224     -10632.8   -9638.0615   -877.51409     102002.7      46.7237      46.7237      46.7237 
  474000    113.03232    -10619.41   -9592.7913   -717.61467     102002.7      46.7237      46.7237      46.7237 
  475000    111.14281   -10620.114   -9610.6566   -870.55697     102002.7      46.7237      46.7237      46.7237 
  476000    110.08155   -10651.488   -9651.6693   -1199.1117     102002.7      46.7237      46.7237      46.7237 
  477000    111.52869   -10627.449   -9614.4862   -776.41896     102002.7      46.7237      46.7237      46.7237 
  478000    110.64398   -10649.324   -9644.3968    -570.6359     102002.7      46.7237      46.7237      46.7237 
  479000    107.91305   -10633.793   -9653.6694   -816.17859     102002.7      46.7237      46.7237      46.7237 
  480000    110.62846   -10633.789    -9629.003   -918.18013     102002.7      46.7237      46.7237      46.7237 
  481000    109.63867   -10620.895   -9625.0987   -631.95115     102002.7      46.7237      46.7237      46.7237 
  482000    106.98431   -10618.806   -9647.1177    -795.9563     102002.7      46.7237      46.7237      46.7237 
  483000    108.57682   -10634.705   -9648.5526   -864.49992     102002.7      46.7237      46.7237      46.7237 
  484000    109.52573   -10621.132   -9626.3612   -920.15548     102002.7      46.7237      46.7237      46.7237 
  485000    109.48019   -10609.155   -9614.7978   -806.05165     102002.7      46.7237      46.7237      46.7237 
  486000    108.13758   -10649.067   -9666.9047    -660.3375     102002.7      46.7237      46.7237      46.7237 
  487000    111.99425   -10643.223    -9626.032   -732.28284     102002.7      46.7237      46.7237      46.7237 
  488000    107.11824   -10604.823   -9631.9182   -889.01633     102002.7      46.7237      46.7237      46.7237 
  489000    107.30143     -10627.2   -9652.6316   -1076.4953     102002.7      46.7237      46.7237      46.7237 
  490000    109.69894   -10629.447   -9633.1031   -912.76712     102002.7      46.7237      46.7237      46.7237 
  491000    110.89763   -10647.591   -9640.3603   -965.85296     102002.7      46.7237      46.7237      46.7237 
  492000    110.84125   -10632.591    -9625.872   -1097.1763     102002.7      46.7237      46.7237      46.7237 
  493000     113.0453   -10615.903   -9589.1659   -920.29831     102002.7      46.7237      46.7237      46.7237 
  494000     113.0082   -10632.523   -9606.1232   -843.23964     102002.7      46.7237      46.7237      46.7237 
  495000    108.28768   -10622.747   -9639.2209   -978.60598     102002.7      46.7237      46.7237      46.7237 
  496000    109.27815   -10610.686   -9618.1644   -590.27929     102002.7      46.7237      46.7237      46.7237 
  497000    111.17398   -10605.425   -9595.6843   -774.95208     102002.7      46.7237      46.7237      46.7237 
  498000    112.99079   -10644.621   -9618.3794   -799.03165     102002.7      46.7237      46.7237      46.7237 
  499000    111.10339   -10618.007    -9608.907   -853.64361     102002.7      46.7237      46.7237      46.7237 
  500000    110.39753   -10633.925   -9631.2359    -936.8868     102002.7      46.7237      46.7237      46.7237 
  500500    109.39903   -10618.952   -9625.3321   -993.85976     102002.7      46.7237      46.7237      46.7237 
Loop time of 867.699 on 24 procs for 500000 steps with 3048 atoms

Performance: 49.787 ns/day, 0.482 hours/ns, 576.236 timesteps/s
97.9% CPU use with 24 MPI tasks x no OpenMP threads

MPI task timing breakdown:
Section |  min time  |  avg time  |  max time  |%varavg| %total
---------------------------------------------------------------
Pair    | 308.49     | 442.95     | 594.4      | 486.1 | 51.05
Bond    | 52.823     | 78.541     | 108.83     | 209.7 |  9.05
Neigh   | 7.4869     | 7.5111     | 7.5318     |   0.5 |  0.87
Comm    | 152.07     | 323.37     | 477.85     | 657.5 | 37.27
Output  | 0.46841    | 0.46878    | 0.47358    |   0.1 |  0.05
Modify  | 4.2958     | 5.098      | 5.788      |  22.7 |  0.59
Other   |            | 9.757      |            |       |  1.12

Nlocal:    127 ave 168 max 84 min
Histogram: 2 0 3 4 3 1 6 2 1 2
Nghost:    3376.04 ave 3458 max 3299 min
Histogram: 2 3 2 4 3 1 2 2 3 2
Neighs:    7636.04 ave 14322 max 1425 min
Histogram: 1 4 4 2 2 2 3 2 2 2

Total # of neighbors = 183265
Ave neighs/atom = 60.1263
Ave special neighs/atom = 3.77953
Neighbor list builds = 4762
Dangerous builds = 0
Neighbor list info ...
  update every 1 steps, delay 10 steps, check yes
  max neighbors/atom: 2000, page size: 100000
  master list distance cutoff = 16
  ghost atom cutoff = 16
  binsize = 8, bins = 6 6 6
  3 neighbor lists, perpetual/occasional/extra = 3 0 0
  (1) pair buck6d/coul/gauss/dsf, perpetual, skip from (3)
      attributes: half, newton on
      pair build: skip
      stencil: none
      bin: none
  (2) pair lj/cut, perpetual, skip from (3)
      attributes: half, newton on
      pair build: skip
      stencil: none
      bin: none
  (3) neighbor class addition, perpetual
      attributes: half, newton on
      pair build: half/bin/newton
      stencil: half/bin/3d/newton
      bin: standard
Setting up Verlet run ...
  Unit style    : real
  Current step  : 500500
  Time step     : 1
WARNING: Inconsistent image flags (../domain.cpp:786)
Per MPI rank memory allocation (min/avg/max) = 24.19 | 24.54 | 24.65 Mbytes
Step Time TotEng KinEng PotEng E_mol E_pair Temp Pxx Pyy Pzz Pxy Pxz Pyz Cella Cellb Cellc CellAlpha CellBeta CellGamma Volume Press 
  500500       500000   -9625.3321    993.61977   -10618.952    4286.4585    -14905.41    109.39903   -1358.1565   -805.67151   -817.75127   -43.540051   -115.03008   -287.66981      46.7237      46.7237      46.7237           90           90           90     102002.7   -993.85976 
  501000       500500   -9604.2145    1003.1147   -10607.329    4285.1619   -14892.491    110.44443   -1142.4081   -689.95227   -745.61866   -20.305253    106.41105    67.714423      46.7237      46.7237      46.7237           90           90           90     102002.7   -859.32634 
  502000       501500    -9629.877    988.07555   -10617.953    4278.8175    -14896.77     108.7886    -1075.127   -1030.6654   -809.11116   -98.597685    155.66475    160.88857      46.7237      46.7237      46.7237           90           90           90     102002.7   -971.63454 
  503000       502500   -9646.7811    973.57149   -10620.353     4272.277    -14892.63    107.19168   -894.67829   -1047.1105   -774.67058    -346.6627   -57.144171   -74.825228      46.7237      46.7237      46.7237           90           90           90     102002.7   -905.48646 
  504000       503500   -9625.3651    998.95137   -10624.316    4276.8339    -14901.15    109.98605   -1009.8831   -1352.5876   -1013.5431   -167.00867    -157.4251   -65.575297      46.7237      46.7237      46.7237           90           90           90     102002.7    -1125.338 
  505000       504500   -9678.3219    983.46513   -10661.787    4266.0999   -14927.887    108.28099   -1174.9825   -1424.0794   -1329.7591   -139.98835     119.1674    72.259879      46.7237      46.7237      46.7237           90           90           90     102002.7    -1309.607 
  506000       505500    -9616.012    1001.2936   -10617.306    4265.9673   -14883.273    110.24393   -1238.5555   -503.23563   -861.88922    67.759981   -86.898195   -89.142753      46.7237      46.7237      46.7237           90           90           90     102002.7   -867.89346 
  507000       506500    -9624.632    985.75318   -10610.385    4290.8855   -14901.271    108.53291   -1057.8207    -1043.501   -938.97831    242.53548    19.173302    -75.53126      46.7237      46.7237      46.7237           90           90           90     102002.7   -1013.4333 
  508000       507500   -9628.6517    993.18385   -10621.836    4277.9701   -14899.806    109.35103   -910.61824   -1068.2587    -455.0272    18.206647   -86.522287   -290.08746      46.7237      46.7237      46.7237           90           90           90     102002.7   -811.30138 
  509000       508500   -9617.2447    994.96313   -10612.208    4268.2869   -14880.495    109.54694   -947.33632   -779.75382   -556.63218   -203.32451    50.237065   -37.828015      46.7237      46.7237      46.7237           90           90           90     102002.7   -761.24077 
  510000       509500   -9642.5244    996.96173   -10639.486    4269.0982   -14908.584    109.76698   -1229.0729   -945.84402   -866.46252    166.92804     12.21009   -367.06652      46.7237      46.7237      46.7237           90           90           90     102002.7   -1013.7931 
  511000       510500   -9617.4723    1035.7131   -10653.185    4277.1305   -14930.316    114.03357   -581.09654   -846.95162    -656.6816    276.13893    217.87589   -207.52462      46.7237      46.7237      46.7237           90           90           90     102002.7   -694.90992 
  512000       511500   -9592.5912    1019.8713   -10612.462    4264.5134   -14876.976    112.28936   -576.19631   -661.33378    -897.6892   -62.782762   -167.11068    66.224877      46.7237      46.7237      46.7237           90           90           90     102002.7   -711.73976 
  513000       512500   -9605.8677    1027.1355   -10633.003    4245.7868    -14878.79    113.08916   -601.91317   -604.12854   -238.35734    17.726798   -19.526095   -93.343231      46.7237      46.7237      46.7237           90           90           90     102002.7   -481.46635 
  514000       513500   -9652.8987    1010.9869   -10663.886    4253.3669   -14917.253    111.31118   -1084.6734   -602.68349   -836.81084    71.405775      -100.26   -209.53486      46.7237      46.7237      46.7237           90           90           90     102002.7   -841.38925 
  515000       514500    -9623.166    1008.8674   -10632.033    4280.0828   -14912.116    111.07782   -976.55156   -617.34462    -548.3415    45.147907   -121.37305    137.00932      46.7237      46.7237      46.7237           90           90           90     102002.7   -714.07923 
  516000       515500   -9664.3555    968.28063   -10632.636    4279.6844   -14912.321    106.60915   -438.23782   -433.04233   -549.63007   -297.66629     59.32404    -117.3913      46.7237      46.7237      46.7237           90           90           90     102002.7   -473.63674 
  517000       516500   -9619.8768     1003.221   -10623.098    4281.4339   -14904.532    110.45614   -869.67323   -504.60281   -429.00126   -8.7108878    270.61243   -221.13383      46.7237      46.7237      46.7237           90           90           90     102002.7   -601.09243 
  518000       517500   -9632.0238    991.12076   -10623.145    4272.6681   -14895.813    109.12388   -761.60246   -871.39994   -902.45025   -60.082186    142.86771   -207.22262      46.7237      46.7237      46.7237           90           90           90     102002.7   -845.15088 
  519000       518500   -9674.5762    987.28218   -10661.858    4268.6187   -14930.477    108.70125   -645.38505   -1126.4074   -546.06323    190.56669    16.799687    42.577104      46.7237      46.7237      46.7237           90           90           90     102002.7   -772.61857 
  520000       519500    -9651.434    982.65805   -10634.092    4273.3601   -14907.452    108.19213   -801.15437    -1127.374   -701.92152    52.208052   -388.53988   -20.191887      46.7237      46.7237      46.7237           90           90           90     102002.7   -876.81661 
  521000       520500   -9665.0011    1005.7328   -10670.734    4233.9658     -14904.7    110.73269   -1208.7557   -635.45273   -799.78908    41.834932    27.738555     22.79006      46.7237      46.7237      46.7237           90           90           90     102002.7    -881.3325 
  522000       521500   -9613.4452    996.08257   -10609.528    4281.5159   -14891.044    109.67019   -1324.8702   -879.10505   -671.94326   -328.61562   -96.610684    43.571979      46.7237      46.7237      46.7237           90           90           90     102002.7    -958.6395 
  523000       522500   -9616.4729     999.3464   -10615.819    4272.8612    -14888.68    110.02954   -1197.2856   -814.76427   -897.43495    166.33951    -44.11865    11.641833      46.7237      46.7237      46.7237           90           90           90     102002.7   -969.82827 
  524000       523500   -9615.3184     1016.223   -10631.541    4259.7924   -14891.334    111.88768   -826.73147   -615.65342   -791.19373    32.186272   -141.65341   -58.609967      46.7237      46.7237      46.7237           90           90           90     102002.7    -744.5262 
  525000       524500   -9602.4399     1001.115   -10603.555    4274.5423   -14878.097    110.22426   -741.75869   -1323.8608   -696.60238    41.842005   -36.445392    36.687378      46.7237      46.7237      46.7237           90           90           90     102002.7   -920.74064 
  526000       525500    -9577.749    1033.4458   -10611.195    4288.2589   -14899.454    113.78393   -1082.3483   -1254.5876   -1035.3463   -78.768225    16.264782    39.527618      46.7237      46.7237      46.7237           90           90           90     102002.7   -1124.0941 
  527000       526500   -9626.4438    968.06478   -10594.509    4303.1518    -14897.66    106.58539   -1348.0886   -840.76655   -876.64906     148.7932   -49.529463   -47.468522      46.7237      46.7237      46.7237           90           90           90     102002.7   -1021.8347 
  528000       527500   -9642.5728    978.50702    -10621.08    4272.3555   -14893.435    107.73509   -722.07802   -1515.8125   -669.66839     45.34612   -93.215836   -6.8344415      46.7237      46.7237      46.7237           90           90           90     102002.7   -969.18629 
  529000       528500   -9587.5394    1028.9822   -10616.522    4270.7342   -14887.256    113.29249   -897.46116   -540.01627   -656.25455    85.019884   -66.198199   0.27104145      46.7237      46.7237      46.7237           90           90           90     102002.7   -697.91066 
  530000       529500   -9648.8845    976.37533    -10625.26    4304.4212   -14929.681    107.50039   -464.04426   -1009.8736   -850.93034   -85.809787    -65.83965     69.22843      46.7237      46.7237      46.7237           90           90           90     102002.7   -774.94941 
  531000       530500   -9631.5101     1019.433   -10650.943    4273.4131   -14924.356    112.24111   -1156.1068   -518.93884   -734.61111    138.50015    50.098685    125.24481      46.7237      46.7237      46.7237           90           90           90     102002.7   -803.21891 
  532000       531500   -9619.7817    1007.0417   -10626.823     4281.531   -14908.354     110.8768   -765.98798   -911.82004   -1058.9188   -163.03878   -99.046486    91.875038      46.7237      46.7237      46.7237           90           90           90     102002.7   -912.24229 
  533000       532500   -9621.3292    991.59787   -10612.927    4263.4419   -14876.369    109.17642   -717.78421   -232.24526   -896.49778   -227.26368   -162.41072   -322.42522      46.7237      46.7237      46.7237           90           90           90     102002.7   -615.50908 
  534000       533500   -9635.4265    985.47821   -10620.905    4273.4976   -14894.402    108.50263   -923.34404   -937.74756   -1101.5821    255.50555   -9.5538202     121.9898      46.7237      46.7237      46.7237           90           90           90     102002.7    -987.5579 
  535000       534500   -9651.7344    990.86583     -10642.6    4264.9636   -14907.564    109.09582   -972.89752   -735.27322   -1267.4988   -120.00893    182.55642   -59.389752      46.7237      46.7237      46.7237           90           90           90     102002.7   -991.88983 
  536000       535500   -9598.4561    1010.0333   -10608.489    4288.3857   -14896.875    111.20619   -1072.9057   -624.08583   -614.07611   -55.922626    55.900846   -70.172261      46.7237      46.7237      46.7237           90           90           90     102002.7   -770.35587 
  537000       536500   -9623.5122    1010.5457   -10634.058    4259.9742   -14894.032     111.2626   -806.55289     -1201.78    -989.1611     102.7885   -46.940918    109.89553      46.7237      46.7237      46.7237           90           90           90     102002.7   -999.16468 
  538000       537500   -9626.7739    1006.2307   -10633.005    4250.2888   -14883.293    110.78751   -810.54244   -960.04074   -905.28158   -153.51252    115.19494    88.882824      46.7237      46.7237      46.7237           90           90           90     102002.7   -891.95492 
  539000       538500   -9587.9733    1034.4939   -10622.467    4290.0686   -14912.536    113.89933   -797.96015   -724.42397   -1088.8298    26.598971   -82.883163    411.77131      46.7237      46.7237      46.7237           90           90           90     102002.7   -870.40462 
  540000       539500   -9651.5762    1010.4128   -10661.989    4256.2363   -14918.225    111.24797   -1269.1686    -1145.417   -1291.1345    -124.1086    34.696758    18.684926      46.7237      46.7237      46.7237           90           90           90     102002.7     -1235.24 
  541000       540500   -9618.7065    998.34349    -10617.05    4266.2598    -14883.31    109.91912   -1118.1527   -662.13267   -1181.6672   -62.270508    118.33133     331.6011      46.7237      46.7237      46.7237           90           90           90     102002.7   -987.31754 
  542000       541500   -9603.4483    1017.8277   -10621.276    4281.0303   -14902.306    112.06436   -1191.8723   -840.36981   -1034.1063    99.636701   -9.0877947    -98.57551      46.7237      46.7237      46.7237           90           90           90     102002.7   -1022.1162 
  543000       542500   -9663.0745    986.48578    -10649.56    4259.9049   -14909.465    108.61357   -314.37001   -718.40508   -505.02099   -60.039912   -41.661612    8.9758732      46.7237      46.7237      46.7237           90           90           90     102002.7   -512.59869 
  544000       543500   -9593.2026    1021.3505   -10614.553    4291.9176   -14906.471    112.45223   -555.93783   -700.10207   -339.37666   -241.78389    91.309605      32.0724      46.7237      46.7237      46.7237           90           90           90     102002.7   -531.80552 
  545000       544500   -9617.4894    988.41364   -10605.903    4280.9252   -14886.828    108.82583   -835.06168   -1171.1127   -936.25077   -95.812294    27.684459   -79.429778      46.7237      46.7237      46.7237           90           90           90     102002.7    -980.8084 
  546000       545500   -9632.6201    999.43491   -10632.055    4275.4565   -14907.511    110.03929   -834.95097   -964.72449   -1117.8151    171.02649     131.7896   -204.78043      46.7237      46.7237      46.7237           90           90           90     102002.7   -972.49686 
  547000       546500   -9589.8412    1019.6636   -10609.505    4298.4324   -14907.937    112.26649   -698.79254   -885.24966   -958.86028   -50.686736    7.2411602    -116.6079      46.7237      46.7237      46.7237           90           90           90     102002.7   -847.63416 
  548000       547500   -9632.8137    984.62018   -10617.434    4255.0289   -14872.463    108.40816   -466.49469    8.4308393   -1065.3741   -234.90485    14.521664   -24.106046      46.7237      46.7237      46.7237           90           90           90     102002.7   -507.81265 
  549000       548500   -9640.0262    999.73601   -10639.762    4256.7605   -14896.523    110.07244   -1127.9288   -416.69011   -642.73922    163.57684   -79.634848   -71.981411      46.7237      46.7237      46.7237           90           90           90     102002.7   -729.11938 
  550000       549500   -9625.6896    995.84693   -10621.537    4293.1511   -14914.688    109.64424   -776.82011   -678.49342   -741.75166    -81.20511   -54.917646   -95.886167      46.7237      46.7237      46.7237           90           90           90     102002.7   -732.35506 
  551000       550500    -9629.785    992.52501    -10622.31    4289.3349   -14911.645    109.27849   -634.36293   -882.28446   -798.01029     216.6604   -107.99708   -237.07926      46.7237      46.7237      46.7237           90           90           90     102002.7   -771.55256 
  552000       551500   -9609.1042    993.59786   -10602.702    4286.6908   -14889.393    109.39662   -888.96403   -1436.6612   -589.98757    159.64571    129.67737    26.772038      46.7237      46.7237      46.7237           90           90           90     102002.7   -971.87092 
  553000       552500   -9604.2296    1021.1499    -10625.38    4274.7088   -14900.088    112.43014   -1275.8153   -1147.0157    -939.9969    110.25029    -245.0096   -70.437227      46.7237      46.7237      46.7237           90           90           90     102002.7   -1120.9426 
  554000       553500   -9664.2319     981.0162   -10645.248     4253.326   -14898.574    108.01136   -590.04142   -839.39802   -492.70273   -106.86998   -133.65549    54.855872      46.7237      46.7237      46.7237           90           90           90     102002.7   -640.71406 
  555000       554500   -9633.7235    999.09855   -10632.822    4248.8516   -14881.674    110.00225   -485.21225   -587.02294   -719.75021   -87.308229    -149.0896    -167.8237      46.7237      46.7237      46.7237           90           90           90     102002.7   -597.32847 
[...]
  936000       935500   -9648.5258    982.93229   -10631.458    4251.6552   -14883.113    108.22232   -929.32966   -725.44079    -313.8563    -21.83898    10.912553   -48.397588      46.7237      46.7237      46.7237           90           90           90     102002.7   -656.20892 
  937000       936500   -9627.5979    994.44771   -10622.046    4259.6367   -14881.682    109.49019   -1153.6056   -1078.6516   -627.47066   -27.491188   -106.89009     17.20139      46.7237      46.7237      46.7237           90           90           90     102002.7   -953.24261 
  938000       937500   -9615.9301    1011.3188   -10627.249    4277.4038   -14904.653    111.34772    -884.1482   -709.77298   -980.02309   -94.452663   -77.653524    115.46367      46.7237      46.7237      46.7237           90           90           90     102002.7   -857.98142 
  939000       938500    -9605.006    1007.5249   -10612.531    4254.8347   -14867.366    110.93001   -860.75745   -597.48204   -754.24274   -124.78767    31.045339    107.76449      46.7237      46.7237      46.7237           90           90           90     102002.7   -737.49408 
  940000       939500   -9623.9973    1009.6308   -10633.628    4277.7044   -14911.332    111.16187   -1034.7892    -1094.547   -779.74206   -1.0513527   -11.661009    219.88706      46.7237      46.7237      46.7237           90           90           90     102002.7   -969.69275 
  941000       940500   -9647.5731    994.14547   -10641.719    4262.5024   -14904.221    109.45691   -747.24315    -989.0503   -714.11133    127.43491   -195.91032   -60.602148      46.7237      46.7237      46.7237           90           90           90     102002.7   -816.80159 
  942000       941500   -9636.6322    982.95006   -10619.582     4284.765   -14904.347    108.22428   -1122.6599   -700.38163   -666.01726   -73.486319    69.798453   -61.317964      46.7237      46.7237      46.7237           90           90           90     102002.7   -829.68628 
  943000       942500   -9652.1689    973.24253   -10625.411    4268.8736   -14894.285    107.15546   -762.83778   -848.42178   -944.32065    69.423268   -15.816054    55.481429      46.7237      46.7237      46.7237           90           90           90     102002.7   -851.86007 
  944000       943500   -9610.7291     1002.118   -10612.847    4289.0773   -14901.924     110.3347   -856.86646   -1252.1221    -646.1032   -88.099048    338.25376    127.45696      46.7237      46.7237      46.7237           90           90           90     102002.7   -918.36393 
  945000       944500    -9631.904    996.64349   -10628.548    4269.9818   -14898.529    109.73195   -976.33082   -1054.9867   -547.87262    195.97538   -190.89214    52.284371      46.7237      46.7237      46.7237           90           90           90     102002.7   -859.73006 
  946000       945500    -9627.894    998.51729   -10626.411    4264.3638   -14890.775    109.93825   -596.30944   -564.96523   -904.17868   -33.822825    143.33355    60.556778      46.7237      46.7237      46.7237           90           90           90     102002.7   -688.48445 
  947000       946500   -9635.5573    992.49692   -10628.054    4276.8601   -14904.914     109.2754   -1115.4131   -733.52532    -1101.743   -166.44614     202.5688    127.72158      46.7237      46.7237      46.7237           90           90           90     102002.7   -983.56048 
  948000       947500   -9617.3166     1013.476   -10630.793    4276.2824   -14907.075    111.58523   -1034.2888   -884.93003   -1001.5234    151.51056    120.20908   -244.49764      46.7237      46.7237      46.7237           90           90           90     102002.7   -973.58076 
  949000       948500   -9608.9381     1015.917   -10624.855    4280.9971   -14905.852    111.85399   -1122.0955   -688.39918   -1050.1325   -26.712173    -15.28671    63.791405      46.7237      46.7237      46.7237           90           90           90     102002.7   -953.54239 
  950000       949500   -9634.5584    989.50847   -10624.067    4263.6795   -14887.746    108.94637   -1384.0292   -837.06039   -735.66363     16.49286   -254.14777    95.391654      46.7237      46.7237      46.7237           90           90           90     102002.7    -985.5844 
  951000       950500    -9604.872    1007.4687   -10612.341    4283.3895    -14895.73    110.92382   -1268.3914   -878.06483   -1528.6982   -165.98478     122.1303    43.089364      46.7237      46.7237      46.7237           90           90           90     102002.7   -1225.0515 
  952000       951500   -9651.2295    985.47525   -10636.705    4266.7936   -14903.498    108.50231    -1032.072     -1189.31   -500.26316   -238.03258    37.873036   -49.096776      46.7237      46.7237      46.7237           90           90           90     102002.7   -907.21503 
  953000       952500   -9657.1987    986.07039   -10643.269    4268.9711    -14912.24    108.56783   -1010.3345    -982.6092   -921.07645    86.345357    85.271603    279.66315      46.7237      46.7237      46.7237           90           90           90     102002.7   -971.34007 
  954000       953500   -9613.4947    990.95065   -10604.445    4282.0064   -14886.452    109.10516    -1202.874     -857.761   -689.75742    73.575409   -176.41659   -177.96444      46.7237      46.7237      46.7237           90           90           90     102002.7   -916.79747 
  955000       954500   -9656.9283    980.05672   -10636.985    4265.5197   -14902.505    107.90572   -638.80697   -1101.3387   -895.13872   -170.03814    -2.874523   -26.731877      46.7237      46.7237      46.7237           90           90           90     102002.7   -878.42812 
  956000       955500   -9622.9997    998.24223   -10621.242    4292.7595   -14914.001    109.90797   -856.76812   -1048.5203    -931.1593    77.017104   -147.98885   -106.00126      46.7237      46.7237      46.7237           90           90           90     102002.7   -945.48258 
  957000       956500   -9646.6302    1003.7153   -10650.346    4251.7644    -14902.11    110.51057   -947.54574   -729.67805   -1352.7187   -56.872366    126.20633   -265.71301      46.7237      46.7237      46.7237           90           90           90     102002.7   -1009.9808 
  958000       957500   -9652.6143    986.56068   -10639.175     4291.714   -14930.889    108.62181   -1309.8808   -440.78085   -991.86895   -66.412615    11.015002   -224.40659      46.7237      46.7237      46.7237           90           90           90     102002.7   -914.17687 
  959000       958500   -9636.6275    1015.7001   -10652.328    4267.4371   -14919.765    111.83011   -1568.8486   -1249.2522   -538.78164    49.491011    30.434225   -82.314047      46.7237      46.7237      46.7237           90           90           90     102002.7   -1118.9608 
  960000       959500    -9606.725    1018.8331   -10625.558    4264.2579   -14889.816    112.17505   -401.75667   -750.47391   -390.33311   -299.49173    119.46429   -124.31717      46.7237      46.7237      46.7237           90           90           90     102002.7    -514.1879 
  961000       960500   -9655.8243    1002.7401   -10658.564    4252.6121   -14911.176    110.40319   -867.95401   -806.84382   -412.10865    14.610677   -90.379006   -463.45502      46.7237      46.7237      46.7237           90           90           90     102002.7    -695.6355 
  962000       961500   -9658.7706    980.98479   -10639.755    4248.1817   -14887.937     108.0079   -979.40128   -772.73732   -990.59719    126.94165   -176.87946    93.749203      46.7237      46.7237      46.7237           90           90           90     102002.7   -914.24526 
  963000       962500   -9600.3608    1028.2159   -10628.577    4289.0376   -14917.614    113.20811   -541.56948   -1119.7118   -1302.9362   -187.01133    -19.63529    173.46976      46.7237      46.7237      46.7237           90           90           90     102002.7    -988.0725 
  964000       963500   -9646.3252    979.65192   -10625.977    4286.6769   -14912.654    107.86115   -797.45878   -1198.8098   -1218.3164   -44.702592   -131.40437   -216.05673      46.7237      46.7237      46.7237           90           90           90     102002.7   -1071.5283 
  965000       964500   -9637.5892    977.04715   -10614.636     4288.229   -14902.865    107.57436   -855.43973   -792.77227   -814.22678   -3.9903595    242.95088   -62.747138      46.7237      46.7237      46.7237           90           90           90     102002.7   -820.81293 
  966000       965500   -9629.3705    1016.6592    -10646.03    4256.4593   -14902.489     111.9357   -1064.4085   -796.09056   -840.12654   -37.161148   -77.927876   -11.036351      46.7237      46.7237      46.7237           90           90           90     102002.7   -900.20854 
  967000       966500   -9648.7628    987.32268   -10636.085    4265.7359   -14901.821    108.70571   -719.19887   -649.97273   -1137.2161   -260.47602    -37.76174   -49.989941      46.7237      46.7237      46.7237           90           90           90     102002.7   -835.46258 
  968000       967500   -9639.8171    977.37272    -10617.19    4283.1877   -14900.378     107.6102   -650.21922   -862.24948   -746.75689    53.046187   -171.19703    3.6402978      46.7237      46.7237      46.7237           90           90           90     102002.7    -753.0752 
  969000       968500   -9615.2547    1013.8782   -10629.133    4276.5127   -14905.646    111.62951   -720.86477   -762.98243    -831.1944    66.097872    69.363234    83.091641      46.7237      46.7237      46.7237           90           90           90     102002.7   -771.68053 
  970000       969500    -9644.173    995.77051   -10639.944    4272.7214   -14912.665    109.63583   -1333.3495   -812.94615   -799.09481   -218.09753    62.317856   -78.951518      46.7237      46.7237      46.7237           90           90           90     102002.7   -981.79681 
  971000       970500   -9638.6177    998.11239    -10636.73    4265.4875   -14902.218    109.89367   -790.05303   -446.96752   -922.68306    50.324939   -194.86776    65.994417      46.7237      46.7237      46.7237           90           90           90     102002.7    -719.9012 
  972000       971500   -9634.7607    998.01297   -10632.774    4264.5556   -14897.329    109.88273    -772.2981   -455.12022   -605.53384     86.95564    214.34669   -110.04197      46.7237      46.7237      46.7237           90           90           90     102002.7   -610.98405 
  973000       972500    -9631.886    1002.4851   -10634.371    4269.9067   -14904.278    110.37512   -1093.7148   -1088.2992   -1001.1983     109.9015   -184.83568    132.27111      46.7237      46.7237      46.7237           90           90           90     102002.7   -1061.0708 
  974000       973500   -9643.1132    992.12866   -10635.242    4276.0808   -14911.323    109.23486   -1163.9935   -765.04133   -1016.5302    159.99266    -30.19216    56.336313      46.7237      46.7237      46.7237           90           90           90     102002.7   -981.85503 
  975000       974500    -9612.988    1018.3348   -10631.323    4282.0151   -14913.338    112.12019   -483.68533   -1064.1555   -648.29881   -46.404193    126.13154    67.866248      46.7237      46.7237      46.7237           90           90           90     102002.7   -732.04656 
  976000       975500    -9642.162    986.07425   -10628.236    4272.4084   -14900.645    108.56826    -1115.143   -819.27615   -580.23183     27.42567    53.886399    41.300784      46.7237      46.7237      46.7237           90           90           90     102002.7   -838.21698 
  977000       976500   -9614.3337    1026.6603   -10640.994    4239.6667   -14880.661    113.03684   -906.98439   -329.27303    -652.7799   -172.43276    146.69007   -100.19347      46.7237      46.7237      46.7237           90           90           90     102002.7   -629.67911 
  978000       977500   -9632.1742    993.81917   -10625.993     4264.769   -14890.762    109.42098   -480.90495   -1100.1001   -590.51335   -14.561625   -93.321654    98.775583      46.7237      46.7237      46.7237           90           90           90     102002.7   -723.83947 
  979000       978500   -9645.6222     990.4354   -10636.058    4261.3492   -14897.407    109.04843    -1020.075   -1139.1108   -956.30096    13.830928   -49.370315      71.6263      46.7237      46.7237      46.7237           90           90           90     102002.7   -1038.4956 
  980000       979500   -9627.1942    991.39635   -10618.591     4274.028   -14892.619    109.15423   -1188.9999   -727.41001   -1078.1329   -301.63188    334.83048    244.92186      46.7237      46.7237      46.7237           90           90           90     102002.7   -998.18091 
  981000       980500   -9623.5752    995.24809   -10618.823    4270.2603   -14889.084    109.57831   -468.93295   -603.49971   -841.82917    16.419755    54.026032     246.4242      46.7237      46.7237      46.7237           90           90           90     102002.7   -638.08728 
  982000       981500   -9623.3874    989.15384   -10612.541    4289.3171   -14901.858    108.90732    -923.2173   -975.57392   -1011.3131   -288.13826    23.613222   -55.171319      46.7237      46.7237      46.7237           90           90           90     102002.7   -970.03478 
  983000       982500   -9643.4865    995.75481   -10639.241    4261.9653   -14901.207     109.6341   -1027.8652   -760.43971   -753.99331   -71.969175    59.964685   -71.362523      46.7237      46.7237      46.7237           90           90           90     102002.7   -847.43275 
  984000       983500   -9628.6623    997.57903   -10626.241     4294.158   -14920.399    109.83495   -1394.4606   -726.62642   -649.45714   -216.97607    24.472863   -102.57945      46.7237      46.7237      46.7237           90           90           90     102002.7   -923.51471 
  985000       984500   -9626.3198    993.86085   -10620.181    4269.6753   -14889.856    109.42557   -1034.2432   -791.29624   -1098.1845    110.46451    92.106518   -24.563987      46.7237      46.7237      46.7237           90           90           90     102002.7   -974.57464 
  986000       985500    -9646.291    1003.0316   -10649.323    4296.5244   -14945.847    110.43528   -538.28827   -1198.4324     -820.173   -6.7328589   -6.2219168   -11.514176      46.7237      46.7237      46.7237           90           90           90     102002.7   -852.29789 
  987000       986500    -9678.951    981.80355   -10660.755    4263.0907   -14923.845    108.09805   -1157.3956   -680.17913   -1281.1817    66.405468    68.345386    22.553866      46.7237      46.7237      46.7237           90           90           90     102002.7   -1039.5855 
  988000       987500   -9633.0532    993.09583   -10626.149    4285.6952   -14911.844    109.34134   -843.01306   -431.09161   -859.79754   -218.42256   -70.750066    205.53635      46.7237      46.7237      46.7237           90           90           90     102002.7   -711.30074 
  989000       988500   -9651.9229     987.5377   -10639.461    4277.3223   -14916.783    108.72938   -1102.0287   -816.86691   -651.61526   -189.39748    104.88004   -89.579288      46.7237      46.7237      46.7237           90           90           90     102002.7   -856.83697 
  990000       989500    -9623.456    1005.7003   -10629.156    4266.7453   -14895.902    110.72911    -697.4224   -1304.1699   -411.67203   -272.14595    -198.1726   -87.971943      46.7237      46.7237      46.7237           90           90           90     102002.7   -804.42146 
  991000       990500   -9616.8115    1006.5009   -10623.312    4278.1217   -14901.434    110.81727   -465.80905   -672.44984   -542.23636    31.277569    85.243291    299.75691      46.7237      46.7237      46.7237           90           90           90     102002.7   -560.16508 
  992000       991500    -9609.021    1012.0367   -10621.058      4300.11   -14921.168    111.42676   -1149.6326   -815.13802   -851.52951   -274.05587   -150.15694   -15.537022      46.7237      46.7237      46.7237           90           90           90     102002.7   -938.76671 
  993000       992500   -9642.1435    1004.4483   -10646.592    4261.3584    -14907.95    110.59127   -724.71992   -845.17891   -430.44175    25.812476    87.715825    126.95679      46.7237      46.7237      46.7237           90           90           90     102002.7   -666.78019 
  994000       993500   -9646.1149    993.76809   -10639.883    4265.3789   -14905.262    109.41536   -1256.1723   -408.27562   -552.76894    125.28243    10.008293   -88.393853      46.7237      46.7237      46.7237           90           90           90     102002.7    -739.0723 
  995000       994500   -9618.7246    1003.8687   -10622.593    4281.3115   -14903.905    110.52745   -753.26526   -919.55636   -935.25869   -58.299175    28.989867   -63.208413      46.7237      46.7237      46.7237           90           90           90     102002.7    -869.3601 
  996000       995500   -9616.7638    1001.4312   -10618.195     4270.803   -14888.998    110.25908   -959.65679   -803.50895   -681.81475    268.83931   -31.972713    9.1139704      46.7237      46.7237      46.7237           90           90           90     102002.7   -814.99349 
  997000       996500   -9685.0319    966.75357   -10651.785    4267.1524   -14918.938    106.44102   -1165.5519   -1657.3419   -985.48716    21.190141    168.96701    102.47828      46.7237      46.7237      46.7237           90           90           90     102002.7   -1269.4603 
  998000       997500   -9629.7386    1010.9895   -10640.728    4273.6816    -14914.41    111.31147    -975.3429   -1096.5165   -1011.2083   -336.80459    106.79338   -39.811601      46.7237      46.7237      46.7237           90           90           90     102002.7   -1027.6892 
  999000       998500   -9660.6559     982.2511   -10642.907    4282.6916   -14925.599    108.14732   -1126.5789   -929.78827   -735.19745   -79.289257   -25.104639    78.442013      46.7237      46.7237      46.7237           90           90           90     102002.7   -930.52155 
 1000000       999500   -9642.0647    1011.5992   -10653.664     4247.583   -14901.247    111.37859   -1178.5222   -920.49012   -609.11933    82.885938    113.56982   -26.281338      46.7237      46.7237      46.7237           90           90           90     102002.7   -902.71056 
 1000500      1000000   -9622.1867     1008.439   -10630.626     4289.148   -14919.774    111.03065   -1119.8221   -1181.2714   -685.14238    34.267363   -73.259031    19.319415      46.7237      46.7237      46.7237           90           90           90     102002.7   -995.41196 
Loop time of 1060.87 on 24 procs for 500000 steps with 3048 atoms

Performance: 40.721 ns/day, 0.589 hours/ns, 471.313 timesteps/s
98.3% CPU use with 24 MPI tasks x no OpenMP threads

MPI task timing breakdown:
Section |  min time  |  avg time  |  max time  |%varavg| %total
---------------------------------------------------------------
Pair    | 274.6      | 532.68     | 791.57     | 627.5 | 50.21
Bond    | 37.113     | 82.395     | 128.97     | 293.3 |  7.77
Neigh   | 7.7694     | 7.7837     | 7.8044     |   0.3 |  0.73
Comm    | 116.19     | 414.08     | 715.81     | 832.7 | 39.03
Output  | 0.53868    | 0.57818    | 0.58004    |   1.1 |  0.05
Modify  | 12.58      | 13.713     | 14.62      |  17.7 |  1.29
Other   |            | 9.639      |            |       |  0.91

Nlocal:    127 ave 170 max 81 min
Histogram: 1 1 2 2 4 7 3 2 1 1
Nghost:    3348.92 ave 3395 max 3315 min
Histogram: 1 1 5 5 3 4 3 0 1 1
Neighs:    7638.96 ave 14708 max 1314 min
Histogram: 2 1 6 2 2 2 4 3 1 1

Total # of neighbors = 183335
Ave neighs/atom = 60.1493
Ave special neighs/atom = 3.77953
Neighbor list builds = 4749
Dangerous builds = 0
Total wall time: 0:32:10
