LAMMPS (30 Mar 2018)
Reading data file ...
  orthogonal box = (0 0 0) to (46.7237 46.7237 46.7237)
  2 by 3 by 4 MPI processor grid
  reading atoms ...
  2228 atoms
  scanning bonds ...
  5 = max bonds/atom
  scanning angles ...
  10 = max angles/atom
  scanning dihedrals ...
  32 = max dihedrals/atom
  scanning impropers ...
  3 = max impropers/atom
  reading bonds ...
  2064 bonds
  reading angles ...
  3696 angles
  reading dihedrals ...
  6240 dihedrals
  reading impropers ...
  1008 impropers
Finding 1-2 1-3 1-4 neighbors ...
  special bond factors lj:   0          0          0         
  special bond factors coul: 0          0          0         
  5 = max # of 1-2 neighbors
  8 = max # of 1-3 neighbors
  20 = max # of 1-4 neighbors
  19 = max # of special neighbors
Finding 1-2 1-3 1-4 neighbors ...
  special bond factors lj:   0          0          1         
  special bond factors coul: 1          1          1         
  5 = max # of 1-2 neighbors
  8 = max # of 1-3 neighbors
  19 = max # of special neighbors
WARNING: Using 'neigh_modify every 1 delay 0 check yes' setting during minimization (../min.cpp:168)
Neighbor list info ...
  update every 1 steps, delay 0 steps, check yes
  max neighbors/atom: 2000, page size: 100000
  master list distance cutoff = 16
  ghost atom cutoff = 16
  binsize = 8, bins = 6 6 6
  3 neighbor lists, perpetual/occasional/extra = 3 0 0
  (1) pair buck6d/coul/gauss/dsf, perpetual, skip from (3)
      attributes: half, newton on
      pair build: skip
      stencil: none
      bin: none
  (2) pair lj/cut, perpetual, skip from (3)
      attributes: half, newton on
      pair build: skip
      stencil: none
      bin: none
  (3) neighbor class addition, perpetual
      attributes: half, newton on
      pair build: half/bin/newton
      stencil: half/bin/3d/newton
      bin: standard
Setting up cg style minimization ...
  Unit style    : real
  Current step  : 0
WARNING: Inconsistent image flags (../domain.cpp:786)
Per MPI rank memory allocation (min/avg/max) = 22.9 | 23.27 | 24.45 Mbytes
Step Temp E_pair E_mol TotEng Press 
       0            0   -12937.474    6482.8914   -6454.5828    5976.5787 
     501            0   -13128.635    3726.5313    -9402.104   -693.25513 
Loop time of 1.43418 on 24 procs for 501 steps with 2228 atoms

99.2% CPU use with 24 MPI tasks x no OpenMP threads

Minimization stats:
  Stopping criterion = max force evaluations
  Energy initial, next-to-last, final = 
        -6454.58280728     -9402.02044349     -9402.10404685
  Force two-norm initial, final = 2574.4 13.892
  Force max component initial, final = 151.924 1.87492
  Final line search alpha, max atom move = 0.00302125 0.00566459
  Iterations, force evaluations = 501 1001

MPI task timing breakdown:
Section |  min time  |  avg time  |  max time  |%varavg| %total
---------------------------------------------------------------
Pair    | 0.54304    | 0.75541    | 0.97354    |  14.0 | 52.67
Bond    | 0.10976    | 0.15776    | 0.20889    |   4.8 | 11.00
Neigh   | 0.01222    | 0.013136   | 0.014768   |   0.8 |  0.92
Comm    | 0.25748    | 0.4838     | 0.72834    |  17.8 | 33.73
Output  | 0          | 0          | 0          |   0.0 |  0.00
Modify  | 0          | 0          | 0          |   0.0 |  0.00
Other   |            | 0.02407    |            |       |  1.68

Nlocal:    92.8333 ave 110 max 69 min
Histogram: 2 0 1 2 5 1 4 3 3 3
Nghost:    2486.54 ave 2655 max 2391 min
Histogram: 14 2 0 0 0 0 0 0 1 7
Neighs:    7643 ave 11579 max 4663 min
Histogram: 2 2 4 5 3 2 2 2 0 2

Total # of neighbors = 183432
Ave neighs/atom = 82.3303
Ave special neighs/atom = 5.17056
Neighbor list builds = 14
Dangerous builds = 0
Neighbor list info ...
  update every 1 steps, delay 10 steps, check yes
  max neighbors/atom: 2000, page size: 100000
  master list distance cutoff = 16
  ghost atom cutoff = 16
  binsize = 8, bins = 6 6 6
  3 neighbor lists, perpetual/occasional/extra = 3 0 0
  (1) pair buck6d/coul/gauss/dsf, perpetual, skip from (3)
      attributes: half, newton on
      pair build: skip
      stencil: none
      bin: none
  (2) pair lj/cut, perpetual, skip from (3)
      attributes: half, newton on
      pair build: skip
      stencil: none
      bin: none
  (3) neighbor class addition, perpetual
      attributes: half, newton on
      pair build: half/bin/newton
      stencil: half/bin/3d/newton
      bin: standard
Setting up Verlet run ...
  Unit style    : real
  Current step  : 501
  Time step     : 1
WARNING: Inconsistent image flags (../domain.cpp:786)
Per MPI rank memory allocation (min/avg/max) = 22.55 | 22.71 | 23.33 Mbytes
Step Temp PotEng TotEng Press Volume Lx Ly Lz 
     501          110    -9402.104    -8671.895   -366.01363     102002.7      46.7237      46.7237      46.7237 
    1000    93.496128   -8757.1668   -8136.5148   -738.45743     102002.7      46.7237      46.7237      46.7237 
    2000    114.52153   -8634.5514   -7874.3273   -897.92236     102002.7      46.7237      46.7237      46.7237 
    3000    110.11548   -8630.4393   -7899.4636   -712.02113     102002.7      46.7237      46.7237      46.7237 
    4000    108.49672   -8629.9736   -7909.7437    -606.9328     102002.7      46.7237      46.7237      46.7237 
    5000    114.28594   -8645.0887   -7886.4285   -1083.3572     102002.7      46.7237      46.7237      46.7237 
    6000    113.99223   -8629.5459   -7872.8354   -394.15322     102002.7      46.7237      46.7237      46.7237 
    7000    109.53459    -8638.758   -7911.6385   -557.94071     102002.7      46.7237      46.7237      46.7237 
    8000     110.3422   -8596.7281   -7864.2475   -774.00107     102002.7      46.7237      46.7237      46.7237 
    9000    110.02164   -8635.0794   -7904.7267   -649.18418     102002.7      46.7237      46.7237      46.7237 
   10000    111.64425   -8646.4351   -7905.3111   -868.68598     102002.7      46.7237      46.7237      46.7237 
   11000    112.77545   -8635.0291   -7886.3959   -655.63014     102002.7      46.7237      46.7237      46.7237 
   12000    106.90137   -8622.9703   -7913.3308    -481.0581     102002.7      46.7237      46.7237      46.7237 
   13000    112.35247    -8640.818   -7894.9927     -884.214     102002.7      46.7237      46.7237      46.7237 
   14000    110.59254    -8671.788   -7937.6456   -636.36587     102002.7      46.7237      46.7237      46.7237 
   15000    110.14183   -8630.7222   -7899.5717   -398.30963     102002.7      46.7237      46.7237      46.7237 
   16000    111.06209   -8626.9504   -7889.6909   -766.93344     102002.7      46.7237      46.7237      46.7237 
   17000     110.5143   -8640.9677   -7907.3446   -856.74832     102002.7      46.7237      46.7237      46.7237 
   18000    114.26078   -8623.9758   -7865.4826   -795.00963     102002.7      46.7237      46.7237      46.7237 
   19000    108.15598   -8639.4983   -7921.5304   -428.62203     102002.7      46.7237      46.7237      46.7237 
   20000    109.69454     -8615.03   -7886.8487   -648.07894     102002.7      46.7237      46.7237      46.7237 
   21000    107.85767   -8624.8468   -7908.8591   -671.60693     102002.7      46.7237      46.7237      46.7237 
   22000    110.64778   -8656.5737   -7922.0646   -671.42899     102002.7      46.7237      46.7237      46.7237 
   23000     109.3889     -8642.26   -7916.1076   -634.39266     102002.7      46.7237      46.7237      46.7237 
   24000    106.55174   -8657.2943   -7949.9757   -496.01373     102002.7      46.7237      46.7237      46.7237 
   25000    110.54175   -8634.1214    -7900.316   -401.11124     102002.7      46.7237      46.7237      46.7237 
   26000    107.05022   -8655.8506   -7945.2229   -624.91099     102002.7      46.7237      46.7237      46.7237 
   27000    110.99983   -8632.9206   -7896.0744   -758.39206     102002.7      46.7237      46.7237      46.7237 
   28000    112.39158   -8631.7096   -7885.6246   -722.87843     102002.7      46.7237      46.7237      46.7237 
   29000    108.71346    -8620.986   -7899.3173   -592.91453     102002.7      46.7237      46.7237      46.7237 
   30000    112.33959   -8651.1895   -7905.4496   -739.00913     102002.7      46.7237      46.7237      46.7237 
   31000    110.44252   -8657.6306   -7924.4839    -940.9941     102002.7      46.7237      46.7237      46.7237 
   32000    105.48788   -8640.7305   -7940.4742   -732.77704     102002.7      46.7237      46.7237      46.7237 
   33000    108.79586   -8659.6443   -7937.4287   -729.71227     102002.7      46.7237      46.7237      46.7237 
   34000    111.64617   -8658.2387   -7917.1019   -693.31188     102002.7      46.7237      46.7237      46.7237 
   35000    108.81588   -8650.2136    -7927.865   -636.73488     102002.7      46.7237      46.7237      46.7237 
   36000    108.78476    -8603.816   -7881.6741   -792.89514     102002.7      46.7237      46.7237      46.7237 
   37000    110.12903   -8641.1245    -7910.059   -737.82966     102002.7      46.7237      46.7237      46.7237 
   38000     108.8557   -8638.9263   -7916.3134   -603.01482     102002.7      46.7237      46.7237      46.7237 
   39000     107.3396   -8638.1838   -7925.6352   -512.91674     102002.7      46.7237      46.7237      46.7237 
   40000    111.83517   -8672.4484    -7930.057   -590.83209     102002.7      46.7237      46.7237      46.7237 
   41000    113.24731   -8633.9741   -7882.2086   -786.77069     102002.7      46.7237      46.7237      46.7237 
   42000    108.63774   -8623.4934   -7902.3274   -976.45009     102002.7      46.7237      46.7237      46.7237 
   43000    109.90487   -8617.2383   -7887.6607   -693.69196     102002.7      46.7237      46.7237      46.7237 
   44000    112.23674   -8647.1921    -7902.135   -416.62548     102002.7      46.7237      46.7237      46.7237 
   45000    109.88766   -8649.2009   -7919.7376   -714.02354     102002.7      46.7237      46.7237      46.7237 
   46000    111.57454   -8629.4282   -7888.7669   -754.21986     102002.7      46.7237      46.7237      46.7237 
   47000    111.53849   -8650.9669    -7910.545   -688.79634     102002.7      46.7237      46.7237      46.7237 
   48000    110.90639   -8640.4058   -7904.1799   -890.26723     102002.7      46.7237      46.7237      46.7237 
   49000    112.80154   -8637.2915   -7888.4851   -746.69136     102002.7      46.7237      46.7237      46.7237 
   50000    109.39142   -8631.0313   -7904.8621   -837.24815     102002.7      46.7237      46.7237      46.7237 
   51000    107.14705   -8641.5068   -7930.2364   -608.93829     102002.7      46.7237      46.7237      46.7237 
   52000    107.03011    -8631.473   -7920.9789   -815.58148     102002.7      46.7237      46.7237      46.7237 
   53000    108.88949   -8633.8174   -7910.9802   -650.53708     102002.7      46.7237      46.7237      46.7237 
   54000    110.00299   -8659.3192   -7929.0903   -601.99753     102002.7      46.7237      46.7237      46.7237 
   55000    106.81967   -8658.2124   -7949.1153   -793.29326     102002.7      46.7237      46.7237      46.7237 
   56000    112.23472   -8645.9004   -7900.8567   -933.56245     102002.7      46.7237      46.7237      46.7237 
   57000     112.1629   -8653.2083   -7908.6414   -1245.8783     102002.7      46.7237      46.7237      46.7237 
   58000    111.25564   -8661.8658   -7923.3215   -608.74591     102002.7      46.7237      46.7237      46.7237 
   59000    110.83725   -8631.7495   -7895.9825   -888.82623     102002.7      46.7237      46.7237      46.7237 
   60000     110.5387   -8660.2347   -7926.4496   -1033.0907     102002.7      46.7237      46.7237      46.7237 
   61000    111.72745   -8645.6495   -7903.9732   -504.68408     102002.7      46.7237      46.7237      46.7237 
   62000    111.27778   -8634.7236   -7896.0323    -964.5086     102002.7      46.7237      46.7237      46.7237 
   63000    107.46094   -8647.3203   -7933.9661   -834.33965     102002.7      46.7237      46.7237      46.7237 
   64000    109.85249   -8666.7389   -7937.5091   -816.99484     102002.7      46.7237      46.7237      46.7237 
   65000    107.82538   -8640.4269   -7924.6536   -609.32054     102002.7      46.7237      46.7237      46.7237 
   66000    110.46229   -8631.5727   -7898.2949    -833.7015     102002.7      46.7237      46.7237      46.7237 
   67000    107.31187   -8640.8459   -7928.4814   -554.97992     102002.7      46.7237      46.7237      46.7237 
   68000    106.85915    -8638.546   -7929.1868    -707.4451     102002.7      46.7237      46.7237      46.7237 
   69000    110.73505   -8625.9848   -7890.8963   -787.96792     102002.7      46.7237      46.7237      46.7237 
   70000    107.29321   -8630.1081   -7917.8674   -852.61137     102002.7      46.7237      46.7237      46.7237 
   71000    110.49288   -8656.2249    -7922.744   -740.40417     102002.7      46.7237      46.7237      46.7237 
   72000     111.6807   -8651.6108   -7910.2448   -744.57938     102002.7      46.7237      46.7237      46.7237 
   73000    110.04349   -8629.0708   -7898.5731   -527.73307     102002.7      46.7237      46.7237      46.7237 
   74000     112.2257   -8632.1073   -7887.1235   -861.55755     102002.7      46.7237      46.7237      46.7237 
   75000    106.79823   -8648.8669   -7939.9121   -845.78006     102002.7      46.7237      46.7237      46.7237 
   76000    108.86674   -8660.1404   -7937.4542   -686.20709     102002.7      46.7237      46.7237      46.7237 
   77000    113.29384   -8664.0045     -7911.93   -947.56009     102002.7      46.7237      46.7237      46.7237 
   78000    109.08454   -8636.8167   -7912.6847   -912.26169     102002.7      46.7237      46.7237      46.7237 
   79000    110.12762   -8646.2541    -7915.198   -830.91017     102002.7      46.7237      46.7237      46.7237 
   80000    111.58696   -8612.2044   -7871.4607   -833.25975     102002.7      46.7237      46.7237      46.7237 
   81000    108.92576   -8635.4134   -7912.3355   -632.82601     102002.7      46.7237      46.7237      46.7237 
   82000    108.56863   -8652.4232    -7931.716   -752.54053     102002.7      46.7237      46.7237      46.7237 
   83000    110.21042   -8624.5523   -7892.9465   -890.17343     102002.7      46.7237      46.7237      46.7237 
   84000    112.63446   -8653.5171   -7905.8199   -579.09855     102002.7      46.7237      46.7237      46.7237 
   85000    108.56355   -8666.5775    -7945.904   -903.30897     102002.7      46.7237      46.7237      46.7237 
   86000    107.80155   -8636.6225   -7921.0073   -728.82619     102002.7      46.7237      46.7237      46.7237 
   87000    111.67497   -8631.5073   -7890.1794   -727.14563     102002.7      46.7237      46.7237      46.7237 
   88000    110.18257   -8665.4573   -7934.0363   -674.61646     102002.7      46.7237      46.7237      46.7237 
   89000    113.82876   -8659.2877   -7903.6624   -584.06129     102002.7      46.7237      46.7237      46.7237 
   90000    109.47852    -8652.139   -7925.3917   -651.97408     102002.7      46.7237      46.7237      46.7237 
   91000    111.49754   -8632.3566   -7892.2065    -873.4284     102002.7      46.7237      46.7237      46.7237 
   92000    111.86146   -8647.0581   -7904.4922   -729.20569     102002.7      46.7237      46.7237      46.7237 
   93000    109.65945   -8654.7665   -7926.8182   -749.80377     102002.7      46.7237      46.7237      46.7237 
   94000    108.12579   -8634.7555    -7916.988   -894.43969     102002.7      46.7237      46.7237      46.7237 
   95000    111.25186   -8672.3031   -7933.7839   -876.31167     102002.7      46.7237      46.7237      46.7237 
   96000    109.03591   -8649.4905   -7925.6814   -838.07252     102002.7      46.7237      46.7237      46.7237 
   97000    108.42583   -8634.1865   -7914.4272   -842.84329     102002.7      46.7237      46.7237      46.7237 
   98000    111.56287   -8645.1271   -7904.5433   -1102.7276     102002.7      46.7237      46.7237      46.7237 
   99000    109.66784   -8657.4507   -7929.4466   -867.74492     102002.7      46.7237      46.7237      46.7237 
  100000    106.32589   -8633.5616   -7927.7422   -892.22761     102002.7      46.7237      46.7237      46.7237 
  101000    108.92351   -8627.5953   -7904.5323    -556.4457     102002.7      46.7237      46.7237      46.7237 
  102000    109.59328   -8634.6105   -7907.1014   -629.43241     102002.7      46.7237      46.7237      46.7237 
  103000    109.80968   -8643.3297    -7914.384   -886.43447     102002.7      46.7237      46.7237      46.7237 
  104000    112.68062   -8635.0133   -7887.0097   -888.31672     102002.7      46.7237      46.7237      46.7237 
  105000    107.26609   -8629.1125   -7917.0518   -893.44636     102002.7      46.7237      46.7237      46.7237 
  106000    112.18929   -8640.3466   -7895.6045   -770.50213     102002.7      46.7237      46.7237      46.7237 
  107000    109.59124   -8607.4748   -7879.9792   -774.25764     102002.7      46.7237      46.7237      46.7237 
  108000    114.23324   -8615.2355   -7856.9252    -899.5847     102002.7      46.7237      46.7237      46.7237 
  109000    110.21507   -8643.3686   -7911.7319   -774.85011     102002.7      46.7237      46.7237      46.7237 
  110000    112.10151   -8607.5658   -7863.4064    -819.6047     102002.7      46.7237      46.7237      46.7237 
  111000    113.13426   -8627.0523   -7876.0373   -820.27898     102002.7      46.7237      46.7237      46.7237 
  112000    109.12782   -8635.8319   -7911.4126   -502.89316     102002.7      46.7237      46.7237      46.7237 
  113000    112.27216   -8659.3574   -7914.0652   -638.01389     102002.7      46.7237      46.7237      46.7237 
  114000    107.72483   -8615.5285   -7900.4226   -480.27449     102002.7      46.7237      46.7237      46.7237 
  115000    110.29341   -8628.8784   -7896.7216   -498.33818     102002.7      46.7237      46.7237      46.7237 
  116000    110.25895   -8621.0448   -7889.1168   -742.83633     102002.7      46.7237      46.7237      46.7237 
  117000    110.29372    -8643.897   -7911.7382   -739.79004     102002.7      46.7237      46.7237      46.7237 
  118000    109.86274   -8627.6359    -7898.338   -631.79134     102002.7      46.7237      46.7237      46.7237 
  119000     111.2888   -8611.1978   -7872.4333    -838.8378     102002.7      46.7237      46.7237      46.7237 
  120000     108.3043   -8633.0821   -7914.1296   -617.52949     102002.7      46.7237      46.7237      46.7237 
  121000    110.88505    -8615.813   -7879.7288   -785.95615     102002.7      46.7237      46.7237      46.7237 
  122000    108.17363    -8612.209   -7894.1239   -811.87486     102002.7      46.7237      46.7237      46.7237 
  123000     110.2464   -8640.2865   -7908.4418   -846.53741     102002.7      46.7237      46.7237      46.7237 
  124000    107.76437   -8643.4558   -7928.0875    -1027.071     102002.7      46.7237      46.7237      46.7237 
  125000    109.16284   -8612.6673   -7888.0155   -893.30063     102002.7      46.7237      46.7237      46.7237 
  126000    110.76143   -8623.7958   -7888.5322   -1001.5527     102002.7      46.7237      46.7237      46.7237 
  127000    106.30041   -8616.8333   -7911.1831   -969.27821     102002.7      46.7237      46.7237      46.7237 
  128000    112.86187   -8656.8417   -7907.6348   -855.10327     102002.7      46.7237      46.7237      46.7237 
  129000    109.71121   -8639.5551   -7911.2631    -842.4672     102002.7      46.7237      46.7237      46.7237 
  130000    109.77571   -8640.3898   -7911.6697   -948.36612     102002.7      46.7237      46.7237      46.7237 
  131000     112.9834   -8646.8997    -7896.886   -706.94582     102002.7      46.7237      46.7237      46.7237 
  132000    109.11287   -8653.5064   -7929.1864   -634.54726     102002.7      46.7237      46.7237      46.7237 
  133000     108.7987   -8631.4557   -7909.2212   -861.42855     102002.7      46.7237      46.7237      46.7237 
  134000    107.52045   -8653.7513   -7940.0021   -719.61168     102002.7      46.7237      46.7237      46.7237 
  135000    111.03318   -8621.5778   -7884.5102   -735.02717     102002.7      46.7237      46.7237      46.7237 
  136000    105.61388   -8619.2003   -7918.1075   -355.63321     102002.7      46.7237      46.7237      46.7237 
  137000    109.99609   -8620.4779   -7890.2948   -796.22986     102002.7      46.7237      46.7237      46.7237 
  138000    109.42037   -8637.3912   -7911.0299   -419.13525     102002.7      46.7237      46.7237      46.7237 
  139000    111.39067   -8631.0541   -7891.6134   -723.03838     102002.7      46.7237      46.7237      46.7237 
  140000    110.06754   -8629.5414    -7898.884   -462.48594     102002.7      46.7237      46.7237      46.7237 
  141000    103.50617   -8645.3357   -7958.2344   -722.45961     102002.7      46.7237      46.7237      46.7237 
  142000    109.24606   -8641.7846   -7916.5804   -739.76642     102002.7      46.7237      46.7237      46.7237 
  143000    110.80574   -8657.0618   -7921.5041   -565.23906     102002.7      46.7237      46.7237      46.7237 
  144000    107.22939   -8638.9032   -7927.0862   -778.28126     102002.7      46.7237      46.7237      46.7237 
  145000    109.58503   -8645.1802   -7917.7258   -862.98142     102002.7      46.7237      46.7237      46.7237 
  146000    107.23922   -8637.5173    -7925.635    -662.2332     102002.7      46.7237      46.7237      46.7237 
  147000    110.50765   -8623.1687   -7889.5897   -925.08636     102002.7      46.7237      46.7237      46.7237 
  148000    112.67708   -8638.8399   -7890.8597   -634.68152     102002.7      46.7237      46.7237      46.7237 
  149000    110.40636   -8650.2015   -7917.2949   -924.24516     102002.7      46.7237      46.7237      46.7237 
  150000    110.61917   -8643.6102    -7909.291   -748.97706     102002.7      46.7237      46.7237      46.7237 
  151000    112.26624   -8646.2855   -7901.0326   -800.91607     102002.7      46.7237      46.7237      46.7237 
  152000    111.59156   -8619.7797   -7879.0055    -837.9113     102002.7      46.7237      46.7237      46.7237 
  153000    112.71983   -8654.4136   -7906.1496   -512.18007     102002.7      46.7237      46.7237      46.7237 
  154000    111.92275   -8631.8739   -7888.9012    -962.2716     102002.7      46.7237      46.7237      46.7237 
  155000    114.12085   -8635.6631   -7878.0988   -535.69838     102002.7      46.7237      46.7237      46.7237 
  156000    108.21952   -8632.9963   -7914.6066   -414.60981     102002.7      46.7237      46.7237      46.7237 
  157000     108.9709   -8636.5377   -7913.1601   -899.91969     102002.7      46.7237      46.7237      46.7237 
  158000    109.80987   -8625.4657   -7896.5188   -699.91185     102002.7      46.7237      46.7237      46.7237 
  159000    108.55296   -8644.4282    -7923.825   -808.27478     102002.7      46.7237      46.7237      46.7237 
  160000    111.16854   -8602.5649   -7864.5988   -665.19272     102002.7      46.7237      46.7237      46.7237 
  161000    108.23282   -8598.7426   -7880.2645   -608.96004     102002.7      46.7237      46.7237      46.7237 
  162000    110.00167   -8615.0969   -7884.8768   -648.20918     102002.7      46.7237      46.7237      46.7237 
  163000    110.13515   -8640.5483   -7909.4421   -791.48534     102002.7      46.7237      46.7237      46.7237 
  164000    111.19413   -8626.9422   -7888.8062   -889.40902     102002.7      46.7237      46.7237      46.7237 
  165000    109.56355   -8620.4305   -7893.1187   -831.00572     102002.7      46.7237      46.7237      46.7237 
  166000    115.12973   -8633.2641   -7869.0026   -760.28647     102002.7      46.7237      46.7237      46.7237 
  167000    109.97252   -8613.9333   -7883.9067   -862.59932     102002.7      46.7237      46.7237      46.7237 
  168000    110.04341   -8651.9981   -7921.5009   -695.16449     102002.7      46.7237      46.7237      46.7237 
  169000    111.45483   -8634.7389   -7894.8724   -743.78749     102002.7      46.7237      46.7237      46.7237 
  170000    110.37571   -8646.1627   -7913.4596   -790.91904     102002.7      46.7237      46.7237      46.7237 
  171000    111.52376   -8638.3889   -7898.0647   -556.61903     102002.7      46.7237      46.7237      46.7237 
  172000    109.12355   -8620.0795   -7895.6886   -961.12722     102002.7      46.7237      46.7237      46.7237 
  173000    108.23223   -8614.0024   -7895.5283   -686.51999     102002.7      46.7237      46.7237      46.7237 
  174000    109.17815   -8640.9674    -7916.214   -749.70654     102002.7      46.7237      46.7237      46.7237 
  175000    109.16721   -8661.2605   -7936.5797   -653.48151     102002.7      46.7237      46.7237      46.7237 
  176000    110.53362   -8635.2655   -7901.5142   -447.68172     102002.7      46.7237      46.7237      46.7237 
  177000    112.97983   -8630.8961   -7880.9061   -903.87443     102002.7      46.7237      46.7237      46.7237 
  178000    108.65768   -8621.0292   -7899.7308   -960.37065     102002.7      46.7237      46.7237      46.7237 
  179000    109.82788   -8620.7869   -7891.7205   -749.71444     102002.7      46.7237      46.7237      46.7237 
  180000    105.82719   -8618.4074   -7915.8986    -761.2873     102002.7      46.7237      46.7237      46.7237 
  181000    108.35962   -8632.2009   -7912.8812   -677.47484     102002.7      46.7237      46.7237      46.7237 
  182000    110.84549   -8654.3322   -7918.5106   -828.28666     102002.7      46.7237      46.7237      46.7237 
  183000    114.84767   -8615.8346   -7853.4454   -868.24176     102002.7      46.7237      46.7237      46.7237 
  184000      109.773   -8651.3712    -7922.669   -816.71473     102002.7      46.7237      46.7237      46.7237 
  185000    111.18353   -8646.7746    -7908.709   -884.75741     102002.7      46.7237      46.7237      46.7237 
  186000      109.219   -8608.1098   -7883.0852   -699.24139     102002.7      46.7237      46.7237      46.7237 
  187000    110.33804   -8665.5555   -7933.1025   -890.04035     102002.7      46.7237      46.7237      46.7237 
  188000    112.46624   -8636.3458   -7889.7652    -815.4085     102002.7      46.7237      46.7237      46.7237 
  189000    107.92136   -8638.5035    -7922.093   -888.89423     102002.7      46.7237      46.7237      46.7237 
  190000    110.99483   -8625.5133   -7888.7003   -723.48377     102002.7      46.7237      46.7237      46.7237 
  191000    110.89916   -8634.1034   -7897.9254   -679.44549     102002.7      46.7237      46.7237      46.7237 
  192000    110.45556   -8649.0567   -7915.8235   -818.51599     102002.7      46.7237      46.7237      46.7237 
  193000    109.93991   -8635.2376   -7905.4275   -865.82165     102002.7      46.7237      46.7237      46.7237 
  194000    108.21775   -8635.0561   -7916.6781    -1084.176     102002.7      46.7237      46.7237      46.7237 
  195000    112.92524   -8648.0689   -7898.4413   -1036.4772     102002.7      46.7237      46.7237      46.7237 
  196000    111.62207   -8669.2191   -7928.2424   -634.64796     102002.7      46.7237      46.7237      46.7237 
  197000    109.09921    -8639.315   -7915.0856   -1114.5671     102002.7      46.7237      46.7237      46.7237 
  198000    108.75858   -8603.8373   -7881.8691   -809.98487     102002.7      46.7237      46.7237      46.7237 
  199000    111.15002   -8644.1384   -7906.2952   -597.25762     102002.7      46.7237      46.7237      46.7237 
  200000    110.80079   -8642.6899    -7907.165   -799.16956     102002.7      46.7237      46.7237      46.7237 
  201000    113.21095   -8634.0525   -7882.5284   -924.61454     102002.7      46.7237      46.7237      46.7237 
  202000    110.29417   -8634.2448    -7902.083   -798.68219     102002.7      46.7237      46.7237      46.7237 
  203000    109.29428   -8642.2821   -7916.7578   -538.62102     102002.7      46.7237      46.7237      46.7237 
  204000     107.2989   -8645.8177   -7933.5393   -774.83695     102002.7      46.7237      46.7237      46.7237 
  205000    112.29798    -8645.962   -7900.4984   -728.78331     102002.7      46.7237      46.7237      46.7237 
  206000    108.20408   -8628.6386   -7910.3514   -642.72219     102002.7      46.7237      46.7237      46.7237 
  207000    113.74912   -8630.2563   -7875.1597   -962.93755     102002.7      46.7237      46.7237      46.7237 
  208000    109.65789   -8630.0214   -7902.0833   -1062.4302     102002.7      46.7237      46.7237      46.7237 
  209000    107.46513   -8652.6447   -7939.2628   -775.62031     102002.7      46.7237      46.7237      46.7237 
  210000     106.3466   -8627.7456   -7921.7888   -707.53565     102002.7      46.7237      46.7237      46.7237 
  211000    113.01618   -8615.9335   -7865.7023   -756.46387     102002.7      46.7237      46.7237      46.7237 
  212000    110.26764    -8628.484   -7896.4983   -775.66218     102002.7      46.7237      46.7237      46.7237 
  213000    108.19938    -8627.877    -7909.621   -716.71267     102002.7      46.7237      46.7237      46.7237 
  214000    105.31651   -8649.5177    -7950.399    -899.0918     102002.7      46.7237      46.7237      46.7237 
  215000    109.90249   -8611.2745   -7881.7127   -685.07906     102002.7      46.7237      46.7237      46.7237 
  216000    110.74476   -8614.6707   -7879.5178   -1154.5392     102002.7      46.7237      46.7237      46.7237 
  217000    111.43237   -8633.9082   -7894.1907   -732.43278     102002.7      46.7237      46.7237      46.7237 
  218000    111.35987   -8638.4013   -7899.1651   -458.08049     102002.7      46.7237      46.7237      46.7237 
  219000    112.47096   -8661.4183   -7914.8064   -751.63158     102002.7      46.7237      46.7237      46.7237 
  220000    111.42511   -8634.3855   -7894.7162   -805.48633     102002.7      46.7237      46.7237      46.7237 
  221000    111.36986   -8650.6955    -7911.393   -931.73732     102002.7      46.7237      46.7237      46.7237 
  222000    105.10084   -8645.6929   -7948.0057   -780.24352     102002.7      46.7237      46.7237      46.7237 
  223000    111.71574   -8644.7784   -7903.1798   -691.49208     102002.7      46.7237      46.7237      46.7237 
  224000    110.84032    -8609.961   -7874.1737     -871.701     102002.7      46.7237      46.7237      46.7237 
  225000    109.43414   -8627.0859   -7900.6333   -563.86666     102002.7      46.7237      46.7237      46.7237 
  226000    110.52336   -8612.0696   -7878.3864   -625.07557     102002.7      46.7237      46.7237      46.7237 
  227000    113.19507   -8623.1388     -7871.72    -805.3811     102002.7      46.7237      46.7237      46.7237 
  228000    109.91285   -8636.4004   -7906.7699   -606.45292     102002.7      46.7237      46.7237      46.7237 
  229000    109.47532    -8648.357   -7921.6309     -563.576     102002.7      46.7237      46.7237      46.7237 
  230000     112.0816   -8652.5186   -7908.4913   -629.12885     102002.7      46.7237      46.7237      46.7237 
  231000    111.82975   -8634.0319   -7891.6765    -835.7762     102002.7      46.7237      46.7237      46.7237 
  232000    105.16733   -8622.3807   -7924.2522   -866.38593     102002.7      46.7237      46.7237      46.7237 
  233000    108.57949   -8653.8216   -7933.0423   -954.38822     102002.7      46.7237      46.7237      46.7237 
  234000    110.98281   -8638.5067   -7901.7735   -674.29197     102002.7      46.7237      46.7237      46.7237 
  235000    110.28509   -8620.8895   -7888.7879    -745.1307     102002.7      46.7237      46.7237      46.7237 
  236000    106.08147   -8626.3759   -7922.1791   -872.04264     102002.7      46.7237      46.7237      46.7237 
  237000    111.68755   -8658.2306   -7916.8192    -972.8124     102002.7      46.7237      46.7237      46.7237 
  238000    110.81564   -8644.2246   -7908.6011   -927.80339     102002.7      46.7237      46.7237      46.7237 
  239000    114.38217   -8628.9022   -7869.6032   -842.02792     102002.7      46.7237      46.7237      46.7237 
  240000    108.55852   -8636.8365   -7916.1964   -803.30277     102002.7      46.7237      46.7237      46.7237 
  241000    107.52677   -8619.5472   -7905.7562   -738.08996     102002.7      46.7237      46.7237      46.7237 
  242000    108.69933   -8626.2411   -7904.6663   -463.27576     102002.7      46.7237      46.7237      46.7237 
  243000    110.81742   -8659.1306   -7923.4953   -985.44255     102002.7      46.7237      46.7237      46.7237 
  244000    113.39406   -8655.5405   -7902.8008   -932.44972     102002.7      46.7237      46.7237      46.7237 
  245000    110.85176    -8644.031   -7908.1678   -689.74405     102002.7      46.7237      46.7237      46.7237 
  246000    108.11598   -8639.0162   -7921.3138   -990.62803     102002.7      46.7237      46.7237      46.7237 
  247000    109.68305    -8626.845     -7898.74   -821.56143     102002.7      46.7237      46.7237      46.7237 
  248000    109.76003   -8603.1294   -7874.5134    -520.9171     102002.7      46.7237      46.7237      46.7237 
  249000    110.24397   -8668.8926    -7937.064   -974.11952     102002.7      46.7237      46.7237      46.7237 
  250000    111.11087   -8633.4955   -7895.9122   -335.59615     102002.7      46.7237      46.7237      46.7237 
  251000    110.95574   -8628.3103   -7891.7568   -671.55068     102002.7      46.7237      46.7237      46.7237 
  252000    110.13574   -8626.2877   -7895.1776    -625.0498     102002.7      46.7237      46.7237      46.7237 
  253000    108.61037   -8628.5162   -7907.5319   -501.98579     102002.7      46.7237      46.7237      46.7237 
  254000      108.827   -8658.6364   -7936.2141   -739.75004     102002.7      46.7237      46.7237      46.7237 
  255000    108.74655   -8646.8332   -7924.9449   -453.07832     102002.7      46.7237      46.7237      46.7237 
  256000    111.24696   -8626.6158    -7888.129   -575.10348     102002.7      46.7237      46.7237      46.7237 
  257000    109.38294   -8641.0926   -7914.9798   -470.52271     102002.7      46.7237      46.7237      46.7237 
  258000     112.9283   -8617.8379     -7868.19   -756.66485     102002.7      46.7237      46.7237      46.7237 
  259000    112.59629   -8624.1687   -7876.7248   -561.35899     102002.7      46.7237      46.7237      46.7237 
  260000    109.83893   -8657.6209   -7928.4811   -718.24849     102002.7      46.7237      46.7237      46.7237 
  261000    107.69503   -8656.3142   -7941.4062   -1000.0424     102002.7      46.7237      46.7237      46.7237 
  262000    111.74966    -8651.564   -7909.7403   -681.33957     102002.7      46.7237      46.7237      46.7237 
  263000    110.27906   -8636.2408   -7904.1793   -538.24488     102002.7      46.7237      46.7237      46.7237 
  264000    113.14041   -8629.9134   -7878.8575   -463.68132     102002.7      46.7237      46.7237      46.7237 
  265000    108.37113   -8632.0133   -7912.6171   -814.99887     102002.7      46.7237      46.7237      46.7237 
  266000    106.78443   -8631.5483   -7922.6851   -963.67802     102002.7      46.7237      46.7237      46.7237 
  267000    111.13941   -8627.3933   -7889.6206   -690.89597     102002.7      46.7237      46.7237      46.7237 
  268000    109.26758   -8626.4735   -7901.1264   -1015.2169     102002.7      46.7237      46.7237      46.7237 
  269000    109.90146   -8629.6102   -7900.0552   -853.83223     102002.7      46.7237      46.7237      46.7237 
  270000    111.64093   -8641.6941   -7900.5922   -618.50372     102002.7      46.7237      46.7237      46.7237 
  271000    115.38347   -8643.1066   -7877.1607   -965.57718     102002.7      46.7237      46.7237      46.7237 
  272000    108.69051   -8621.5148   -7899.9985   -1014.6066     102002.7      46.7237      46.7237      46.7237 
  273000    107.47868   -8650.4683   -7936.9964   -619.75486     102002.7      46.7237      46.7237      46.7237 
  274000     111.3428   -8622.5508    -7883.428   -832.46416     102002.7      46.7237      46.7237      46.7237 
  275000    114.12532    -8650.351    -7892.757   -1069.5921     102002.7      46.7237      46.7237      46.7237 
  276000     111.3034   -8622.1069   -7883.2456   -893.81344     102002.7      46.7237      46.7237      46.7237 
  277000    113.56508   -8634.3707   -7880.4957   -735.52111     102002.7      46.7237      46.7237      46.7237 
  278000    110.09148   -8633.4059   -7902.5897   -818.86787     102002.7      46.7237      46.7237      46.7237 
  279000    108.86692   -8658.9417   -7936.2544   -993.36033     102002.7      46.7237      46.7237      46.7237 
  280000    111.42216   -8644.2801   -7904.6304   -805.38205     102002.7      46.7237      46.7237      46.7237 
  281000    110.17801   -8649.7032   -7918.3125    -925.2133     102002.7      46.7237      46.7237      46.7237 
  282000    108.58239   -8627.4012   -7906.6026    -763.0477     102002.7      46.7237      46.7237      46.7237 
  283000    109.87574   -8639.0831   -7909.6989   -1189.5719     102002.7      46.7237      46.7237      46.7237 
  284000    112.29257   -8638.4189   -7892.9911   -996.72093     102002.7      46.7237      46.7237      46.7237 
  285000    105.48512   -8632.0192   -7931.7811   -1189.9311     102002.7      46.7237      46.7237      46.7237 
  286000     107.8035    -8621.369   -7905.7409   -906.37315     102002.7      46.7237      46.7237      46.7237 
  287000    112.40831   -8641.8717   -7895.6756   -833.34797     102002.7      46.7237      46.7237      46.7237 
  288000     108.7418   -8637.2396   -7915.3829   -820.15781     102002.7      46.7237      46.7237      46.7237 
  289000    108.32194    -8656.133   -7937.0633   -789.04959     102002.7      46.7237      46.7237      46.7237 
  290000    109.83182   -8645.8803   -7916.7877   -564.87354     102002.7      46.7237      46.7237      46.7237 
  291000    112.29088   -8616.6654   -7871.2489   -584.81028     102002.7      46.7237      46.7237      46.7237 
  292000    111.40936   -8628.3214   -7888.7566   -576.17643     102002.7      46.7237      46.7237      46.7237 
  293000    108.57018   -8623.2558   -7902.5383   -688.35467     102002.7      46.7237      46.7237      46.7237 
  294000    111.05889   -8663.0892    -7925.851   -767.92945     102002.7      46.7237      46.7237      46.7237 
  295000    108.03662   -8628.6318   -7911.4562   -528.00829     102002.7      46.7237      46.7237      46.7237 
  296000    109.74041   -8648.4291   -7919.9433   -648.86792     102002.7      46.7237      46.7237      46.7237 
  297000    109.68548   -8646.4596   -7918.3384   -645.03669     102002.7      46.7237      46.7237      46.7237 
  298000    110.70368   -8638.3998   -7903.5195   -370.31852     102002.7      46.7237      46.7237      46.7237 
  299000    110.48034   -8649.6431   -7916.2454   -371.46406     102002.7      46.7237      46.7237      46.7237 
  300000    113.92499   -8621.1253   -7864.8611    -646.6967     102002.7      46.7237      46.7237      46.7237 
  301000    112.71866    -8639.755   -7891.4988   -729.68842     102002.7      46.7237      46.7237      46.7237 
  302000    112.64016   -8647.3455   -7899.6104   -549.57627     102002.7      46.7237      46.7237      46.7237 
  303000    106.00319   -8628.3168   -7924.6396   -335.86934     102002.7      46.7237      46.7237      46.7237 
  304000    110.55126   -8635.1559   -7901.2874   -961.54999     102002.7      46.7237      46.7237      46.7237 
  305000    109.90673   -8650.5136   -7920.9237   -863.97328     102002.7      46.7237      46.7237      46.7237 
  306000    111.47324    -8626.295   -7886.3062   -397.44425     102002.7      46.7237      46.7237      46.7237 
  307000    110.53602   -8647.0596   -7913.2923    -1107.318     102002.7      46.7237      46.7237      46.7237 
  308000    110.30842   -8643.0364     -7910.78    -706.1947     102002.7      46.7237      46.7237      46.7237 
  309000    110.67923   -8637.8933   -7903.1754   -569.76973     102002.7      46.7237      46.7237      46.7237 
  310000    111.53265   -8614.2721    -7873.889   -734.14077     102002.7      46.7237      46.7237      46.7237 
  311000    112.33304   -8623.4639   -7877.7675   -569.54701     102002.7      46.7237      46.7237      46.7237 
  312000    111.80954   -8638.4617   -7896.2405     -707.402     102002.7      46.7237      46.7237      46.7237 
  313000    108.18752   -8639.5654   -7921.3881   -917.52157     102002.7      46.7237      46.7237      46.7237 
  314000    109.91427   -8623.5203   -7893.8803   -882.04006     102002.7      46.7237      46.7237      46.7237 
  315000    114.18242   -8627.7267   -7869.7537   -852.80368     102002.7      46.7237      46.7237      46.7237 
  316000    108.23523   -8626.2461   -7907.7521   -612.77362     102002.7      46.7237      46.7237      46.7237 
  317000     111.6913   -8619.0701   -7877.6338   -778.01508     102002.7      46.7237      46.7237      46.7237 
  318000    106.70779    -8629.465   -7921.1106   -992.36616     102002.7      46.7237      46.7237      46.7237 
  319000    115.37256   -8624.3117   -7858.4382   -580.03197     102002.7      46.7237      46.7237      46.7237 
  320000    110.95863   -8623.9607    -7887.388   -821.09642     102002.7      46.7237      46.7237      46.7237 
  321000     112.1743   -8652.3297   -7907.6871   -705.74823     102002.7      46.7237      46.7237      46.7237 
  322000     108.0936   -8658.1558   -7940.6019   -755.01709     102002.7      46.7237      46.7237      46.7237 
  323000    113.09063   -8629.3572   -7878.6317   -895.96786     102002.7      46.7237      46.7237      46.7237 
  324000    112.21321   -8602.7389   -7857.8379   -368.17527     102002.7      46.7237      46.7237      46.7237 
  325000    108.49791    -8631.201   -7910.9632   -652.70112     102002.7      46.7237      46.7237      46.7237 
  326000    110.53633   -8619.1492   -7885.3798   -647.80352     102002.7      46.7237      46.7237      46.7237 
  327000     109.7139   -8597.9835   -7869.6737    -553.1656     102002.7      46.7237      46.7237      46.7237 
  328000    112.67728   -8645.9012   -7897.9197   -666.09077     102002.7      46.7237      46.7237      46.7237 
  329000      112.769   -8644.2357   -7895.6453    -831.0203     102002.7      46.7237      46.7237      46.7237 
  330000    107.39223   -8634.3164   -7921.4184   -832.50078     102002.7      46.7237      46.7237      46.7237 
  331000    110.07219    -8612.553   -7881.8647    -479.7831     102002.7      46.7237      46.7237      46.7237 
  332000    110.82893   -8622.0147    -7886.303   -805.54803     102002.7      46.7237      46.7237      46.7237 
  333000    108.66668   -8606.4508   -7885.0927   -659.98944     102002.7      46.7237      46.7237      46.7237 
  334000    110.64844   -8641.9849   -7907.4714   -820.58998     102002.7      46.7237      46.7237      46.7237 
  335000    105.52032   -8634.5177   -7934.0459   -972.20005     102002.7      46.7237      46.7237      46.7237 
  336000    111.35673   -8642.1764    -7902.961   -774.07497     102002.7      46.7237      46.7237      46.7237 
  337000    109.93022   -8606.5166   -7876.7708   -904.93614     102002.7      46.7237      46.7237      46.7237 
  338000     110.6289   -8639.3895   -7905.0056   -600.24293     102002.7      46.7237      46.7237      46.7237 
  339000    109.21236   -8664.2231   -7939.2426   -868.93322     102002.7      46.7237      46.7237      46.7237 
  340000    112.22315   -8653.7462   -7908.7793    -908.1985     102002.7      46.7237      46.7237      46.7237 
  341000    109.15669   -8628.9407   -7904.3298   -926.49441     102002.7      46.7237      46.7237      46.7237 
  342000    109.96163   -8647.1551   -7917.2008   -1034.7112     102002.7      46.7237      46.7237      46.7237 
  343000    109.02171   -8617.5433   -7893.8284   -810.17803     102002.7      46.7237      46.7237      46.7237 
  344000    111.12298   -8643.8793   -7906.2156   -806.84632     102002.7      46.7237      46.7237      46.7237 
  345000    112.06155   -8621.7218   -7877.8276   -927.33843     102002.7      46.7237      46.7237      46.7237 
  346000    109.95437    -8609.819   -7879.9129   -698.15289     102002.7      46.7237      46.7237      46.7237 
  347000    113.05047   -8627.8659    -7877.407   -888.46599     102002.7      46.7237      46.7237      46.7237 
  348000    111.27727   -8638.3665   -7899.6786   -901.48509     102002.7      46.7237      46.7237      46.7237 
  349000    106.63228   -8640.2552    -7932.402    -1025.303     102002.7      46.7237      46.7237      46.7237 
  350000    110.20005   -8653.0628   -7921.5258   -839.96946     102002.7      46.7237      46.7237      46.7237 
  351000    109.21877   -8637.9982   -7912.9752   -778.46269     102002.7      46.7237      46.7237      46.7237 
  352000    112.18094    -8636.894   -7892.2073   -1005.8838     102002.7      46.7237      46.7237      46.7237 
  353000    111.30421   -8631.8632   -7892.9964   -739.39545     102002.7      46.7237      46.7237      46.7237 
  354000    108.79349   -8641.0632   -7918.8633   -886.74709     102002.7      46.7237      46.7237      46.7237 
  355000     111.9337   -8632.4389   -7889.3934   -865.32035     102002.7      46.7237      46.7237      46.7237 
  356000    110.55493   -8639.9653   -7906.0725    -781.6973     102002.7      46.7237      46.7237      46.7237 
  357000    108.22791   -8636.5146   -7918.0691   -459.20763     102002.7      46.7237      46.7237      46.7237 
  358000    107.91671   -8609.6695   -7893.2899   -615.47205     102002.7      46.7237      46.7237      46.7237 
  359000    110.93136   -8645.1895   -7908.7979   -917.41204     102002.7      46.7237      46.7237      46.7237 
  360000    110.22022   -8607.9191   -7876.2481   -531.33425     102002.7      46.7237      46.7237      46.7237 
  361000    109.46906   -8645.6217   -7918.9372    -649.8181     102002.7      46.7237      46.7237      46.7237 
  362000    104.92961   -8624.9942   -7928.4437    -1025.121     102002.7      46.7237      46.7237      46.7237 
  363000    110.00547   -8632.9387   -7902.6933   -725.69343     102002.7      46.7237      46.7237      46.7237 
  364000    111.54144   -8644.1708   -7903.7293    -886.9306     102002.7      46.7237      46.7237      46.7237 
  365000    109.74763   -8619.7417   -7891.2079   -511.78946     102002.7      46.7237      46.7237      46.7237 
  366000     108.7053   -8679.2903   -7957.6758   -919.15227     102002.7      46.7237      46.7237      46.7237 
  367000    107.68896    -8651.741   -7936.8733   -825.02766     102002.7      46.7237      46.7237      46.7237 
  368000    109.26152   -8635.5925   -7910.2857   -532.63564     102002.7      46.7237      46.7237      46.7237 
  369000    116.03197   -8625.7837   -7855.5329   -499.09378     102002.7      46.7237      46.7237      46.7237 
  370000    111.07507   -8640.5101   -7903.1645   -680.42718     102002.7      46.7237      46.7237      46.7237 
  371000    110.62886   -8652.8178   -7918.4342   -578.44917     102002.7      46.7237      46.7237      46.7237 
  372000    110.05492   -8645.4105   -7914.8369    -532.0612     102002.7      46.7237      46.7237      46.7237 
  373000    108.89463   -8639.3753    -7916.504   -268.33813     102002.7      46.7237      46.7237      46.7237 
  374000    109.37279   -8647.7475    -7921.702   -589.33457     102002.7      46.7237      46.7237      46.7237 
  375000     109.6928    -8641.975   -7913.8052   -515.12304     102002.7      46.7237      46.7237      46.7237 
  376000    111.37291    -8649.782   -7910.4592   -497.83215     102002.7      46.7237      46.7237      46.7237 
  377000    110.44422   -8637.4327   -7904.2748    -619.9826     102002.7      46.7237      46.7237      46.7237 
  378000     106.7697   -8632.6801   -7923.9147   -447.75634     102002.7      46.7237      46.7237      46.7237 
  379000    109.77011   -8614.6481   -7885.9651   -1033.9749     102002.7      46.7237      46.7237      46.7237 
  380000    112.36729    -8606.353   -7860.4293   -630.78513     102002.7      46.7237      46.7237      46.7237 
  381000    109.65081   -8622.3902   -7894.4991   -754.56218     102002.7      46.7237      46.7237      46.7237 
  382000    110.73816   -8630.6547   -7895.5456   -828.50395     102002.7      46.7237      46.7237      46.7237 
  383000    110.28979   -8640.3279   -7908.1952   -882.42703     102002.7      46.7237      46.7237      46.7237 
  384000    108.77337   -8643.2026   -7921.1362   -966.42366     102002.7      46.7237      46.7237      46.7237 
  385000    110.89312   -8632.7232   -7896.5854   -477.11302     102002.7      46.7237      46.7237      46.7237 
  386000    108.25274   -8633.4982    -7914.888   -683.86887     102002.7      46.7237      46.7237      46.7237 
  387000    110.45614   -8643.6483   -7910.4113   -885.58771     102002.7      46.7237      46.7237      46.7237 
  388000    111.32286   -8619.4082   -7880.4177   -647.68616     102002.7      46.7237      46.7237      46.7237 
  389000    110.74006   -8623.0191   -7887.8974   -530.86437     102002.7      46.7237      46.7237      46.7237 
  390000    110.41648   -8621.7618    -7888.788   -880.74853     102002.7      46.7237      46.7237      46.7237 
  391000    110.89863   -8638.1318   -7901.9575   -753.93369     102002.7      46.7237      46.7237      46.7237 
  392000    110.78511   -8651.3063   -7915.8856   -917.54009     102002.7      46.7237      46.7237      46.7237 
  393000    109.48758   -8629.7316   -7902.9242   -865.92068     102002.7      46.7237      46.7237      46.7237 
  394000    108.81933   -8670.4271   -7948.0556    -627.9555     102002.7      46.7237      46.7237      46.7237 
  395000    109.72314   -8643.1457   -7914.7745   -628.30185     102002.7      46.7237      46.7237      46.7237 
  396000    112.17165   -8651.5737   -7906.9487   -697.61052     102002.7      46.7237      46.7237      46.7237 
  397000    110.27885   -8654.4924   -7922.4323   -823.18263     102002.7      46.7237      46.7237      46.7237 
  398000    111.63191   -8660.8422   -7919.8001   -724.86544     102002.7      46.7237      46.7237      46.7237 
  399000    108.08953   -8653.1982   -7935.6714   -728.02808     102002.7      46.7237      46.7237      46.7237 
  400000    114.29661     -8657.13   -7898.3989   -797.20866     102002.7      46.7237      46.7237      46.7237 
  401000    110.47391   -8612.6676   -7879.3126   -681.14583     102002.7      46.7237      46.7237      46.7237 
  402000    110.09759   -8646.2284   -7915.3715   -996.82065     102002.7      46.7237      46.7237      46.7237 
  403000    109.22104   -8617.4216   -7892.3835   -694.89117     102002.7      46.7237      46.7237      46.7237 
  404000      108.647   -8663.0314   -7941.8039   -751.05523     102002.7      46.7237      46.7237      46.7237 
  405000     105.7673   -8648.3274   -7946.2162   -817.70091     102002.7      46.7237      46.7237      46.7237 
  406000    109.40122   -8623.8573   -7897.6231   -563.50143     102002.7      46.7237      46.7237      46.7237 
  407000    112.94189   -8649.0394   -7899.3013   -789.87183     102002.7      46.7237      46.7237      46.7237 
  408000    111.71689   -8651.9682    -7910.362   -970.61913     102002.7      46.7237      46.7237      46.7237 
  409000    112.69266   -8624.5542   -7876.4706   -974.41759     102002.7      46.7237      46.7237      46.7237 
  410000    106.96735   -8635.1061   -7925.0286    -1165.245     102002.7      46.7237      46.7237      46.7237 
  411000    112.23155   -8626.6625   -7881.6398   -930.13924     102002.7      46.7237      46.7237      46.7237 
  412000    110.57254   -8622.4321   -7888.4224   -794.43013     102002.7      46.7237      46.7237      46.7237 
  413000     109.4301   -8615.7615   -7889.3356   -502.50002     102002.7      46.7237      46.7237      46.7237 
  414000    108.76113   -8642.6718   -7920.6867   -521.32775     102002.7      46.7237      46.7237      46.7237 
  415000    109.04187   -8643.2233   -7919.3746    -634.7747     102002.7      46.7237      46.7237      46.7237 
  416000    109.74136   -8637.6206   -7909.1285   -670.67358     102002.7      46.7237      46.7237      46.7237 
  417000    108.48298   -8649.8443   -7929.7057   -702.68679     102002.7      46.7237      46.7237      46.7237 
  418000    113.03156   -8651.9438   -7901.6105   -628.92291     102002.7      46.7237      46.7237      46.7237 
  419000    111.49628   -8659.5127   -7919.3709   -841.91809     102002.7      46.7237      46.7237      46.7237 
  420000    110.82961   -8666.3584   -7930.6422   -746.75701     102002.7      46.7237      46.7237      46.7237 
  421000    111.60368   -8661.3924   -7920.5377   -787.82868     102002.7      46.7237      46.7237      46.7237 
  422000    108.88966   -8630.3683     -7907.53   -966.63435     102002.7      46.7237      46.7237      46.7237 
  423000    108.39929   -8643.6427   -7924.0596   -928.75346     102002.7      46.7237      46.7237      46.7237 
  424000    108.53463   -8652.4876    -7932.006    -875.2864     102002.7      46.7237      46.7237      46.7237 
  425000    111.46688   -8651.9435   -7911.9969   -984.23188     102002.7      46.7237      46.7237      46.7237 
  426000    108.35529   -8638.5913   -7919.3003   -785.55368     102002.7      46.7237      46.7237      46.7237 
  427000    107.54187   -8648.3464    -7934.455   -590.96493     102002.7      46.7237      46.7237      46.7237 
  428000    108.61123   -8642.8954   -7921.9054   -925.72749     102002.7      46.7237      46.7237      46.7237 
  429000    111.03615   -8619.8325   -7882.7452   -881.24143     102002.7      46.7237      46.7237      46.7237 
  430000    109.56675   -8653.0291   -7925.6961     -919.719     102002.7      46.7237      46.7237      46.7237 
  431000    110.36433   -8647.0668   -7914.4392   -842.14858     102002.7      46.7237      46.7237      46.7237 
  432000    112.32608   -8632.3159   -7886.6658   -800.10812     102002.7      46.7237      46.7237      46.7237 
  433000    111.45521   -8625.2971    -7885.428   -877.89773     102002.7      46.7237      46.7237      46.7237 
  434000    106.81943   -8658.9715    -7949.876   -723.12711     102002.7      46.7237      46.7237      46.7237 
  435000      111.343   -8640.9633    -7901.839   -949.54327     102002.7      46.7237      46.7237      46.7237 
  436000    108.56904   -8638.3563   -7917.6464   -1096.7199     102002.7      46.7237      46.7237      46.7237 
  437000    108.78866    -8622.171   -7900.0032   -808.39804     102002.7      46.7237      46.7237      46.7237 
  438000    109.92953   -8650.2171   -7920.4759   -857.72828     102002.7      46.7237      46.7237      46.7237 
  439000    108.40041   -8639.0087   -7919.4182   -652.58323     102002.7      46.7237      46.7237      46.7237 
  440000    108.39729   -8614.3959    -7894.826   -624.53599     102002.7      46.7237      46.7237      46.7237 
  441000    112.27749   -8634.2155   -7888.8879   -921.50753     102002.7      46.7237      46.7237      46.7237 
  442000    107.47641   -8610.3483   -7896.8915   -743.08974     102002.7      46.7237      46.7237      46.7237 
  443000    111.14523   -8661.9098   -7924.0984   -774.63434     102002.7      46.7237      46.7237      46.7237 
  444000    114.48184    -8619.965   -7860.0044    -829.0747     102002.7      46.7237      46.7237      46.7237 
  445000    110.44425   -8631.7105   -7898.5524   -771.57212     102002.7      46.7237      46.7237      46.7237 
  446000    110.00477   -8653.7245   -7923.4838   -847.61251     102002.7      46.7237      46.7237      46.7237 
  447000    104.59563    -8623.546   -7929.2126   -673.85848     102002.7      46.7237      46.7237      46.7237 
  448000    108.32713   -8641.0419   -7921.9378    -801.4156     102002.7      46.7237      46.7237      46.7237 
  449000    109.89295   -8603.3449   -7873.8465   -787.43426     102002.7      46.7237      46.7237      46.7237 
  450000    110.41428   -8636.8224   -7903.8632    -698.8849     102002.7      46.7237      46.7237      46.7237 
  451000    107.95652   -8657.5058   -7940.8619   -841.88917     102002.7      46.7237      46.7237      46.7237 
  452000    110.67779   -8621.8034    -7887.095   -662.54748     102002.7      46.7237      46.7237      46.7237 
  453000     110.0962   -8631.5582   -7900.7106   -567.50322     102002.7      46.7237      46.7237      46.7237 
  454000     111.0899   -8628.6667   -7891.2226   -626.56562     102002.7      46.7237      46.7237      46.7237 
  455000    111.47386   -8623.5959   -7883.6029   -747.63517     102002.7      46.7237      46.7237      46.7237 
  456000    111.56598   -8648.9559   -7908.3515   -928.66891     102002.7      46.7237      46.7237      46.7237 
  457000    111.70778   -8613.5397   -7871.9939   -577.19317     102002.7      46.7237      46.7237      46.7237 
  458000    109.12467   -8628.5218   -7904.1234   -689.46827     102002.7      46.7237      46.7237      46.7237 
  459000    111.68898   -8647.4103   -7905.9894   -839.51555     102002.7      46.7237      46.7237      46.7237 
  460000    109.81571    -8620.507   -7891.5213   -779.39677     102002.7      46.7237      46.7237      46.7237 
  461000    113.85751   -8627.3796   -7871.5634   -698.44361     102002.7      46.7237      46.7237      46.7237 
  462000    109.79279   -8642.3937   -7913.5602   -818.32517     102002.7      46.7237      46.7237      46.7237 
  463000    108.52273   -8628.2665    -7907.864   -781.32345     102002.7      46.7237      46.7237      46.7237 
  464000    112.51989   -8638.4285   -7891.4918   -910.48913     102002.7      46.7237      46.7237      46.7237 
  465000    110.51832    -8638.397   -7904.7472     -1060.63     102002.7      46.7237      46.7237      46.7237 
  466000    111.30411   -8654.4356   -7915.5695   -640.14032     102002.7      46.7237      46.7237      46.7237 
  467000    112.74478   -8644.4815   -7896.0518   -946.44823     102002.7      46.7237      46.7237      46.7237 
  468000    111.22185   -8646.3502   -7908.0302   -575.34431     102002.7      46.7237      46.7237      46.7237 
  469000    107.96216    -8626.397   -7909.7157   -673.49696     102002.7      46.7237      46.7237      46.7237 
  470000    112.24784   -8619.3565   -7874.2257   -600.22853     102002.7      46.7237      46.7237      46.7237 
  471000     109.1128   -8631.1619   -7906.8423   -827.49898     102002.7      46.7237      46.7237      46.7237 
  472000    111.95263   -8663.9177   -7920.7466   -898.10469     102002.7      46.7237      46.7237      46.7237 
  473000    109.15086   -8648.4043   -7923.8321   -700.76964     102002.7      46.7237      46.7237      46.7237 
  474000    109.62904   -8619.8464   -7892.0999   -906.85192     102002.7      46.7237      46.7237      46.7237 
  475000    112.11282   -8610.5816   -7866.3471   -769.86474     102002.7      46.7237      46.7237      46.7237 
  476000    109.54859   -8644.2821   -7917.0696   -700.18818     102002.7      46.7237      46.7237      46.7237 
  477000    106.34366   -8645.7652    -7939.828   -792.91087     102002.7      46.7237      46.7237      46.7237 
  478000     111.4378   -8639.9575   -7900.2039   -584.18172     102002.7      46.7237      46.7237      46.7237 
  479000    110.27247   -8639.2952   -7907.2775   -985.63735     102002.7      46.7237      46.7237      46.7237 
  480000    109.73327   -8613.6498   -7885.2114   -533.61276     102002.7      46.7237      46.7237      46.7237 
  481000    108.09976   -8638.1071   -7920.5123   -653.70974     102002.7      46.7237      46.7237      46.7237 
  482000    109.96791   -8633.8584   -7903.8624   -832.22158     102002.7      46.7237      46.7237      46.7237 
  483000    111.55227   -8616.0553   -7875.5419   -552.16044     102002.7      46.7237      46.7237      46.7237 
  484000    110.50923   -8627.0715    -7893.482   -683.61317     102002.7      46.7237      46.7237      46.7237 
  485000    112.86952   -8638.1656    -7888.908   -612.52974     102002.7      46.7237      46.7237      46.7237 
  486000    106.62828   -8649.0728   -7941.2462   -718.47804     102002.7      46.7237      46.7237      46.7237 
  487000    109.72487   -8630.4163   -7902.0337   -737.43735     102002.7      46.7237      46.7237      46.7237 
  488000    109.61291   -8624.6754   -7897.0359   -611.44944     102002.7      46.7237      46.7237      46.7237 
  489000    109.36077   -8645.6901   -7919.7245   -803.15825     102002.7      46.7237      46.7237      46.7237 
  490000    106.24625   -8645.6029   -7940.3122   -848.65868     102002.7      46.7237      46.7237      46.7237 
  491000    108.89833   -8634.3784   -7911.4825   -623.24613     102002.7      46.7237      46.7237      46.7237 
  492000    111.03833   -8623.9399   -7886.8381   -929.70716     102002.7      46.7237      46.7237      46.7237 
  493000     110.3848   -8632.9836   -7900.2202   -906.27611     102002.7      46.7237      46.7237      46.7237 
  494000    110.83183   -8645.3833   -7909.6524   -781.90423     102002.7      46.7237      46.7237      46.7237 
  495000    109.65486     -8644.89   -7916.9721   -920.59318     102002.7      46.7237      46.7237      46.7237 
  496000    109.31518    -8611.973     -7886.31   -663.16999     102002.7      46.7237      46.7237      46.7237 
  497000     109.0955   -8607.1998    -7882.995    -835.4667     102002.7      46.7237      46.7237      46.7237 
  498000    109.73936   -8658.6346   -7930.1557   -507.38825     102002.7      46.7237      46.7237      46.7237 
  499000    110.23359   -8633.5528   -7901.7931   -690.52031     102002.7      46.7237      46.7237      46.7237 
  500000    111.81125   -8620.0629   -7877.8303   -548.15282     102002.7      46.7237      46.7237      46.7237 
  500501    108.93932    -8619.905    -7896.737   -559.67825     102002.7      46.7237      46.7237      46.7237 
Loop time of 730.081 on 24 procs for 500000 steps with 2228 atoms

Performance: 59.172 ns/day, 0.406 hours/ns, 684.856 timesteps/s
99.0% CPU use with 24 MPI tasks x no OpenMP threads

MPI task timing breakdown:
Section |  min time  |  avg time  |  max time  |%varavg| %total
---------------------------------------------------------------
Pair    | 177.14     | 331.34     | 506.39     | 498.0 | 45.38
Bond    | 60.75      | 78.53      | 100.24     | 129.5 | 10.76
Neigh   | 4.3911     | 4.4113     | 4.4258     |   0.5 |  0.60
Comm    | 110.95     | 306.17     | 477.06     | 572.5 | 41.94
Output  | 0.3948     | 0.39507    | 0.39835    |   0.1 |  0.05
Modify  | 3.7964     | 4.1933     | 4.5215     |   9.3 |  0.57
Other   |            | 5.033      |            |       |  0.69

Nlocal:    92.8333 ave 120 max 49 min
Histogram: 2 0 1 0 1 6 5 5 3 1
Nghost:    2502.54 ave 2580 max 2426 min
Histogram: 1 1 7 4 2 0 1 0 5 3
Neighs:    7640.17 ave 12402 max 1795 min
Histogram: 2 0 2 4 3 2 3 2 3 3

Total # of neighbors = 183364
Ave neighs/atom = 82.2998
Ave special neighs/atom = 5.17056
Neighbor list builds = 4487
Dangerous builds = 0
Neighbor list info ...
  update every 1 steps, delay 10 steps, check yes
  max neighbors/atom: 2000, page size: 100000
  master list distance cutoff = 16
  ghost atom cutoff = 16
  binsize = 8, bins = 6 6 6
  3 neighbor lists, perpetual/occasional/extra = 3 0 0
  (1) pair buck6d/coul/gauss/dsf, perpetual, skip from (3)
      attributes: half, newton on
      pair build: skip
      stencil: none
      bin: none
  (2) pair lj/cut, perpetual, skip from (3)
      attributes: half, newton on
      pair build: skip
      stencil: none
      bin: none
  (3) neighbor class addition, perpetual
      attributes: half, newton on
      pair build: half/bin/newton
      stencil: half/bin/3d/newton
      bin: standard
Setting up Verlet run ...
  Unit style    : real
  Current step  : 500501
  Time step     : 1
WARNING: Inconsistent image flags (../domain.cpp:786)
Per MPI rank memory allocation (min/avg/max) = 24.14 | 24.52 | 24.62 Mbytes
Step Time TotEng KinEng PotEng E_mol E_pair Temp Pxx Pyy Pzz Pxy Pxz Pyz Cella Cellb Cellc CellAlpha CellBeta CellGamma Volume Press 
  500501       500000    -7896.737    723.16799    -8619.905    4280.4428   -12900.348    108.93932   -58.806041   -1184.0306   -436.19808   -51.459508    73.825066   -70.462478      46.7237      46.7237      46.7237           90           90           90     102002.7   -559.67825 
  501000       500499   -7922.8409    722.88263   -8645.7235    4265.3447   -12911.068    108.89634   -805.49088   -891.76921   -985.87416   -80.998729   -122.44596    137.56536      46.7237      46.7237      46.7237           90           90           90     102002.7   -894.37808 
  502000       501499    -7866.467    762.65311   -8629.1202    4283.3488   -12912.469    114.88743   -273.65531   -1315.8624   -842.86054    141.55355     172.1609    194.96884      46.7237      46.7237      46.7237           90           90           90     102002.7   -810.79276 
  503000       502499   -7924.8085    715.97919   -8640.7877    4257.2817   -12898.069    107.85639   -995.17504   -667.64934   -855.99511    181.61606   -65.139442    67.087234      46.7237      46.7237      46.7237           90           90           90     102002.7   -839.60649 
  504000       503499   -7873.9922    742.30759   -8616.2998    4296.0932   -12912.393    111.82255   -538.91192   -461.83299   -970.39825    4.0800596    5.0362393   -174.57011      46.7237      46.7237      46.7237           90           90           90     102002.7   -657.04772 
  505000       504499   -7940.0537    693.15474   -8633.2084    4276.4442   -12909.653    104.41807   -747.46905   -554.86196   -942.15557    172.52883   -147.07899   -123.57862      46.7237      46.7237      46.7237           90           90           90     102002.7   -748.16219 
  506000       505499   -7906.3732    734.71809   -8641.0913    4290.1658   -12931.257    110.67925   -717.79608   -823.57681   -506.40669    32.996391   -25.721144     61.67114      46.7237      46.7237      46.7237           90           90           90     102002.7   -682.59319 
  507000       506499   -7904.1325    737.10387   -8641.2364    4276.4384   -12917.675    111.03865   -997.43377   -450.32157   -752.58937    86.097413    73.461904   -162.11066      46.7237      46.7237      46.7237           90           90           90     102002.7   -733.44824 
  508000       507499   -7915.3359    717.06299   -8632.3989    4268.8685   -12901.267    108.01966   -1321.3742   -1181.0752   -653.25101   -177.12126     50.36394   -36.967029      46.7237      46.7237      46.7237           90           90           90     102002.7   -1051.9001 
  509000       508499   -7886.3722    748.21918   -8634.5914    4289.5486    -12924.14    112.71308   -1068.1352   -564.52198   -664.44917    92.490952    500.28834    217.92787      46.7237      46.7237      46.7237           90           90           90     102002.7    -765.7021 
  510000       509499   -7901.4649    715.83174   -8617.2966    4298.2714   -12915.568    107.83418   -911.28654   -1213.4921   -797.44289    298.89707    1.2854084    36.272664      46.7237      46.7237      46.7237           90           90           90     102002.7   -974.07383 
  511000       510499   -7909.0135    735.47744    -8644.491    4257.7478   -12902.239    110.79364   -506.42248   -901.09265   -847.35644   -172.61604   -63.654608    89.272529      46.7237      46.7237      46.7237           90           90           90     102002.7   -751.62385 
  512000       511499   -7915.7313     740.0311   -8655.7624    4264.2622   -12920.025    111.47961   -709.19752   -1152.3285   -480.90527   -152.32614    75.479178   -153.92402      46.7237      46.7237      46.7237           90           90           90     102002.7   -780.81043 
  513000       512499   -7855.3009    742.90793   -8598.2088    4309.5582   -12907.767    111.91298   -627.54079   -712.77615   -523.69561   -134.61034  -0.44104339   -115.99955      46.7237      46.7237      46.7237           90           90           90     102002.7   -621.33752 
  514000       513499   -7907.8688     719.0941   -8626.9629    4264.4761   -12891.439    108.32563   -362.71853    -353.2268   -767.51471   -158.24199   -105.50673     -193.289      46.7237      46.7237      46.7237           90           90           90     102002.7   -494.48668 
  515000       514499    -7869.231     738.4005   -8607.6315    4288.8774   -12896.509    111.23398   -698.54352   -1035.3273   -882.81576   -42.379491   -152.95088    169.38394      46.7237      46.7237      46.7237           90           90           90     102002.7   -872.22885 
  516000       515499   -7879.4661    745.90774   -8625.3738     4288.728   -12914.102    112.36488   -223.23575    -571.6518   -837.57444   -149.88313   -214.00292    47.998532      46.7237      46.7237      46.7237           90           90           90     102002.7     -544.154 
  517000       516499   -7868.1237    733.27789   -8601.4015    4316.6417   -12918.043     110.4623   -640.98403   -742.81494   -1064.4835     17.39293   -98.900622   -204.32543      46.7237      46.7237      46.7237           90           90           90     102002.7   -816.09414 
  518000       517499    -7893.399    724.28637   -8617.6853    4260.9027   -12878.588     109.1078   -169.14929   -593.18101   -872.65662   -19.419992   -188.68206    34.874668      46.7237      46.7237      46.7237           90           90           90     102002.7   -544.99564 
  519000       518499   -7905.9275    723.14625   -8629.0737    4264.6189   -12893.693    108.93605   -723.49337   -935.09717    -589.2245    215.22868    6.7207293    40.415238      46.7237      46.7237      46.7237           90           90           90     102002.7   -749.27168 
  520000       519499   -7930.8348    728.27166   -8659.1065    4256.0801   -12915.187    109.70815     -951.582   -720.76743   -976.61232   -175.63836     -19.1901    -32.44114      46.7237      46.7237      46.7237           90           90           90     102002.7   -882.98725 
  521000       520499   -7894.7482    721.82411   -8616.5723    4285.1887   -12901.761    108.73688    -676.8353    -538.3616   -956.07091   -65.232556    149.04099   -133.90601      46.7237      46.7237      46.7237           90           90           90     102002.7   -723.75594 
  522000       521499   -7892.9823    738.93496   -8631.9173    4287.4899   -12919.407    111.31449   -1091.5221   -1140.2419   -1034.0299    77.951674   -21.499128   -171.42438      46.7237      46.7237      46.7237           90           90           90     102002.7    -1088.598 
  523000       522499   -7924.3253    745.50905   -8669.8343    4244.1171   -12913.951    112.30482   -979.95877   -612.72249   -568.55355  -0.42473589   -167.37838    268.21932      46.7237      46.7237      46.7237           90           90           90     102002.7    -720.4116 
  524000       523499   -7871.2782    754.11243   -8625.3906    4296.5873   -12921.978    113.60085   -710.33304   -481.23774   -539.91744    75.126869    177.55916    84.876954      46.7237      46.7237      46.7237           90           90           90     102002.7   -577.16274 
  525000       524499   -7908.4535    711.26053    -8619.714    4314.3453   -12934.059    107.14556   -832.10643   -662.07262   -816.99069   -327.55586   -58.233033    310.79751      46.7237      46.7237      46.7237           90           90           90     102002.7   -770.38991 
  526000       525499   -7899.3427    726.72171   -8626.0644    4271.8402   -12897.905    109.47466   -399.11142   -816.85833   -968.05149    43.450944    242.09099    11.854934      46.7237      46.7237      46.7237           90           90           90     102002.7   -728.00708 
  527000       526499   -7900.9271    725.69755   -8626.6247    4286.1166   -12912.741    109.32038    -1096.839   -759.08853    -434.9993    179.91014    13.262835    67.570882      46.7237      46.7237      46.7237           90           90           90     102002.7   -763.64228 
  528000       527499   -7925.4823    722.77482   -8648.2571    4256.9695   -12905.227     108.8801   -639.21401   -995.88201    -875.4275   -202.63413   -87.461128   -100.50165      46.7237      46.7237      46.7237           90           90           90     102002.7   -836.84117 
  529000       528499   -7909.8319    720.85271   -8630.6846    4273.1821   -12903.867    108.59055   -344.38055   -1211.6701   -822.72779   -107.53154    1.7980329    60.613217      46.7237      46.7237      46.7237           90           90           90     102002.7   -792.92613 
  530000       529499   -7892.5698    738.53021      -8631.1    4279.6428   -12910.743    111.25352   -651.38147    -933.4567   -605.58783      53.4766    45.646935    71.608946      46.7237      46.7237      46.7237           90           90           90     102002.7     -730.142 
  531000       530499   -7888.6132     743.2591   -8631.8723    4285.7683   -12917.641    111.96588   -630.80492    -818.4721   -639.28089   -46.211213    243.59783     169.9231      46.7237      46.7237      46.7237           90           90           90     102002.7   -696.18597 
  532000       531499   -7917.7316    726.60605   -8644.3376    4285.8897   -12930.227    109.45724    -1202.794   -1393.8869   -773.25071   -233.94213    18.956603    -200.5018      46.7237      46.7237      46.7237           90           90           90     102002.7   -1123.3106 
  533000       532499   -7930.3141    717.28509   -8647.5992    4253.0011     -12900.6    108.05311   -352.13749   -821.02054   -272.54858    164.71752    61.042528   -4.0039812      46.7237      46.7237      46.7237           90           90           90     102002.7   -481.90221 
  534000       533499   -7912.4463    730.46499   -8642.9113    4274.0654   -12916.977    110.03856   -805.37862   -1305.9005   -710.29752    110.03014    126.29524    98.045961      46.7237      46.7237      46.7237           90           90           90     102002.7   -940.52556 
  535000       534499   -7893.8977    739.45234   -8633.3501    4266.8313   -12900.181    111.39243    -1108.542   -907.77974   -1181.5813     98.08324    86.693013      13.0395      46.7237      46.7237      46.7237           90           90           90     102002.7   -1065.9677 
  536000       535499   -7916.6192     716.9686   -8633.5878    4281.2389   -12914.827    108.00544   -791.59488   -143.41442   -715.79889    50.160582   -69.332243   -231.88567      46.7237      46.7237      46.7237           90           90           90     102002.7    -550.2694 
  537000       536499   -7895.3883    731.69525   -8627.0836    4265.2728   -12892.356    110.22389   -851.24706    -1138.685   -924.39321    50.819756    3.2560399   -303.32585      46.7237      46.7237      46.7237           90           90           90     102002.7   -971.44174 
  538000       537499   -7872.7093    755.32583   -8628.0351    4268.5366   -12896.572    113.78364   -663.11689    -632.8359   -1002.4545    106.14156    28.012235    62.628812      46.7237      46.7237      46.7237           90           90           90     102002.7   -766.13575 
  539000       538499    -7895.012    741.14648   -8636.1585    4287.2336   -12923.392    111.64764   -748.59507   -754.13566   -541.48399    380.55787   -215.26895    -88.95874      46.7237      46.7237      46.7237           90           90           90     102002.7    -681.4049 
  540000       539499   -7922.9269    726.48805    -8649.415    4265.1801   -12914.595    109.43946    -706.5731   -1230.3957   -1161.3757    5.9940454    30.043403   -41.580988      46.7237      46.7237      46.7237           90           90           90     102002.7   -1032.7815 
  541000       540499   -7900.0471    726.70069   -8626.7478    4296.8079   -12923.556     109.4715    -767.1223   -830.04691   -744.44291    48.844606   -72.451322   -262.46939      46.7237      46.7237      46.7237           90           90           90     102002.7   -780.53737 
  542000       541499   -7919.4967    727.02692   -8646.5236    4289.5186   -12936.042    109.52064   -737.82903   -675.37695   -941.56057   -61.937693    4.8456177   -128.47108      46.7237      46.7237      46.7237           90           90           90     102002.7   -784.92218 
  543000       542499   -7917.0085    719.66699   -8636.6754    4267.3807   -12904.056    108.41193   -929.93271   -773.93865   -1013.3997   -247.93319    58.913046   -20.836824      46.7237      46.7237      46.7237           90           90           90     102002.7   -905.75701 
  544000       543499   -7917.2062     717.1965   -8634.4027    4292.0703   -12926.473    108.03977   -438.07182    -1376.683   -1170.6123   -24.365401    36.275696   -98.866429      46.7237      46.7237      46.7237           90           90           90     102002.7   -995.12237 
  545000       544499   -7900.1833    731.40747   -8631.5908    4293.3757   -12924.966    110.18053   -834.07921   -816.97722   -769.15381    234.07118    119.18878   -206.48399      46.7237      46.7237      46.7237           90           90           90     102002.7   -806.73675 
  546000       545499   -7887.5333    731.84974    -8619.383    4254.1502   -12873.533    110.24716   -866.66794   -1015.2203   -522.07484    115.00772    213.28955   -39.793775      46.7237      46.7237      46.7237           90           90           90     102002.7   -801.32104 
  547000       546499   -7902.2165    725.16968   -8627.3861     4268.658   -12896.044    109.24086   -777.21668   -386.85284   -1515.1509   -92.819648    287.82077    87.775592      46.7237      46.7237      46.7237           90           90           90     102002.7   -893.07346 
  548000       547499   -7926.7796    722.39377   -8649.1734    4275.6344   -12924.808    108.82269   -515.12561   -746.73768   -908.14808   -140.50383    72.191554    115.49393      46.7237      46.7237      46.7237           90           90           90     102002.7   -723.33712 
  549000       548499   -7894.2881    712.88945   -8607.1776     4300.633   -12907.811    107.39095   -794.08772   -936.80564   -859.48765    362.79842   -34.681075    141.40523      46.7237      46.7237      46.7237           90           90           90     102002.7   -863.46034 
  550000       549499   -7907.5371    716.40886    -8623.946    4273.9615   -12897.908    107.92112   -572.67267   -629.04023   -839.10357    61.574124    302.51658    41.477964      46.7237      46.7237      46.7237           90           90           90     102002.7   -680.27216 
  551000       550499   -7926.0458    724.75211   -8650.7979    4277.7649   -12928.563    109.17796   -246.84234    -444.1531   -359.69229    121.52937    243.96038    34.935214      46.7237      46.7237      46.7237           90           90           90     102002.7   -350.22925 
  552000       551499   -7905.4973    732.18674    -8637.684    4269.1057    -12906.79    110.29792   -234.07437   -890.98737   -590.07354   -197.49306    183.21236   -95.442023      46.7237      46.7237      46.7237           90           90           90     102002.7   -571.71176 
  553000       552499   -7931.4006    725.09706   -8656.4977    4264.0221    -12920.52    109.22992   -493.10537   -1052.3487   -379.56955   -51.752923    74.187491    127.33827      46.7237      46.7237      46.7237           90           90           90     102002.7   -641.67453 
  554000       553499   -7911.6692    720.65479    -8632.324    4275.0835   -12907.407    108.56073   -600.60117    -948.6402   -938.73469    86.943757    108.57291    113.18627      46.7237      46.7237      46.7237           90           90           90     102002.7   -829.32535 
  555000       554499   -7927.4737    707.75663   -8635.2304    4266.2673   -12901.498    106.61773   -754.73905   -964.84729   -1429.0968   -53.402039    5.9003743    68.816706      46.7237      46.7237      46.7237           90           90           90     102002.7    -1049.561 
[...]
  936000       935499   -7871.9296    734.72748   -8606.6571    4279.5904   -12886.247    110.68067   -404.23324   -199.05386   -658.39095    173.66038   -109.50804    8.3481623      46.7237      46.7237      46.7237           90           90           90     102002.7   -420.55935 
  937000       936499   -7876.0466    745.97319   -8622.0197    4280.1659   -12902.186    112.37474   -631.94623   -411.72298     -481.171     57.61344    118.80317    121.99174      46.7237      46.7237      46.7237           90           90           90     102002.7   -508.28007 
  938000       937499   -7891.9178    723.12246   -8615.0403    4284.9859   -12900.026    108.93246   -779.48585   -931.17628   -650.33105   -309.25701    126.59083   -38.767982      46.7237      46.7237      46.7237           90           90           90     102002.7   -786.99772 
  939000       938499   -7916.9789    719.63323   -8636.6121    4280.2854   -12916.897    108.40684   -1131.0075   -914.01912   -673.79153   -26.696596    71.647204   -39.308967      46.7237      46.7237      46.7237           90           90           90     102002.7    -906.2727 
  940000       939499   -7895.3633    737.75924   -8633.1225    4263.0449   -12896.167    111.13738   -797.80482    -765.1978    -828.3179   -327.99537   -162.80861    34.121001      46.7237      46.7237      46.7237           90           90           90     102002.7   -797.10684 
  941000       940499   -7879.7095    747.41027   -8627.1198     4264.926   -12892.046    112.59122   -585.94298   -598.89377    -964.4683    120.10059    21.023337    70.671966      46.7237      46.7237      46.7237           90           90           90     102002.7   -716.43502 
  942000       941499   -7927.7852    709.48423   -8637.2695    4264.8466   -12902.116    106.87798   -640.97894   -904.02393    -805.8557   -43.726869    18.741366   -2.4384693      46.7237      46.7237      46.7237           90           90           90     102002.7   -783.61952 
  943000       942499   -7888.8349    741.11567   -8629.9506    4277.4001   -12907.351    111.64299   -55.971326   -684.91606   -690.47493    26.835532    -143.3886   -68.418319      46.7237      46.7237      46.7237           90           90           90     102002.7   -477.12077 
  944000       943499   -7955.4576    700.36328   -8655.8209    4253.1037   -12908.925    105.50398   -523.40335   -391.91638   -846.50217   -272.10149    197.56423    152.03248      46.7237      46.7237      46.7237           90           90           90     102002.7   -587.27396 
  945000       944499   -7915.8163    736.83397   -8652.6502    4283.3992   -12936.049    110.99799   -582.56566   -1160.8574   -1216.6847    58.892909   -118.76806    103.49535      46.7237      46.7237      46.7237           90           90           90     102002.7   -986.70258 
  946000       945499   -7869.8592    756.78295   -8626.6422    4294.8305   -12921.473    114.00314   -738.09273   -792.49228   -1054.5855    129.63189   -67.191693   -72.022634      46.7237      46.7237      46.7237           90           90           90     102002.7   -861.72349 
  947000       946499   -7909.1945    727.56613   -8636.7606    4266.3668   -12903.127    109.60187    -963.6454    -848.9618   -855.30709   -219.16173    164.11858    34.846192      46.7237      46.7237      46.7237           90           90           90     102002.7   -889.30476 
  948000       947499    -7871.874    757.39214   -8629.2662    4290.1158   -12919.382    114.09491   -582.71731   -661.35544   -1383.6152    57.776581    160.46408   -137.11258      46.7237      46.7237      46.7237           90           90           90     102002.7   -875.89598 
  949000       948499   -7927.4838    725.83879   -8653.3226    4262.4772     -12915.8    109.34166   -578.93987   -649.29724   -755.57744    55.585444    1.5610135    87.685213      46.7237      46.7237      46.7237           90           90           90     102002.7   -661.27152 
  950000       949499    -7908.736     730.5628   -8639.2988    4281.8846   -12921.183    110.05329   -1236.7485   -697.36967   -668.35791    24.990372   -28.662007    95.293929      46.7237      46.7237      46.7237           90           90           90     102002.7   -867.49202 
  951000       950499   -7886.1902    726.64885   -8612.8391    4279.5552   -12892.394    109.46369   -652.08148   -916.61554   -810.12864   -87.233388    283.11186   -128.73661      46.7237      46.7237      46.7237           90           90           90     102002.7   -792.94188 
  952000       951499   -7933.8055    702.53076   -8636.3363    4274.0951   -12910.431    105.83049   -635.72657     -913.826   -650.98453   -143.40754    191.10983   -254.94875      46.7237      46.7237      46.7237           90           90           90     102002.7   -733.51237 
  953000       952499   -7903.3352    733.62389   -8636.9591     4274.257   -12911.216    110.51442   -100.33984   -498.76262   -306.26958   -141.19446   -40.645298    78.686861      46.7237      46.7237      46.7237           90           90           90     102002.7   -301.79068 
  954000       953499   -7881.3493     737.6278   -8618.9771    4289.6628    -12908.64    111.11758   -837.58308    -505.2905   -1178.8642    178.83345   -80.088953    162.27842      46.7237      46.7237      46.7237           90           90           90     102002.7   -840.57926 
  955000       954499   -7940.9485    718.44406   -8659.3926    4258.6447   -12918.037     108.2277   -648.69281    45.286687   -562.52847     371.6377    151.54784     34.06013      46.7237      46.7237      46.7237           90           90           90     102002.7   -388.64486 
  956000       955499   -7903.0236    750.22667   -8653.2503    4258.5746   -12911.825    113.01549   -643.74316   -733.55283   -662.20946    108.17293    202.90059   -78.875443      46.7237      46.7237      46.7237           90           90           90     102002.7   -679.83515 
  957000       956499   -7885.7307    734.56089   -8620.2916    4273.6913   -12893.983    110.65557     -665.406    -802.7962   -312.90759   -29.138187    209.45578     47.25121      46.7237      46.7237      46.7237           90           90           90     102002.7   -593.70326 
  958000       957499   -7900.4171    736.06261   -8636.4797    4296.4478   -12932.928    110.88179   -518.83027   -584.02087   -577.04945    64.494052   -195.54377   -52.778539      46.7237      46.7237      46.7237           90           90           90     102002.7   -559.96686 
  959000       958499   -7920.4728    725.80194   -8646.2747     4286.197   -12932.472    109.33611   -932.37962    -596.6314   -635.27863    120.81501   -104.38423   -221.43115      46.7237      46.7237      46.7237           90           90           90     102002.7   -721.42988 
  960000       959499   -7909.6672    728.27494   -8637.9421    4264.8075    -12902.75    109.70864   -786.52197   -519.80731    15.866361   -179.69173    21.085995    7.6939393      46.7237      46.7237      46.7237           90           90           90     102002.7   -430.15431 
  961000       960499   -7926.0786    725.17036   -8651.2489    4254.1002   -12905.349    109.24096   -215.12175   -397.46966   -431.40005   -74.140423    43.952156   -51.225369      46.7237      46.7237      46.7237           90           90           90     102002.7   -347.99715 
  962000       961499   -7879.3051    747.75547   -8627.0605    4271.9006   -12898.961    112.64323   -926.71818   -944.96446   -1164.8559    262.55958   -44.825974   -44.872042      46.7237      46.7237      46.7237           90           90           90     102002.7   -1012.1795 
  963000       962499   -7882.7188    745.15759   -8627.8764    4272.3708   -12900.247    112.25188   -724.36234   -804.00995   -751.04692    85.906792    198.83977    33.359724      46.7237      46.7237      46.7237           90           90           90     102002.7   -759.80641 
  964000       963499    -7886.366    737.61965   -8623.9856     4305.212   -12929.198    111.11635   -1257.1153   -1362.3025   -638.49446    114.48896    -90.70902   -88.407912      46.7237      46.7237      46.7237           90           90           90     102002.7   -1085.9707 
  965000       964499   -7910.5785    737.92294   -8648.5014    4273.0301   -12921.531    111.16204   -1255.8431   -1216.9256   -880.36783    6.8225764   -42.672548   -147.35322      46.7237      46.7237      46.7237           90           90           90     102002.7   -1117.7122 
  966000       965499    -7887.452    733.18036   -8620.6323    4288.6662   -12909.299    110.44761   -888.45413   -588.95223   -629.68283   -21.024818    175.84918    54.098644      46.7237      46.7237      46.7237           90           90           90     102002.7   -702.36306 
  967000       966499   -7920.1313     727.3871   -8647.5184    4268.7205   -12916.239     109.5749   -1028.4201   -946.56923   -1393.2378    319.30334    9.5133479   -123.24213      46.7237      46.7237      46.7237           90           90           90     102002.7   -1122.7424 
  968000       967499    -7888.536    741.98576   -8630.5217    4291.4057   -12921.927    111.77407   -397.41564   -1286.4274   -870.56204   -7.0552252   -80.434819   -158.38016      46.7237      46.7237      46.7237           90           90           90     102002.7   -851.46837 
  969000       968499   -7892.7656    737.40004   -8630.1657    4282.7772   -12912.943    111.08326   -821.60582   -380.81071   -471.46365   -24.181001   -163.82284   -48.484879      46.7237      46.7237      46.7237           90           90           90     102002.7   -557.96006 
  970000       969499   -7906.4957    720.25107   -8626.7468    4293.6874   -12920.434    108.49991   -986.23897   -1108.9704   -1367.9801    37.714993    107.91309   -182.76526      46.7237      46.7237      46.7237           90           90           90     102002.7   -1154.3965 
  971000       970499    -7946.215    726.37853   -8672.5936    4256.2251   -12928.819    109.42297   -129.64256   -85.889549   -1074.0043    226.16169   -21.858966   -75.631185      46.7237      46.7237      46.7237           90           90           90     102002.7   -429.84547 
  972000       971499   -7912.0502    721.97895   -8634.0292    4300.7287   -12934.758    108.76021   -624.62395   -573.99983   -353.30825    152.43167    96.648915   -18.696899      46.7237      46.7237      46.7237           90           90           90     102002.7   -517.31067 
  973000       972499   -7902.2918    720.57518    -8622.867    4295.5462   -12918.413    108.54874   -803.68308   -965.03136   -514.68411    130.72119    -59.66053    6.0665553      46.7237      46.7237      46.7237           90           90           90     102002.7   -761.13285 
  974000       973499   -7908.1937    735.58598   -8643.7797    4282.2087   -12925.988    110.80999   -887.78352   -173.46648   -841.12909   -21.259662   -96.656387   -42.753346      46.7237      46.7237      46.7237           90           90           90     102002.7   -634.12636 
  975000       974499   -7865.1089    761.19685   -8626.3058     4266.622   -12892.928    114.66806    -491.9292    -553.8202   -583.77457    32.144755    88.156589   -173.95088      46.7237      46.7237      46.7237           90           90           90     102002.7   -543.17466 
  976000       975499   -7915.2745    716.28935   -8631.5638    4275.0215   -12906.585    107.90311   -898.54651   -915.20384    117.63837    115.82357   -99.587279   -86.167484      46.7237      46.7237      46.7237           90           90           90     102002.7   -565.37066 
  977000       976499   -7902.5425    728.80203   -8631.3446    4285.0618   -12916.406    109.78805   -610.50831   -624.12685   -852.89873   -88.737295    70.216629   -30.485624      46.7237      46.7237      46.7237           90           90           90     102002.7   -695.84463 
  978000       977499   -7883.6395    731.42494   -8615.0644    4285.1383   -12900.203    110.18317    -535.4071   -979.99644    -615.0615    -269.8258    38.491081    183.86176      46.7237      46.7237      46.7237           90           90           90     102002.7   -710.15502 
  979000       978499   -7878.6662    740.79495   -8619.4611    4272.1868   -12891.648    111.59468   -454.61621    -682.3039   -983.51215   -214.31237    330.42613    29.870851      46.7237      46.7237      46.7237           90           90           90     102002.7   -706.81075 
  980000       979499   -7917.6283    717.95917   -8635.5875    4273.4285   -12909.016    108.15466   -900.11898   -865.76559   -1102.8475    57.956958   -58.413919   -77.849884      46.7237      46.7237      46.7237           90           90           90     102002.7   -956.24401 
  981000       980499   -7901.8902    734.19402   -8636.0842    4276.4921   -12912.576    110.60031   -946.40911    -907.9923   -514.82176    362.48569    76.052958   -215.10868      46.7237      46.7237      46.7237           90           90           90     102002.7   -789.74106 
  982000       981499   -7878.3408    736.65787   -8614.9987    4295.4574   -12910.456    110.97146   -1096.1209   -1422.8591   -889.81587   -153.33576   -50.123187   -48.086487      46.7237      46.7237      46.7237           90           90           90     102002.7   -1136.2653 
  983000       982499   -7918.2789    713.78741   -8632.0663    4270.2904   -12902.357    107.52622   -638.54723   -1179.4752   -639.14245   -89.321882    252.91699   -144.89071      46.7237      46.7237      46.7237           90           90           90     102002.7   -819.05495 
  984000       983499    -7898.002    729.09735   -8627.0994    4267.7047   -12894.804    109.83253   -577.87621   -1020.8379   -864.68157    212.08769    207.81054    83.734887      46.7237      46.7237      46.7237           90           90           90     102002.7   -821.13188 
  985000       984499   -7910.1613    722.18512   -8632.3464    4271.3861   -12903.733    108.79126   -894.00787   -1107.5292   -1017.8028    216.16218   -30.810543     260.5005      46.7237      46.7237      46.7237           90           90           90     102002.7   -1006.4466 
  986000       985499   -7875.1663    743.07099   -8618.2372    4304.7211   -12922.958    111.93755   -720.94317   -811.24868   -957.79405   -144.66475    158.97116    163.19486      46.7237      46.7237      46.7237           90           90           90     102002.7    -829.9953 
  987000       986499   -7927.6741    723.15514   -8650.8292    4272.1588   -12922.988    108.93739   -440.84421   -1012.2086   -862.21831   -255.90841   -188.54333    2.9499423      46.7237      46.7237      46.7237           90           90           90     102002.7   -771.75704 
  988000       987499   -7898.5749    732.98437   -8631.5592    4265.5694   -12897.129    110.41808   -333.34657   -833.68356   -884.10892    4.9033542    93.367022    13.891048      46.7237      46.7237      46.7237           90           90           90     102002.7   -683.71302 
  989000       988499   -7921.1225    714.09305   -8635.2155    4258.6866   -12893.902    107.57226   -669.57191   -805.25218    -605.7254    322.31217   -62.191354   -44.524684      46.7237      46.7237      46.7237           90           90           90     102002.7    -693.5165 
  990000       989499   -7900.9439    729.81241   -8630.7563    4266.9087   -12897.665    109.94025   -898.65215    -988.3543   -1146.2122   -10.727135   -39.301621   -44.931164      46.7237      46.7237      46.7237           90           90           90     102002.7   -1011.0729 
  991000       990499   -7896.5536    721.98855   -8618.5421    4301.0426   -12919.585    108.76165   -915.81374   -1041.1888   -1418.4552    101.17521   -193.39789   -301.00833      46.7237      46.7237      46.7237           90           90           90     102002.7   -1125.1526 
  992000       991499   -7900.0379    747.61181   -8647.6497    4251.7004    -12899.35    112.62159   -714.90138    -1008.216   -1004.5438   -40.797278   -32.891151    130.51679      46.7237      46.7237      46.7237           90           90           90     102002.7   -909.22039 
  993000       992499   -7889.5924    738.56374   -8628.1561    4282.1874   -12910.344    111.25857   -822.38303    -868.6502   -1151.5957    67.504123    244.32838   -219.11565      46.7237      46.7237      46.7237           90           90           90     102002.7   -947.54298 
  994000       993499   -7892.7448    738.11111   -8630.8559    4254.6359   -12885.492    111.19038    -398.0865   -818.95826    -927.0636    -234.9269   -9.6415254   -214.57225      46.7237      46.7237      46.7237           90           90           90     102002.7   -714.70279 
  995000       994499    -7886.828    737.78013   -8624.6082    4276.3402   -12900.948    111.14052   -836.86598   -1006.0149    -989.1107   -108.83172   -22.607289    48.023223      46.7237      46.7237      46.7237           90           90           90     102002.7   -943.99719 
  996000       995499   -7889.9027    730.23914   -8620.1418    4288.1069   -12908.249    110.00453   -791.71402   -1109.7748   -1236.0079   -331.14166   -106.87043    18.670294      46.7237      46.7237      46.7237           90           90           90     102002.7   -1045.8322 
  997000       996499   -7897.9534      735.023   -8632.9764    4266.7962   -12899.773    110.72518   -1115.8151    -624.4362   -713.23892    141.65741   -26.087707   -168.80629      46.7237      46.7237      46.7237           90           90           90     102002.7   -817.83007 
  998000       997499   -7907.6003    731.53566    -8639.136    4283.0511   -12922.187    110.19984   -892.17979   -1274.4052   -809.98288   -100.94894   -24.248896   -133.78105      46.7237      46.7237      46.7237           90           90           90     102002.7   -992.18929 
  999000       998499     -7882.72    751.34485   -8634.0649    4285.2807   -12919.346    113.18394   -630.29628   -1004.4151   -1185.3792   -78.007501    95.540362     71.94303      46.7237      46.7237      46.7237           90           90           90     102002.7   -940.03019 
 1000000       999499   -7876.2289    745.22162   -8621.4505    4273.2757   -12894.726    112.26152   -916.91809   -891.90542   -1260.6224   -79.567085     145.3419    76.815871      46.7237      46.7237      46.7237           90           90           90     102002.7   -1023.1486 
 1000501      1000000   -7907.4173    715.04166   -8622.4589    4291.5665   -12914.025    107.71516   -1050.7406   -1312.2712   -1198.3049    -60.22115    142.72583   -173.66817      46.7237      46.7237      46.7237           90           90           90     102002.7   -1187.1056 
Loop time of 837.07 on 24 procs for 500000 steps with 2228 atoms

Performance: 51.609 ns/day, 0.465 hours/ns, 597.321 timesteps/s
99.2% CPU use with 24 MPI tasks x no OpenMP threads

MPI task timing breakdown:
Section |  min time  |  avg time  |  max time  |%varavg| %total
---------------------------------------------------------------
Pair    | 183.16     | 380.14     | 572.01     | 596.3 | 45.41
Bond    | 50.063     | 82.493     | 121.07     | 217.0 |  9.85
Neigh   | 4.4636     | 4.4761     | 4.486      |   0.3 |  0.53
Comm    | 130.95     | 351.54     | 573.74     | 707.0 | 42.00
Output  | 0.42703    | 0.50712    | 0.51069    |   2.3 |  0.06
Modify  | 12.135     | 12.642     | 13.175     |   8.7 |  1.51
Other   |            | 5.275      |            |       |  0.63

Nlocal:    92.8333 ave 124 max 62 min
Histogram: 2 0 3 2 5 4 4 1 1 2
Nghost:    2471.54 ave 2507 max 2441 min
Histogram: 2 2 4 1 4 3 4 1 2 1
Neighs:    7638.79 ave 12581 max 3469 min
Histogram: 3 2 3 3 2 3 3 2 1 2

Total # of neighbors = 183331
Ave neighs/atom = 82.285
Ave special neighs/atom = 5.17056
Neighbor list builds = 4509
Dangerous builds = 0
Total wall time: 0:26:09
